

### IMPORT ATOMS ###
read_data ../Box_Setup/data.Ibeam_240K
  orthogonal box = (0 0 0) to (157.504 42.9242 26.8557)
  14 by 3 by 3 MPI processor grid
  reading atoms ...
  9253 atoms
  reading velocities ...
  9253 velocities
group water type 2
1381 atoms in group water
group graphite type 1
7872 atoms in group graphite


# Define potential
#
pair_style          sw
pair_coeff * * MLC_e.sw C mW

# Add velocity/set timestep
#

fix		1 graphite setforce 0.0 0.0 0.0
velocity 	graphite set 0.0 0.0 0.0
velocity            water create ${START_TEMP} ${SEED} rot yes dist gaussian
velocity            water create 240 ${SEED} rot yes dist gaussian
velocity            water create 240 15030 rot yes dist gaussian
timestep            5.0

# Define output
#
compute 1 water msd
compute 2 water temp


thermo	            100
thermo_style custom step c_2 press vol etotal ke pe c_1[4] density

# Neighbor lists
#
neigh_modify        delay 0 every 1 check yes


# Set fixes
#
fix                 2 water momentum 10 linear 1 1 1 rescale
fix                 3 all nve
fix                 4 water temp/csvr ${START_TEMP} ${START_TEMP} 500.0 928347
fix                 4 water temp/csvr 240 ${START_TEMP} 500.0 928347
fix                 4 water temp/csvr 240 240 500.0 928347

# Run 0.05 ns equilibration
#
dump                1 all custom 100 ${DIR}/eq.${NAME}.dump id type x y z vx vy vz
dump                1 all custom 100 run_1/eq.${NAME}.dump id type x y z vx vy vz
dump                1 all custom 100 run_1/eq.ibeam_cooling_1.dump id type x y z vx vy vz
run                 10000
Neighbor list info ...
  update every 1 steps, delay 0 steps, check yes
  max neighbors/atom: 2000, page size: 100000
  master list distance cutoff = 6.67472
  ghost atom cutoff = 6.67472
  binsize = 3.33736, bins = 48 13 9
  1 neighbor lists, perpetual/occasional/extra = 1 0 0
  (1) pair sw, perpetual
      attributes: full, newton on
      pair build: full/bin/atomonly
      stencil: full/bin/3d
      bin: standard
Per MPI rank memory allocation (min/avg/max) = 3.369 | 4.112 | 4.742 Mbytes
Step c_2 Press Volume TotEng KinEng PotEng c_1[4] Density 
       0          240   -344.39513    181563.75    -13284.54    987.24429   -14271.784            0    1.0922001 
     100      245.142   -368.17365    181563.75   -13256.006     1008.396   -14264.402   0.87668465    1.0922001 
     200    244.24456    -412.5372    181563.75   -13288.517    1004.7044   -14293.221    1.3721443    1.0922001 
     300    243.78162   -502.24229    181563.75   -13285.277    1002.8001   -14288.077    1.8507655    1.0922001 
     400     236.5288   -426.11365    181563.75   -13291.939    972.96544   -14264.904    2.3040757    1.0922001 
     500    239.69859   -227.71985    181563.75   -13302.959    986.00444   -14288.963    2.7306219    1.0922001 
     600    227.28578   -389.43974    181563.75   -13375.125    934.94411   -14310.069    3.1072737    1.0922001 
     700    232.70071   -463.54828    181563.75   -13355.401    957.21852   -14312.619      3.49573    1.0922001 
     800     229.3047    -546.0224    181563.75    -13391.92    943.24898   -14335.169    3.9318152    1.0922001 
     900    231.58803   -339.98463    181563.75   -13350.159    952.64151     -14302.8    4.4096487    1.0922001 
    1000    238.79658   -274.33246    181563.75   -13308.665    982.29399   -14290.959    4.8408946    1.0922001 
    1100    238.32036    -367.9109    181563.75   -13319.479    980.33505   -14299.814    5.0624247    1.0922001 
    1200    233.94679   -300.57118    181563.75   -13356.594    962.34428   -14318.938    5.2341615    1.0922001 
    1300     236.2774    -284.5304    181563.75   -13319.928    971.93131   -14291.859    5.4035555    1.0922001 
    1400    242.68426   -288.94097    181563.75   -13262.517    998.28602   -14260.803    5.7314847    1.0922001 
    1500    237.65056   -309.73729    181563.75   -13277.598    977.57982   -14255.178    6.1141975    1.0922001 
    1600    243.43646   -286.55876    181563.75   -13258.946    1001.3802   -14260.327    6.1152012    1.0922001 
    1700    241.00583   -264.46157    181563.75   -13278.217     991.3818   -14269.599    6.5011221    1.0922001 
    1800    241.73293   -204.43293    181563.75   -13283.671    994.37271   -14278.043    6.9097042    1.0922001 
    1900    258.47952   -225.60822    181563.75   -13227.098    1063.2601   -14290.358    6.9320324    1.0922001 
    2000    253.62462   -452.88256    181563.75   -13219.541    1043.2894    -14262.83    7.2088945    1.0922001 
    2100    252.10495   -425.90267    181563.75   -13243.603    1037.0382   -14280.641    7.5835769    1.0922001 
    2200    246.35063   -277.79999    181563.75   -13244.209    1013.3677   -14257.576    8.2593693    1.0922001 
    2300    247.56843   -296.13934    181563.75   -13291.791    1018.3772   -14310.169    8.5456793    1.0922001 
    2400    242.42163   -290.59603    181563.75   -13291.832    997.20572   -14289.038    8.8700915    1.0922001 
    2500    243.00196   -308.85151    181563.75   -13281.063     999.5929   -14280.656    9.0645073    1.0922001 
    2600    228.41421   -273.07188    181563.75    -13301.05    939.58595   -14240.636    9.4138314    1.0922001 
    2700    245.21063   -328.12592    181563.75   -13286.209    1008.6783   -14294.887    9.5093328    1.0922001 
    2800    249.39862   -223.01661    181563.75   -13302.837    1025.9057   -14328.743     9.752988    1.0922001 
    2900    237.19648   -408.78039    181563.75   -13357.689    975.71196   -14333.401    10.270068    1.0922001 
    3000    231.89249   -421.16793    181563.75   -13374.859    953.89388   -14328.753     10.67191    1.0922001 
    3100    237.94164   -432.73907    181563.75   -13363.834    978.77721   -14342.611    11.224143    1.0922001 
    3200    238.39401   -168.13727    181563.75   -13385.446    980.63801   -14366.084    11.197287    1.0922001 
    3300    237.32502   -70.358212    181563.75   -13340.184    976.24071   -14316.424    11.730962    1.0922001 
    3400    238.03683   -372.56015    181563.75   -13350.073    979.16877   -14329.242    11.814846    1.0922001 
    3500    235.13612   -553.12835    181563.75   -13345.438    967.23662   -14312.675    12.163299    1.0922001 
    3600    246.31336   -384.39492    181563.75    -13328.02    1013.2144   -14341.235    12.451893    1.0922001 
    3700    235.05763   -389.48254    181563.75   -13362.217    966.91377   -14329.131    12.723274    1.0922001 
    3800    236.59964   -387.42722    181563.75   -13347.471    973.25685   -14320.728    12.882191    1.0922001 
    3900    239.00172   -402.91172    181563.75   -13363.095    983.13786   -14346.233    13.054699    1.0922001 
    4000    238.14911   -436.70578    181563.75   -13362.094    979.63062   -14341.724    13.510899    1.0922001 
    4100    240.10362   -319.72646    181563.75   -13336.616    987.67051   -14324.286    13.587859    1.0922001 
    4200    237.99804    -260.2024    181563.75   -13299.976    979.00919   -14278.985    13.951467    1.0922001 
    4300    246.65043   -189.44931    181563.75   -13234.819    1014.6009    -14249.42    14.273082    1.0922001 
    4400    254.81175   -309.21157    181563.75   -13238.836    1048.1727   -14287.008    14.858235    1.0922001 
    4500    237.70016    -435.0225    181563.75   -13280.695    977.78387   -14258.479     15.34375    1.0922001 
    4600    239.86133   -446.75335    181563.75   -13297.387    986.67385   -14284.061    15.623382    1.0922001 
    4700    246.51176   -342.89348    181563.75   -13307.447    1014.0305   -14321.478    15.999049    1.0922001 
    4800    242.48867   -285.78429    181563.75   -13298.795    997.48147   -14296.276     16.29029    1.0922001 
    4900    238.46723   -375.53268    181563.75   -13325.822     980.9392   -14306.761    16.405255    1.0922001 
    5000    237.37508   -376.72667    181563.75   -13347.947    976.44662   -14324.394    16.752305    1.0922001 
    5100    241.10939   -407.51425    181563.75   -13354.461    991.80778   -14346.269    17.289677    1.0922001 
    5200    231.38999    -326.3678    181563.75   -13344.169    951.82688   -14295.996     17.56542    1.0922001 
    5300     234.1596   -159.97547    181563.75   -13384.758    963.21971   -14347.978    17.691582    1.0922001 
    5400    239.46739   -175.17202    181563.75   -13348.499    985.05337   -14333.552    18.019414    1.0922001 
    5500    236.30991    -305.5946    181563.75   -13366.072    972.06506   -14338.137    18.092775    1.0922001 
    5600    235.68344   -299.47264    181563.75   -13361.515    969.48806   -14331.003    18.500763    1.0922001 
    5700    238.89048   -317.41551    181563.75   -13313.751    982.68024   -14296.432    19.200612    1.0922001 
    5800    243.02468   -240.74192    181563.75   -13247.256    999.68637   -14246.943    20.025029    1.0922001 
    5900    242.41806   -194.13186    181563.75   -13276.229    997.19103    -14273.42    20.347471    1.0922001 
    6000    238.16427   -480.18429    181563.75   -13346.458      979.693   -14326.151    20.519286    1.0922001 
    6100    235.81301   -308.07544    181563.75   -13330.862    970.02104   -14300.883    20.941639    1.0922001 
    6200    240.94666   -380.89149    181563.75   -13311.991    991.13838    -14303.13    21.584457    1.0922001 
    6300    248.54111   -330.07567    181563.75   -13292.497    1022.3783   -14314.875    21.864302    1.0922001 
    6400    241.89792   -514.68346    181563.75   -13298.876     995.0514   -14293.928    22.163875    1.0922001 
    6500     235.4176   -615.84544    181563.75   -13309.801    968.39451   -14278.195    22.472788    1.0922001 
    6600    236.49882   -511.54844    181563.75   -13343.473    972.84212   -14316.315    22.439493    1.0922001 
    6700    234.27017   -341.38504    181563.75   -13356.542    963.67453   -14320.216    22.954527    1.0922001 
    6800    236.01376   -250.61456    181563.75   -13334.398    970.84682   -14305.245    23.214457    1.0922001 
    6900    220.97568   -271.48517    181563.75   -13369.425    908.98741   -14278.412    23.459374    1.0922001 
    7000    228.83924   -257.25168    181563.75   -13354.318    941.33431   -14295.652    23.803215    1.0922001 
    7100    244.93072   -332.29846    181563.75   -13278.995    1007.5269   -14286.522    23.700533    1.0922001 
    7200    240.16701   -317.58223    181563.75   -13288.074    987.93131   -14276.005    23.842384    1.0922001 
    7300     241.4012   -275.71224    181563.75   -13338.417    993.00815   -14331.425    24.285237    1.0922001 
    7400    238.79391   -320.80997    181563.75   -13350.799    982.28303   -14333.082    24.786253    1.0922001 
    7500    229.61075   -258.94863    181563.75   -13365.275    944.50793   -14309.783    25.079581    1.0922001 
    7600    234.05394   -449.79265    181563.75   -13373.933    962.78507   -14336.718    25.270937    1.0922001 
    7700    239.76875   -253.22837    181563.75   -13350.227    986.29303    -14336.52    25.329886    1.0922001 
    7800    241.34228   -418.85258    181563.75   -13303.772    992.76577   -14296.538    25.839084    1.0922001 
    7900    236.91507   -428.37953    181563.75   -13306.761    974.55436   -14281.315    26.400181    1.0922001 
    8000    234.43165   -236.14516    181563.75   -13300.915    964.33877   -14265.254    26.346992    1.0922001 
    8100    235.40364   -427.10889    181563.75   -13323.099    968.33708   -14291.436    26.730738    1.0922001 
    8200    231.72228    -309.8567    181563.75   -13342.133    953.19376   -14295.327    27.193653    1.0922001 
    8300    235.23973   -481.20302    181563.75     -13354.8    967.66284   -14322.463    27.510505    1.0922001 
    8400    227.98111   -338.78839    181563.75   -13352.885    937.80435    -14290.69    27.790449    1.0922001 
    8500    236.20833   -370.55948    181563.75   -13333.496    971.64718   -14305.143    28.009191    1.0922001 
    8600    246.00715    -223.5995    181563.75   -13311.772    1011.9548   -14323.727    28.372029    1.0922001 
    8700    226.69021   -328.60613    181563.75   -13363.888    932.49423   -14296.382    28.624238    1.0922001 
    8800    232.42761   -322.76469    181563.75   -13310.891    956.09512   -14266.986    28.677877    1.0922001 
    8900    237.44758   -293.61228    181563.75    -13321.07    976.74487   -14297.815    29.105099    1.0922001 
    9000    241.56999   -235.87217    181563.75   -13281.558    993.70247   -14275.261    29.553777    1.0922001 
    9100    240.46078   -347.52569    181563.75   -13273.338     989.1397   -14262.477    29.849635    1.0922001 
    9200     231.3245   -480.21814    181563.75   -13312.909    951.55748   -14264.466    30.320944    1.0922001 
    9300    236.09547    -368.3487    181563.75   -13332.132    971.18295   -14303.315    30.344928    1.0922001 
    9400    241.82162   -181.15332    181563.75   -13347.809    994.73754   -14342.546    30.630935    1.0922001 
    9500    245.61837   -152.85046    181563.75     -13330.7    1010.3555   -14341.056    30.850212    1.0922001 
    9600    228.79705   -389.56535    181563.75   -13398.556    941.16077   -14339.717    30.898601    1.0922001 
    9700    244.32722   -406.40173    181563.75   -13345.327    1005.0444   -14350.371    31.083403    1.0922001 
    9800    236.90377   -380.53369    181563.75   -13370.875     974.5079   -14345.383    31.384667    1.0922001 
    9900     243.2458   -174.27247    181563.75    -13320.09    1000.5959   -14320.686    31.770902    1.0922001 
   10000    243.92676   -192.61427    181563.75   -13275.057    1003.3971   -14278.455    31.866178    1.0922001 
Loop time of 15.6104 on 126 procs for 10000 steps with 9253 atoms

Performance: 276.738 ns/day, 0.087 hours/ns, 640.598 timesteps/s
97.6% CPU use with 126 MPI tasks x no OpenMP threads

MPI task timing breakdown:
Section |  min time  |  avg time  |  max time  |%varavg| %total
---------------------------------------------------------------
Pair    | 0.00072622 | 3.5092     | 13.101     | 241.9 | 22.48
Neigh   | 0.0035596  | 0.12155    | 0.38868    |  38.5 |  0.78
Comm    | 0.16876    | 3.4747     | 12.135     | 214.8 | 22.26
Output  | 0.15552    | 0.15569    | 0.16247    |   0.2 |  1.00
Modify  | 0.33007    | 8.2197     | 15.151     | 231.7 | 52.66
Other   |            | 0.1295     |            |       |  0.83

Nlocal:    73.4365 ave 210 max 0 min
Histogram: 55 5 24 0 0 0 0 0 28 14
Nghost:    650.405 ave 936 max 496 min
Histogram: 36 18 13 13 4 4 11 13 10 4
Neighs:    0 ave 0 max 0 min
Histogram: 126 0 0 0 0 0 0 0 0 0
FullNghs:  7929.63 ave 25665 max 0 min
Histogram: 64 20 0 0 0 0 0 7 27 8

Total # of neighbors = 999134
Ave neighs/atom = 107.979
Neighbor list builds = 555
Dangerous builds = 0
write_data 	    ${DIR}/data.${NAME}_eq
write_data 	    run_1/data.${NAME}_eq
write_data 	    run_1/data.ibeam_cooling_1_eq

undump              1
unfix               4



################################################
#######         Run Simulation         #########
################################################

reset_timestep      0
timestep	    10.0
log                 ${DIR}/log.run_${NAME}
log                 run_1/log.run_${NAME}
log                 run_1/log.run_ibeam_cooling_1
