

### IMPORT ATOMS ###
read_data ../Box_Setup/data.Ibeam_240K
  orthogonal box = (0 0 0) to (157.504 40.4305 33.9212)
  10 by 5 by 2 MPI processor grid
  reading atoms ...
  9248 atoms
  reading velocities ...
  9248 velocities
group water type 2
1952 atoms in group water
group graphite type 1
7296 atoms in group graphite


# Define potential
#
pair_style          sw
pair_coeff * * MLC_e.sw C mW

# Add velocity/set timestep
#

fix		1 graphite setforce 0.0 0.0 0.0
velocity 	graphite set 0.0 0.0 0.0
velocity            water create ${START_TEMP} ${SEED} rot yes dist gaussian
velocity            water create 235 ${SEED} rot yes dist gaussian
velocity            water create 235 23038 rot yes dist gaussian
timestep            5.0

# Define output
#
compute 1 water msd
compute 2 water temp


thermo	            100
thermo_style custom step c_2 press vol etotal ke pe c_1[4] density

# Neighbor lists
#
neigh_modify        delay 0 every 1 check yes


# Set fixes
#
fix                 2 water momentum 10 linear 1 1 1 rescale
fix                 3 all nve
fix                 4 water temp/csvr ${START_TEMP} ${START_TEMP} 500.0 928347
fix                 4 water temp/csvr 235 ${START_TEMP} 500.0 928347
fix                 4 water temp/csvr 235 235 500.0 928347

# Run 0.05 ns equilibration
#
dump                1 all custom 100 ${DIR}/eq.${NAME}.dump id type x y z vx vy vz
dump                1 all custom 100 run_3/eq.${NAME}.dump id type x y z vx vy vz
dump                1 all custom 100 run_3/eq.ibeam_cooling_3.dump id type x y z vx vy vz
run                 10000
Neighbor list info ...
  update every 1 steps, delay 0 steps, check yes
  max neighbors/atom: 2000, page size: 100000
  master list distance cutoff = 6.67472
  ghost atom cutoff = 6.67472
  binsize = 3.33736, bins = 48 13 11
  1 neighbor lists, perpetual/occasional/extra = 1 0 0
  (1) pair sw, perpetual
      attributes: full, newton on
      pair build: full/bin/atomonly
      stencil: full/bin/3d
      bin: standard
Per MPI rank memory allocation (min/avg/max) = 3.366 | 4.292 | 4.744 Mbytes
Step c_2 Press Volume TotEng KinEng PotEng c_1[4] Density 
       0          235    -305.4879    216009.12   -18733.422    1366.6567   -20100.079            0   0.94393226 
     100    234.00076   -358.77069    216009.12    -18761.56    1360.8456   -20122.406   0.78682383   0.94393226 
     200    235.32161   -378.24721    216009.12   -18820.105     1368.527   -20188.632    1.1317765   0.94393226 
     300    232.36955    -184.9388    216009.12   -18805.566    1351.3592   -20156.926    1.4860151   0.94393226 
     400    233.34557   -352.60471    216009.12   -18822.203    1357.0353   -20179.238    1.8232818   0.94393226 
     500    236.82318   -414.93513    216009.12   -18811.839    1377.2595   -20189.098    2.0413569   0.94393226 
     600    242.38116   -354.64404    216009.12    -18734.05    1409.5823   -20143.632     2.294388   0.94393226 
     700    237.34178   -312.25886    216009.12   -18728.838    1380.2754   -20109.114    2.5329942   0.94393226 
     800    237.97685   -339.29705    216009.12   -18707.117    1383.9687   -20091.086    2.8827394   0.94393226 
     900    233.40662   -198.83975    216009.12   -18733.676    1357.3903   -20091.067    3.1935705   0.94393226 
    1000     229.0269    -290.8961    216009.12    -18771.59    1331.9198   -20103.509    3.4356782   0.94393226 
    1100      240.614   -235.38302    216009.12   -18738.437    1399.3053   -20137.742    3.7977009   0.94393226 
    1200    235.35283    -254.0872    216009.12   -18738.379    1368.7086   -20107.087    4.2646782   0.94393226 
    1300    237.10866   -468.34363    216009.12   -18699.056    1378.9197   -20077.976    4.5423755   0.94393226 
    1400    234.02415   -311.71113    216009.12   -18733.445    1360.9816   -20094.427    4.8348731   0.94393226 
    1500    232.11425   -370.90633    216009.12   -18756.709    1349.8744   -20106.583    5.0182892   0.94393226 
    1600    238.47233   -153.43713    216009.12   -18739.526    1386.8502   -20126.376    5.3651979   0.94393226 
    1700     237.5133   -286.02926    216009.12   -18741.128     1381.273   -20122.401    5.6311739   0.94393226 
    1800    241.82035   -147.21191    216009.12   -18719.178    1406.3209   -20125.498    5.7667226   0.94393226 
    1900    242.68836   -294.55814    216009.12   -18695.823    1411.3688   -20107.192    6.0526132   0.94393226 
    2000    246.54917   -380.29418    216009.12   -18672.949    1433.8216   -20106.771    6.6725611   0.94393226 
    2100    231.02938   -293.51865    216009.12    -18752.59    1343.5653   -20096.155    7.0846435   0.94393226 
    2200    233.84293   -336.40384    216009.12   -18728.371    1359.9277   -20088.299    7.4367493   0.94393226 
    2300    238.09533   -277.22614    216009.12   -18707.283    1384.6578   -20091.941    7.8458458   0.94393226 
    2400    235.04586   -237.95221    216009.12   -18698.799    1366.9234   -20065.723    8.1171695   0.94393226 
    2500    229.48263   -305.32986    216009.12    -18713.55    1334.5701    -20048.12    8.5611963   0.94393226 
    2600    230.04096   -331.72718    216009.12   -18694.832    1337.8171   -20032.649    9.2609882   0.94393226 
    2700    237.87694   -365.78932    216009.12   -18687.551    1383.3877   -20070.939    9.7034416   0.94393226 
    2800    238.75019   -259.42828    216009.12   -18648.471    1388.4662   -20036.937      9.93932   0.94393226 
    2900     233.3255   -291.47346    216009.12   -18651.894    1356.9186   -20008.813    10.188222   0.94393226 
    3000    240.67187    -371.8291    216009.12   -18650.135    1399.6418   -20049.777    10.533003   0.94393226 
    3100    243.95143   -329.96266    216009.12   -18639.525    1418.7143   -20058.239     11.13563   0.94393226 
    3200    239.21917   -298.62016    216009.12   -18704.233    1391.1936   -20095.427    11.318156   0.94393226 
    3300    232.58195   -307.32583    216009.12   -18789.196    1352.5944    -20141.79    11.664068   0.94393226 
    3400    232.86332   -326.64469    216009.12   -18742.556    1354.2307   -20096.787    12.096748   0.94393226 
    3500    235.03271   -377.81615    216009.12   -18736.095    1366.8469   -20102.941    12.349942   0.94393226 
    3600    236.39791    -400.1002    216009.12   -18725.405    1374.7863   -20100.191    12.530696   0.94393226 
    3700    236.71806   -285.22664    216009.12   -18705.458    1376.6482   -20082.106     13.02295   0.94393226 
    3800    240.11767   -333.44102    216009.12   -18682.837    1396.4188   -20079.255     13.31133   0.94393226 
    3900    235.96236   -335.95186    216009.12   -18691.178    1372.2533   -20063.431    13.541361   0.94393226 
    4000    238.44082   -317.81507    216009.12   -18749.139     1386.667   -20135.806    14.008117   0.94393226 
    4100    232.87487   -393.18674    216009.12   -18740.728    1354.2979   -20095.025    14.262846   0.94393226 
    4200      235.789   -281.09477    216009.12   -18727.006    1371.2452   -20098.251    14.605642   0.94393226 
    4300    231.87096   -359.59404    216009.12   -18766.359    1348.4596   -20114.819     14.97987   0.94393226 
    4400    237.12689   -183.85615    216009.12    -18743.08    1379.0258   -20122.106    15.227286   0.94393226 
    4500     227.2343   -296.63325    216009.12    -18777.26    1321.4948   -20098.754    15.871546   0.94393226 
    4600    223.79184   -295.42551    216009.12   -18815.634    1301.4749   -20117.109    16.404995   0.94393226 
    4700    240.73005   -445.26163    216009.12   -18744.743    1399.9802   -20144.723    17.017317   0.94393226 
    4800    237.06743   -300.46993    216009.12   -18719.694    1378.6799   -20098.374    17.646358   0.94393226 
    4900    236.05001   -153.61387    216009.12   -18672.403    1372.7631   -20045.166     18.19314   0.94393226 
    5000    237.45787   -261.22937    216009.12   -18727.935    1380.9506   -20108.885    18.143644   0.94393226 
    5100    230.30604   -346.95579    216009.12   -18709.437    1339.3587   -20048.796    18.264677   0.94393226 
    5200    233.07477   -372.47935    216009.12   -18736.299    1355.4604   -20091.759    18.459485   0.94393226 
    5300    231.81514   -453.88701    216009.12   -18788.947     1348.135   -20137.082    18.495546   0.94393226 
    5400    231.74135   -286.16183    216009.12   -18777.128    1347.7058   -20124.834    19.001484   0.94393226 
    5500    233.89653   -235.69627    216009.12   -18759.627    1360.2394   -20119.867    19.044596   0.94393226 
    5600    228.24911   -333.58414    216009.12   -18789.418    1327.3965   -20116.814    19.042755   0.94393226 
    5700    232.41406   -414.44708    216009.12    -18749.15     1351.618   -20100.768    19.437623   0.94393226 
    5800    229.94392   -531.64292    216009.12   -18733.493    1337.2527   -20070.746    19.807124   0.94393226 
    5900    239.50474   -334.54246    216009.12   -18751.809    1392.8543   -20144.663    19.824856   0.94393226 
    6000    228.30518   -289.87269    216009.12   -18765.978    1327.7226     -20093.7    19.856986   0.94393226 
    6100    228.72452   -243.44802    216009.12   -18806.539    1330.1612     -20136.7    20.034098   0.94393226 
    6200    240.29074   -307.84564    216009.12   -18803.978    1397.4253   -20201.403    20.025777   0.94393226 
    6300     236.3793   -232.63657    216009.12   -18746.636    1374.6781   -20121.315     20.15237   0.94393226 
    6400    234.11421   -329.67906    216009.12   -18784.646    1361.5053   -20146.152    20.345163   0.94393226 
    6500    236.26071   -295.95381    216009.12   -18788.703    1373.9884   -20162.691    20.294838   0.94393226 
    6600     235.2986   -316.16221    216009.12   -18817.716    1368.3932   -20186.109    20.493444   0.94393226 
    6700    231.55613   -207.62348    216009.12   -18825.526    1346.6287   -20172.155    20.417302   0.94393226 
    6800    230.25537   -290.72772    216009.12   -18819.781     1339.064   -20158.845    20.977321   0.94393226 
    6900    234.79439   -443.90876    216009.12    -18794.21     1365.461   -20159.671    21.530287   0.94393226 
    7000    237.15821   -404.18007    216009.12   -18787.853    1379.2079   -20167.061    21.959356   0.94393226 
    7100    235.34373   -391.89517    216009.12   -18791.176    1368.6557   -20159.831    22.214092   0.94393226 
    7200    231.22583   -445.68813    216009.12   -18832.225    1344.7078   -20176.933    22.224954   0.94393226 
    7300    228.13512     -366.777    216009.12   -18854.996    1326.7336    -20181.73    22.331961   0.94393226 
    7400     238.1164   -413.71936    216009.12   -18819.379    1384.7803    -20204.16    22.509112   0.94393226 
    7500    233.76045   -300.64915    216009.12   -18796.886     1359.448   -20156.334    22.710155   0.94393226 
    7600    236.12717   -409.34673    216009.12   -18759.973    1373.2118   -20133.185    22.817615   0.94393226 
    7700    232.17921   -231.51914    216009.12    -18768.78    1350.2522   -20119.032    22.662525   0.94393226 
    7800    226.79699   -355.91888    216009.12   -18823.095    1318.9516   -20142.047    22.905402   0.94393226 
    7900    234.10809   -281.48788    216009.12   -18782.211    1361.4698   -20143.681    23.116478   0.94393226 
    8000    242.18977   -355.54583    216009.12   -18719.916    1408.4692   -20128.385    23.521081   0.94393226 
    8100    239.94638   -341.99222    216009.12    -18713.26    1395.4227   -20108.683    23.898344   0.94393226 
    8200    237.87982   -375.70494    216009.12   -18726.999    1383.4044   -20110.403    24.397845   0.94393226 
    8300    232.22931   -474.26218    216009.12   -18690.963    1350.5436   -20041.507    24.565278   0.94393226 
    8400    239.65516   -456.18663    216009.12   -18672.317    1393.7291   -20066.046    24.703508   0.94393226 
    8500    244.36837   -254.86693    216009.12   -18698.136     1421.139   -20119.275    24.969345   0.94393226 
    8600     231.6488   -177.08364    216009.12   -18715.614    1347.1676   -20062.782    25.148577   0.94393226 
    8700    232.66925   -294.11038    216009.12   -18732.224    1353.1021   -20085.326    25.495505   0.94393226 
    8800    232.66948   -326.21612    216009.12   -18734.806    1353.1034   -20087.909    25.844749   0.94393226 
    8900    232.52091   -268.77315    216009.12   -18758.294    1352.2394   -20110.533    26.055506   0.94393226 
    9000    238.87602   -224.10076    216009.12   -18725.042    1389.1979    -20114.24    26.711086   0.94393226 
    9100    232.22139   -373.35079    216009.12   -18746.193    1350.4975    -20096.69    27.115941   0.94393226 
    9200    236.89749   -225.97785    216009.12   -18690.351    1377.6917   -20068.043    27.331317   0.94393226 
    9300    234.64578   -244.11032    216009.12   -18740.326    1364.5967   -20104.922    27.326297   0.94393226 
    9400    241.05223   -247.96404    216009.12    -18722.84    1401.8538   -20124.694    27.598998   0.94393226 
    9500    224.82896   -232.11977    216009.12   -18754.706    1307.5064   -20062.212    28.070136   0.94393226 
    9600    235.06867   -326.98917    216009.12    -18762.32     1367.056   -20129.376    28.253961   0.94393226 
    9700    233.43026   -399.48963    216009.12   -18725.367    1357.5278   -20082.895    28.676345   0.94393226 
    9800    237.25099   -216.13894    216009.12   -18676.798    1379.7475   -20056.545    29.309956   0.94393226 
    9900     230.2764   -242.27987    216009.12   -18688.345    1339.1863   -20027.531    29.681727   0.94393226 
   10000    235.79653   -114.37974    216009.12   -18675.241     1371.289    -20046.53    30.190832   0.94393226 
Loop time of 15.9592 on 100 procs for 10000 steps with 9248 atoms

Performance: 270.690 ns/day, 0.089 hours/ns, 626.597 timesteps/s
97.7% CPU use with 100 MPI tasks x no OpenMP threads

MPI task timing breakdown:
Section |  min time  |  avg time  |  max time  |%varavg| %total
---------------------------------------------------------------
Pair    | 0.000772   | 4.8339     | 13.494     | 243.4 | 30.29
Neigh   | 0.0031028  | 0.15136    | 0.3448     |  30.9 |  0.95
Comm    | 0.17069    | 3.272      | 12.817     | 204.2 | 20.50
Output  | 0.1418     | 0.14201    | 0.14891    |   0.2 |  0.89
Modify  | 0.36076    | 7.4292     | 15.516     | 241.0 | 46.55
Other   |            | 0.1307     |            |       |  0.82

Nlocal:    92.48 ave 191 max 0 min
Histogram: 30 0 3 15 2 0 2 18 15 15
Nghost:    682.46 ave 1004 max 480 min
Histogram: 23 22 15 0 0 10 1 9 10 10
Neighs:    0 ave 0 max 0 min
Histogram: 100 0 0 0 0 0 0 0 0 0
FullNghs:  9467.62 ave 21338 max 0 min
Histogram: 30 20 0 0 0 0 4 16 15 15

Total # of neighbors = 946762
Ave neighs/atom = 102.375
Neighbor list builds = 561
Dangerous builds = 0
write_data 	    ${DIR}/data.${NAME}_eq
write_data 	    run_3/data.${NAME}_eq
write_data 	    run_3/data.ibeam_cooling_3_eq

undump              1
unfix               4



################################################
#######         Run Simulation         #########
################################################

reset_timestep      0
timestep	    10.0
log                 ${DIR}/log.run_${NAME}
log                 run_3/log.run_${NAME}
log                 run_3/log.run_ibeam_cooling_3
