
# Set production fixes - Nose/Hoover
#
fix                 4 water temp/csvr ${START_TEMP} ${END_TEMP} 500.0 928347
fix                 4 water temp/csvr 240 ${END_TEMP} 500.0 928347
fix                 4 water temp/csvr 240 227 500.0 928347


## divide "droplet" into core and surface
#region		core_reg cylinder z 135 135 44.6 20 INF units box
#region		surface_reg cylinder z 135 135 44.6 20 INF units box side out
#group		core dynamic all region core_reg
#group		surface dynamic all region surface_reg

## compute pressure core
#compute        peratom_core core stress/atom NULL
#compute        p_core core reduce sum c_peratom_core[1] c_peratom_core[2] c_peratom_core[3]
#variable       press_core equal -(c_p_core[1]+c_p_core[2]+c_p_core[3])/(3*1249982.5)


## compute pressure surface
#compute        peratom_surf surface stress/atom NULL
#compute        p_surf surface reduce sum c_peratom_surf[1] c_peratom_surf[2] #c_peratom_surf[3]
#variable       press_surf equal -(c_p_surf[1]+c_p_surf[2]+c_p_surf[3])/(3*42395)

## compute total pressure of drop
compute        peratom water stress/atom NULL
compute        p water reduce sum c_peratom[1] c_peratom[2] c_peratom[3]
variable       press equal -(c_p[1]+c_p[2]+c_p[3])/(3*58301)


# compute order parameter
compute        3 all orientorder/atom nnn NULL cutoff 3.5

# compute center of mass of bridge
compute 	4 water com

# Run simulation
thermo_style        custom step c_2 press vol etotal ke pe v_press c_1[4] c_4[*]
thermo              200
dump		     1 water custom 400 ${DIR}/prod.${NAME}.dump id type x y z vx vy vz c_3[*] c_peratom[*]
dump		     1 water custom 400 run_7/prod.${NAME}.dump id type x y z vx vy vz c_3[*] c_peratom[*]
dump		     1 water custom 400 run_7/prod.ibeam_cooling_7.dump id type x y z vx vy vz c_3[*] c_peratom[*]
run                 ${STEPS}
run                 5200000
Neighbor list info ...
  update every 1 steps, delay 0 steps, check yes
  max neighbors/atom: 2000, page size: 100000
  master list distance cutoff = 6.67472
  ghost atom cutoff = 6.67472
  binsize = 3.33736, bins = 57 9 12
  2 neighbor lists, perpetual/occasional/extra = 1 1 0
  (1) pair sw, perpetual
      attributes: full, newton on
      pair build: full/bin/atomonly
      stencil: full/bin/3d
      bin: standard
  (2) compute orientorder/atom, occasional, copy from (1)
      attributes: full, newton on
      pair build: copy
      stencil: none
      bin: none
Per MPI rank memory allocation (min/avg/max) = 6.163 | 6.791 | 7.286 Mbytes
Step c_2 Press Volume TotEng KinEng PotEng v_press c_1[4] c_4[1] c_4[2] c_4[3] 
       0    239.20489   -227.89498    204420.41   -23287.807    1736.2143   -25024.021   -317.87471     39.76856    95.096921    14.533529    27.920889 
     200    233.77105   -405.09633    204420.41   -23314.128     1696.774   -25010.902   -935.14733    41.792136    95.099145    14.533802    27.920115 
     400    234.89551   -191.21076    204420.41   -23279.577    1704.9356   -24984.512   -160.96947    43.754587    95.100725    14.533802    27.918246 
     600    240.04384   -510.11393    204420.41   -23192.726    1742.3036    -24935.03   -1269.5562    45.385158    95.100858    14.535063    27.919705 
     800    242.46536   -271.70658    204420.41   -23208.771    1759.8796   -24968.651   -434.22032    46.676291    95.100127    14.537295    27.919304 
    1000    240.43003   -425.73238    204420.41   -23245.901    1745.1067   -24991.008   -941.66204    48.095007     95.10104    14.536629    27.938066 
    1200    244.80071    -177.1054    204420.41   -23198.965    1776.8302   -24975.795   -30.099085     49.37409    95.100063    14.537813    27.941282 
    1400    242.69017   -269.79452    204420.41   -23170.132    1761.5114   -24931.643   -419.33576    51.187524    95.097413    14.539689    27.920246 
    1600    233.91708   -445.69246    204420.41    -23183.97    1697.8339   -24881.804   -1015.8795    51.438927    95.097655    14.541168      27.9276 
    1800     242.0425   -354.41207    204420.41   -23169.079    1756.8104   -24925.889   -693.27728    53.150475    95.101059    14.538917    27.932361 
    2000     243.2411     -488.378    204420.41    -23097.67    1765.5102    -24863.18   -1203.5029    54.566203    95.100024    14.537738    27.928852 
    2200    242.47459    -261.5464    204420.41   -23173.354    1759.9466   -24933.301   -387.17153     55.54359    95.099768    14.538093    27.952592 
    2400     240.9795   -298.10745    204420.41   -23159.021    1749.0948   -24908.116   -548.57925    57.347294    95.100311    14.537561    27.970157 
    2600    239.34387   -368.80663    204420.41   -23255.417     1737.223    -24992.64   -782.27981    60.617859    95.099702    14.539862    27.985316 
    2800    240.06575   -726.94197    204420.41   -23146.168    1742.4626   -24888.631   -1982.9938    61.741589    95.099486    14.544555    28.005889 
    3000    244.92135   -139.56482    204420.41   -23171.135    1777.7059   -24948.841    38.559509    62.475607    95.102719    14.547563    28.017767 
    3200    236.99142   -274.06745    204420.41    -23239.35    1720.1483   -24959.498   -430.31235    63.677294    95.102928     14.54818    28.031107 
    3400    238.56559   -414.53388    204420.41   -23213.373     1731.574   -24944.947   -920.58655    65.726839    95.103103    14.549714    28.028429 
    3600    238.66943   -350.59443    204420.41   -23238.921    1732.3277   -24971.249   -724.35277    65.621614    95.103187    14.551488    28.031594 
    3800    239.18012   -381.80358    204420.41   -23189.733    1736.0345   -24925.767   -823.21062    66.363866     95.10223    14.548616    28.034868 
    4000     236.1256   -495.79608    204420.41   -23259.833    1713.8639   -24973.697   -1206.5142    68.596974    95.101189    14.548728    28.036855 
    4200      238.275    -247.7363    204420.41     -23193.7    1729.4649   -24923.165   -400.32565    70.603135    95.099444    14.547687    28.011818 
    4400     238.0007   -462.89057    204420.41   -23190.509    1727.4739   -24917.983   -1072.6511    72.798184    95.100309    14.547419    27.983998 
    4600    236.10466   -316.74277    204420.41   -23279.137    1713.7119   -24992.849   -573.16551    74.226055     95.10232    14.545501    27.978238 
    4800    241.49008   -377.31592    204420.41   -23161.908    1752.8008   -24914.709   -799.98676    74.950968      95.1036    14.544649    27.992068 
    5000    241.15235   -348.03709    204420.41   -23215.628    1750.3495   -24965.977   -682.03109    77.020555     95.10272    14.542684    27.969853 
    5200    239.19817   -430.92797    204420.41    -23208.66    1736.1655   -24944.825   -937.41713    79.116403    95.102784    14.545119    27.962056 
    5400    246.81759   -175.62469    204420.41    -23269.86    1791.4693   -25061.329   -50.479876    81.265459    95.102981    14.546397    27.987546 
    5600    239.58302   -508.31899    204420.41   -23287.761    1738.9588   -25026.719    -1248.373    83.489798    95.103538    14.544294    28.012628 
    5800    240.74373    -457.2049    204420.41   -23226.313    1747.3836   -24973.697    -1110.677    84.206629    95.106414    14.543599    28.033121 
    6000    240.32124   -289.45953    204420.41   -23283.415     1744.317   -25027.732   -465.38787    85.398396    95.106794    14.542959    28.010592 
    6200    236.97827   -346.29217    204420.41       -23295    1720.0529   -25015.053    -702.8577    87.268875    95.107076    14.542467    28.005813 
    6400    237.37607   -310.20932    204420.41   -23263.123    1722.9402   -24986.063   -529.49046    88.630554    95.107433    14.539773    28.018487 
    6600    239.48646   -402.92704    204420.41   -23249.242    1738.2579     -24987.5   -886.17636    89.982727    95.109583    14.539324    28.031686 
    6800    241.94675   -222.47166    204420.41   -23279.639    1756.1154   -25035.754   -251.94497    90.093519    95.110243    14.540547    28.027501 
    7000    245.04629   -292.92384    204420.41   -23242.051    1778.6128   -25020.664   -494.70905    93.776659    95.111805    14.540352    28.022666 
    7200    232.84531    -326.0431    204420.41   -23337.762    1690.0547   -25027.817   -611.77996    96.897807    95.112067    14.539329    28.033895 
    7400     238.8142   -243.35554    204420.41   -23323.056    1733.3785   -25056.434   -315.62884    98.113835    95.113503    14.540318    28.046304 
    7600    246.16738   -334.06908    204420.41   -23230.651    1786.7499   -25017.401   -653.60784    98.669301    95.113179    14.536782    28.023428 
    7800    233.15585   -452.61748    204420.41    -23308.47    1692.3087   -25000.779   -1053.4289    100.19505    95.113117    14.531797     28.00738 
    8000     246.5054   -424.90609    204420.41   -23139.478    1789.2034   -24928.681   -976.59509    100.50604    95.112637    14.528561    27.997873 
    8200    248.03142    -366.9946    204420.41   -23173.012    1800.2796   -24973.292    -739.1623    101.86828    95.113567    14.532017    27.995659 
    8400    243.75153   -260.72111    204420.41   -23093.676     1769.215   -24862.891   -399.18618    103.36875    95.113227    14.530576    27.987087 
    8600    241.92662   -320.46589    204420.41   -23157.131    1755.9693   -24913.101   -587.90727    105.37592     95.11313    14.531539     27.99505 
    8800    240.80536    -317.1984    204420.41   -23179.045    1747.8309   -24926.876   -622.07146    106.70608    95.112692    14.529753    27.975684 
    9000    242.22316   -397.45096    204420.41   -23180.477    1758.1217   -24938.598    -852.4747    107.95125    95.113267    14.528925    27.966186 
    9200    244.36006   -433.38972    204420.41   -23149.108    1773.6319    -24922.74   -969.14853    109.89362    95.113962    14.530341    27.962666 
    9400    234.19656   -387.06244    204420.41   -23200.879    1699.8625   -24900.741   -795.91388    109.98636    95.113198    14.531005    27.966988 
    9600    238.72858   -397.35299    204420.41   -23229.546    1732.7571   -24962.303   -897.12254    112.25346    95.113394    14.532771    27.966681 
    9800    244.30667   -285.43926    204420.41   -23147.293    1773.2444   -24920.538   -469.24095    113.13895    95.112847    14.536546    27.966565 
   10000     239.9145   -208.64194    204420.41   -23213.956    1741.3648   -24955.321   -239.89643    115.60832    95.113467     14.53475    27.957127 
   10200    245.91134    -470.4593    204420.41   -23123.378    1784.8915    -24908.27   -1086.7698    116.08535    95.115215    14.533977    27.947738 
   10400    245.78833   -454.48969    204420.41   -23121.341    1783.9986   -24905.339   -1073.4785    118.13125     95.11587     14.53287    27.959413 
   10600    235.54597    -167.6072    204420.41   -23197.849    1709.6568   -24907.506   -79.178985    120.02191    95.114268    14.534395    27.959882 
   10800    238.37236   -375.30779    204420.41   -23249.618    1730.1716    -24979.79   -768.51638    122.56199    95.114975    14.535934    27.944992 
   11000    234.44519   -215.20155    204420.41   -23253.885    1701.6671   -24955.552   -246.68626    122.81812    95.115903    14.534296     27.95176 
   11200    240.43621   -383.27756    204420.41   -23266.799    1745.1515    -25011.95   -828.28154    122.53586    95.116243    14.530973    27.959261 
   11400    235.60318    -200.4571    204420.41   -23227.776     1710.072   -24937.848   -198.94729    124.96657    95.117633    14.529263    27.968062 
   11600    245.29605   -285.56348    204420.41   -23133.256    1780.4256   -24913.682   -440.86154    127.45534    95.116111    14.528903    27.954314 
   11800    244.94809   -507.57861    204420.41   -23200.686    1777.8999   -24978.586   -1261.1037    129.84519    95.115591    14.531659    27.985101 
   12000    242.71288   -149.01196    204420.41   -23205.574    1761.6762    -24967.25   -25.590995    131.46928    95.116633    14.531275    27.997644 
   12200    244.91035   -249.96575    204420.41   -23221.398    1777.6261   -24999.024    -347.5504    133.76622    95.117342    14.530447    27.992955 
   12400    240.01159   -514.36886    204420.41   -23257.788    1742.0695   -24999.857   -1278.6629    134.97258    95.116939    14.528785    27.987198 
   12600    238.91293   -313.36036    204420.41   -23192.467    1734.0951   -24926.562   -536.36596    135.95744    95.116037    14.529193    27.987278 
   12800    241.46523   -251.84082    204420.41     -23231.9    1752.6204    -24984.52   -330.64367    136.72395    95.114485     14.52925    27.977927 
   13000    240.33152   -385.10549    204420.41   -23285.643    1744.3917   -25030.034   -784.37078    138.36867    95.114848     14.53015    27.975809 
   13200    240.70129   -282.90307    204420.41   -23292.539    1747.0755   -25039.615   -408.61746    139.64826    95.115807    14.532305    27.950524 
   13400    235.99462   -292.54952    204420.41   -23321.475    1712.9133   -25034.389    -511.8657    140.47839    95.117795    14.532449    27.950642 
   13600    236.34204   -356.63112    204420.41   -23266.468    1715.4349   -24981.903   -664.92212    139.75348    95.119228    14.531019    27.964483 
   13800    241.27351   -191.22748    204420.41   -23207.748    1751.2288   -24958.977   -157.16714    141.26059    95.120131    14.530417    27.976603 
   14000    250.00889    -229.9552    204420.41   -23163.806    1814.6327   -24978.439   -278.21186    143.43326    95.119579    14.531012    27.979071 
   14200    244.47133    -641.7782    204420.41   -23274.408    1774.4395   -25048.848   -1720.8574    145.00746    95.118983    14.528539    27.964816 
   14400    238.66527   -231.76822    204420.41   -23331.085    1732.2976   -25063.383   -328.49451    146.68604    95.119817    14.527215    27.964707 
   14600      237.849   -285.85386    204420.41   -23318.038    1726.3729   -25044.411   -407.22012    147.26078    95.118864    14.526747    27.968136 
   14800    239.71584   -280.15818    204420.41   -23265.518    1739.9229   -25005.441   -449.37109    147.75375    95.117881    14.525121    27.965958 
   15000    239.25647   -514.07828    204420.41   -23294.044    1736.5887   -25030.633   -1226.5133    151.07913    95.116943    14.520775    27.988394 
   15200    237.39249   -290.23816    204420.41   -23227.969    1723.0594   -24951.028   -488.61776    152.04155    95.116983    14.517028    27.983768 
   15400    232.74925   -326.67353    204420.41   -23264.315    1689.3575   -24953.673   -646.07599    153.10661    95.118101    14.517722    27.981583 
   15600    244.77582   -365.74557    204420.41   -23135.624    1776.6496   -24912.274   -754.46315    154.76333    95.118334     14.51698    27.989838 
   15800    245.65541   -206.83442    204420.41   -23195.495    1783.0339   -24978.529   -173.40825    156.47671    95.117572    14.514883    27.990684 
   16000     241.2792   -191.99944    204420.41   -23261.712    1751.2702   -25012.983   -153.94718    157.57051    95.116634    14.514149    27.973713 
   16200    239.90894    -278.9907    204420.41   -23222.056    1741.3244   -24963.381   -450.50135    158.63915    95.115141    14.511572     27.99107 
   16400    240.59333   -384.98841    204420.41   -23257.566    1746.2919   -25003.858   -833.55803    159.92735    95.111931    14.511779    28.011449 
   16600    244.04707   -150.89889    204420.41   -23164.104    1771.3601   -24935.464   -10.197527    162.77117    95.110998    14.508946    28.014707 
   16800    248.41989   -409.67529    204420.41   -23204.987    1803.0992   -25008.087   -900.83282     165.3681    95.112037    14.508524     28.00266 
   17000    239.76164   -398.51486    204420.41   -23262.574    1740.2553    -25002.83   -858.90399    167.28235    95.112494    14.506946    28.001784 
   17200    236.80563   -304.02986    204420.41   -23280.715    1718.7998   -24999.515   -567.86673    172.44162    95.113606    14.509082    28.009515 
   17400    232.48329   -430.17865    204420.41   -23332.571    1687.4271   -25019.998   -976.69031    174.50169    95.114122    14.509707     28.00177 
   17600    248.92799   -523.20749    204420.41   -23226.988    1806.7872   -25033.775   -1308.5261     177.4457    95.115964    14.510844    27.993603 
   17800    241.43711   -288.72129    204420.41   -23233.829    1752.4163   -24986.245   -466.17676    179.28976    95.115865    14.510707    27.983834 
   18000    241.18118    -289.4559    204420.41   -23198.051    1750.5587   -24948.609    -494.8375    179.85354    95.113864    14.512949    27.994017 
   18200    237.86484   -329.69592    204420.41   -23227.658    1726.4878   -24954.146   -616.24135    180.31486    95.112772    14.511458    27.977749 
   18400     243.9293   -356.64256    204420.41   -23237.168    1770.5053   -25007.674   -717.14208    181.61152    95.113625    14.510503    27.964533 
   18600    244.92581   -374.51994    204420.41   -23245.852    1777.7383    -25023.59   -765.96652    182.48972    95.113334    14.510797    27.958734 
   18800    235.30893   -300.90351    204420.41    -23337.84    1707.9363   -25045.776    -514.1649    183.51295      95.1123    14.513237    27.984168 
   19000    239.46442   -288.45009    204420.41   -23258.403     1738.098   -24996.501   -456.14584    186.11536    95.113165    14.516276    27.984635 
   19200    237.64651   -498.78837    204420.41   -23237.321    1724.9031   -24962.224   -1192.4963    187.30299    95.113228    14.518652    27.993257 
   19400    240.24601   -573.66251    204420.41   -23141.556     1743.771   -24885.327   -1494.4669    188.33165    95.112616    14.517772    27.961285 
   19600    248.52695   -329.55307    204420.41   -23207.229    1803.8763   -25011.105   -616.12241    190.09165    95.113769    14.520825    27.949064 
   19800    236.42094   -459.79177    204420.41   -23202.289    1716.0076   -24918.296   -1086.9013    191.44949    95.114191      14.5209    27.961225 
   20000    250.64193   -526.38779    204420.41   -23191.171    1819.2274   -25010.398   -1303.4225    190.80438    95.113198    14.525548    27.959189 
   20200    238.78275   -298.93755    204420.41   -23281.629    1733.1503    -25014.78   -507.48178    190.98179    95.112292    14.527113    27.931644 
   20400    239.42912   -484.31585    204420.41    -23186.25    1737.8418   -24924.092   -1134.9625    192.83311    95.110323    14.526455    27.936577 
   20600    237.69739   -342.38536    204420.41   -23285.598    1725.2725    -25010.87   -661.77246    193.91775     95.11036    14.530435    27.929346 
   20800    245.50336   -357.09044    204420.41   -23234.813    1781.9302   -25016.743    -712.9192    196.47475    95.112329    14.531417    27.927581 
   21000    237.23899   -392.14222    204420.41     -23230.8    1721.9452   -24952.745   -863.20463    198.17359     95.11302    14.531601    27.911693 
   21200    242.45337   -379.64666    204420.41   -23220.027    1759.7926    -24979.82   -810.24036    199.39628    95.113551    14.532177    27.906437 
   21400    238.13692   -386.48151    204420.41   -23198.244    1728.4626   -24926.707   -828.90715    199.84047    95.115389    14.530336    27.894514 
   21600     240.5053   -356.89429    204420.41   -23103.511     1745.653   -24849.164   -708.32698    199.75815    95.116694    14.532037    27.910203 
   21800    242.34344   -589.28265    204420.41    -23226.38    1758.9947   -24985.375   -1561.6499     200.8879     95.11673    14.534181    27.921064 
   22000    240.12847    -349.7047    204420.41   -23254.534    1742.9179   -24997.452   -674.72846    203.13649    95.118856    14.534739    27.934381 
   22200    229.16795    -536.3403    204420.41   -23296.772    1663.3634   -24960.136   -1383.6802    206.96134    95.118026    14.533521    27.951033 
   22400     242.9981   -411.79319    204420.41   -23160.705    1763.7464   -24924.452   -886.50414    207.49671    95.118498    14.533731    27.951509 
   22600    239.88624   -110.78845    204420.41   -23197.976    1741.1597   -24939.136    124.44626    208.00285    95.119885    14.530937    27.961847 
   22800    239.81923    -579.4781    204420.41   -23197.782    1740.6733   -24938.456   -1501.2281    207.96394    95.119893     14.53026     27.94692 
   23000    235.64137   -298.10245    204420.41   -23269.127    1710.3493   -24979.476   -528.01199    211.05391     95.11811    14.530657    27.942041 
   23200    247.55499   -328.61212    204420.41   -23195.593    1796.8216   -24992.415   -612.99268    213.53656    95.120351    14.529871    27.920151 
   23400    241.61573   -303.67596    204420.41   -23204.931    1753.7128   -24958.644   -541.10652    212.04934    95.119682     14.52898    27.930056 
   23600    245.69169   -400.68815    204420.41   -23169.805    1783.2973   -24953.103    -876.9188    213.19773    95.118365    14.531036    27.921022 
   23800    249.54434   -507.07003    204420.41   -23200.713    1811.2608   -25011.974   -1251.1812      212.618    95.116537    14.528966    27.909894 
   24000    235.73086   -305.93638    204420.41    -23241.38    1710.9988   -24952.379   -556.28095    211.68148    95.116864    14.529333    27.924442 
   24200    238.69263   -403.53359    204420.41   -23197.508    1732.4962   -24930.005   -866.11645    213.57652    95.117613    14.530345    27.943818 
   24400      238.432   -352.72288    204420.41   -23267.677    1730.6044   -24998.281   -730.11941    215.46081    95.117394    14.530783    27.965423 
   24600    236.93382    -329.0027    204420.41   -23297.314    1719.7302   -25017.044   -631.87227    218.29922    95.116522    14.529156      27.9662 
   24800      243.614   -302.31034    204420.41   -23254.163    1768.2168    -25022.38   -517.98203    218.24211    95.116728     14.53006    27.977756 
   25000    240.76389   -80.545855    204420.41   -23262.099    1747.5299   -25009.628    242.17488    219.18221    95.117139    14.531147    27.964278 
   25200    226.85437   -188.97857    204420.41   -23356.928    1646.5708   -25003.499   -161.46309    220.03368    95.118921    14.530097    27.955008 
   25400    243.37625     -345.271    204420.41   -23214.886    1766.4912   -24981.377   -666.87849    221.12686    95.121311     14.53087    27.947023 
   25600    250.59298   -485.49961    204420.41   -23102.599    1818.8721   -24921.471   -1185.4107    223.05387    95.121122    14.530298    27.942621 
   25800     250.0369   -475.32923    204420.41   -23176.744    1814.8359   -24991.579   -1121.0152    226.73125    95.120585    14.531741    27.934285 
   26000    239.75818   -414.16349    204420.41   -23218.832    1740.2302   -24959.062   -929.83064     228.7806    95.118292    14.528971    27.921665 
   26200    234.76385    -157.4584    204420.41   -23239.696      1703.98   -24943.676   -22.276814    231.31096    95.117704    14.526822    27.951683 
   26400    239.86206    -392.0692    204420.41   -23276.216    1740.9842     -25017.2   -887.16994    232.80518    95.116259    14.527925    27.936436 
   26600    245.31984   -357.02051    204420.41   -23185.617    1780.5982   -24966.215   -714.41963    236.20635    95.116049    14.527698    27.915263 
   26800    243.13875   -469.56707    204420.41   -23194.991    1764.7673   -24959.758   -1115.5015    236.41222    95.116725    14.527911    27.924397 
   27000    244.22475   -205.44005    204420.41   -23142.491    1772.6498   -24915.141   -186.35297     238.3677    95.114814      14.5285    27.930471 
   27200    239.30785   -247.77909    204420.41   -23208.929    1736.9615    -24945.89   -333.37182    240.54792      95.1132    14.527654    27.913546 
   27400    245.10478    -165.6575    204420.41   -23130.043    1779.0373    -24909.08   -37.338661    243.02833    95.114672    14.528645     27.90987 
   27600    241.37672   -309.88077    204420.41   -23265.854     1751.978   -25017.832   -576.57671    244.72618    95.114328    14.525739    27.906604 
   27800    242.61921   -267.97801    204420.41   -23158.269    1760.9964   -24919.266   -422.89182    244.09551    95.115527    14.523693     27.91099 
   28000     238.9252   -394.73355    204420.41    -23280.33    1734.1842   -25014.514   -825.59444    244.52634    95.114838    14.526996    27.909529 
   28200    236.73059   -106.81826    204420.41   -23245.274    1718.2552   -24963.529    197.05189    247.00794    95.114579     14.53217    27.924475 
   28400    234.42144   -395.90274    204420.41   -23243.715    1701.4947    -24945.21   -857.53993    248.25157    95.115843    14.534058    27.936728 
   28600    238.57921   -315.06777    204420.41   -23232.743    1731.6729   -24964.416   -591.30634     247.4743    95.118109    14.535922    27.933612 
   28800    241.69046   -308.42539    204420.41   -23244.806    1754.2552   -24999.061   -544.01501    247.41577    95.117566    14.537211    27.966426 
   29000    242.96269   -264.57617    204420.41   -23223.106    1763.4894   -24986.595    -415.9895    248.85073    95.118387    14.536577    27.990738 
   29200    245.32305   -353.19884    204420.41   -23186.063    1780.6216   -24966.685   -695.20215    251.38786    95.117469    14.538282    28.015517 
   29400    242.53162   -257.90731    204420.41   -23182.329    1760.3606   -24942.689   -401.91542    254.42901    95.117386    14.540762    28.009056 
   29600    239.93302   -367.02631    204420.41   -23176.124    1741.4992   -24917.623   -751.69699    256.22773    95.116754    14.541944     27.99847 
   29800    236.41815   -238.55362    204420.41   -23265.068    1715.9874   -24981.055   -317.99274    257.26277    95.115138    14.537672    27.998002 
   30000    233.60313   -445.31249    204420.41    -23302.87    1695.5551   -24998.425   -1009.8945    258.95936    95.112304    14.537075    27.996375 
   30200    242.40442   -408.42192    204420.41   -23217.423    1759.4373    -24976.86   -911.52234    260.93899    95.111157    14.538423    27.991027 
   30400    245.46301   -302.27525    204420.41   -23198.061    1781.6374   -24979.698   -540.23444    260.51554    95.110956    14.535547    27.986966 
   30600    236.00593     -340.897    204420.41   -23284.649    1712.9954   -24997.644   -659.58716    259.26327    95.109595    14.537396    27.995579 
   30800    241.26674   -291.94755    204420.41   -23234.712    1751.1797   -24985.892   -483.63712    261.19005    95.109116    14.538606    27.999693 
   31000    240.89995   -361.77047    204420.41   -23219.824    1748.5175   -24968.341   -732.56251    261.57011    95.110506     14.53695     28.00699 
   31200    239.76773   -268.92138    204420.41   -23223.761    1740.2995    -24964.06   -387.76698    262.85654    95.109282    14.538391    27.990502 
   31400    241.80129   -458.52212    204420.41   -23185.621    1755.0596   -24940.681   -1042.1035    265.16643    95.109865     14.53695    27.969071 
   31600    234.29855    -364.9166    204420.41   -23249.088    1700.6027   -24949.691    -758.6056    267.89472    95.111604    14.533593    27.952633 
   31800    241.10819   -410.44186    204420.41   -23139.014    1750.0289   -24889.043    -884.6099    268.72129    95.111216    14.529981    27.933951 
   32000    239.69673   -357.00543    204420.41   -23272.649    1739.7842   -25012.433   -712.30161    268.90861    95.111377    14.527821      27.9211 
   32200    234.68422   -214.52735    204420.41   -23286.902     1703.402   -24990.304   -215.62175    267.38291    95.110264    14.528564    27.922367 
   32400    242.41562   -311.12997    204420.41   -23280.568    1759.5186   -25040.087   -577.44418     268.8486    95.109318    14.527906     27.90869 
   32600    242.25772    -259.9414    204420.41   -23213.338    1758.3726   -24971.711   -403.12337    270.16498    95.110808    14.527744    27.935681 
   32800    242.73775   -379.56194    204420.41   -23237.631    1761.8567   -24999.487   -735.45063    270.69551    95.110844    14.528802    27.922211 
   33000    237.13302   -480.86788    204420.41   -23201.659    1721.1761   -24922.835   -1107.0911    271.23524    95.108481     14.52898    27.917143 
   33200    233.60695   -179.43394    204420.41   -23240.987    1695.5829    -24936.57   -125.46743    271.27211    95.110373    14.531227    27.943695 
   33400    239.91908   -272.25562    204420.41   -23255.324     1741.398   -24996.722   -433.46606     273.8465    95.109253    14.530845    27.921441 
   33600    234.00835   -234.26077    204420.41    -23256.56    1698.4964   -24955.056    -258.4882    276.90548    95.107229    14.529563     27.91468 
   33800    248.92267   -438.79118    204420.41   -23120.233    1806.7486   -24926.982   -999.10483    278.85877    95.107822    14.527399    27.916262 
   34000    241.65246   -439.83591    204420.41   -23287.994    1753.9794   -25041.974   -1005.9544    279.16638    95.109412    14.526043    27.915719 
   34200     235.0994   -238.72382    204420.41   -23261.036    1706.4155   -24967.452   -340.81075    279.44731    95.111724    14.524749    27.910562 
   34400    233.75318   -395.12112    204420.41   -23303.934    1696.6443   -25000.578   -861.30287    279.91686    95.113402    14.522358    27.912569 
   34600    245.24858    -343.0641    204420.41   -23159.437     1780.081   -24939.518   -652.44686    281.08406    95.113687    14.522145    27.889428 
   34800     241.4938   -277.18362    204420.41   -23260.657    1752.8278   -25013.485   -431.37391    280.16616    95.115279    14.519103    27.907848 
   35000    236.60406    -226.4652    204420.41   -23280.871    1717.3367   -24998.207   -255.46082    282.09172    95.116427    14.515875    27.915761 
   35200    245.64893   -492.82952    204420.41   -23205.159    1782.9869   -24988.146   -1175.2507    284.55581    95.116439    14.515587    27.920901 
   35400    240.07136    -122.4941    204420.41   -23218.458    1742.5034   -24960.961    137.43589    285.85595    95.115933    14.516407     27.91106 
   35600     242.2612   -588.30219    204420.41   -23214.958    1758.3978   -24973.356   -1516.1319    288.50354    95.114547    14.518042    27.911515 
   35800    249.21201   -303.55159    204420.41   -23158.069    1808.8487   -24966.917    -518.6669    289.98133    95.114592    14.520538    27.909142 
   36000    239.77312   -513.16151    204420.41   -23272.763    1740.3386   -25013.102   -1249.3311    292.01737     95.11419    14.520753    27.895365 
   36200    238.02267   -299.25734    204420.41   -23271.513    1727.6334   -24999.147   -501.94164    289.96925    95.114517    14.520085    27.884235 
   36400    242.24301   -117.62117    204420.41   -23234.185    1758.2658   -24992.451    132.62967    290.81525    95.114179    14.518157    27.884469 
   36600      241.651   -185.52424    204420.41   -23228.609    1753.9688   -24982.578   -142.60128    293.82023     95.11467    14.514262    27.904186 
   36800    235.74675   -443.90838    204420.41   -23273.728    1711.1142   -24984.842    -1052.627    293.85056     95.11584    14.512009    27.892703 
   37000     237.9623   -391.58741    204420.41   -23241.794    1727.1952   -24968.989   -870.46983    293.60879    95.115364    14.513003    27.887122 
   37200    235.09937   -311.63503    204420.41   -23226.328    1706.4153   -24932.743   -543.66845    293.26922    95.117049     14.51403    27.886957 
   37400    235.58752   -238.47352    204420.41    -23226.95    1709.9584   -24936.908    -299.2856    294.41371    95.119064    14.517744     27.87104 
   37600    236.34087    -651.1477    204420.41   -23253.693    1715.4264   -24969.119   -1757.9046    298.22938    95.119504    14.519311     27.86185 
   37800    233.90537   -388.99644    204420.41   -23290.163    1697.7489   -24987.912   -853.77616    300.18917    95.119609    14.520398    27.863453 
   38000    240.73618   -189.59622    204420.41   -23201.839    1747.3288   -24949.168   -131.80666    301.15939    95.119613     14.52098    27.871011 
   38200    241.52888   -405.82853    204420.41   -23225.461    1753.0824   -24978.543   -861.86535    304.41593     95.11957    14.520857     27.87822 
   38400    241.28889   -296.16864    204420.41   -23165.694    1751.3405   -24917.035   -516.34537    304.96624    95.117348    14.519997    27.883778 
   38600    237.74795   -378.26908    204420.41   -23210.131    1725.6394    -24935.77   -805.48613    305.91038    95.118275    14.518987    27.892764 
   38800    241.55535    -392.5347    204420.41   -23182.194    1753.2746   -24935.468   -840.94239    308.85218    95.118701    14.519739     27.89748 
   39000    249.25136   -87.252677    204420.41   -23171.076    1809.1343    -24980.21    201.17376    311.41652    95.121645    14.520841    27.896418 
   39200    238.48421   -384.14722    204420.41   -23284.831    1730.9834   -25015.814   -791.84173    313.34356    95.122664    14.521957     27.89387 
   39400    242.95112    -101.3669    204420.41   -23294.435    1763.4054    -25057.84     202.8309    314.21131    95.123756    14.519456     27.91483 
   39600     241.6532   -443.17222    204420.41   -23235.067    1753.9848   -24989.052   -1060.0622    318.59603    95.123896    14.515206     27.91132 
   39800    243.76104   -228.58447    204420.41   -23314.063    1769.2841   -25083.348   -274.11073    320.67373    95.125598    14.516205    27.930608 
   40000    246.51542   -261.85795    204420.41   -23241.608    1789.2761   -25030.885   -371.30607    321.45784    95.125787    14.515204    27.965944 
   40200    240.23563   -416.53848    204420.41   -23218.843    1743.6956   -24962.538   -933.85718    322.92171    95.124337    14.514838    27.969356 
   40400    234.41364   -225.84139    204420.41   -23263.716     1701.438   -24965.154   -226.72042    324.45643    95.123067    14.513762    27.966205 
   40600    240.10481   -348.00828    204420.41   -23180.243    1742.7461   -24922.989   -675.13688    325.18598    95.123893    14.511759    27.967338 
   40800    240.61126   -426.70908    204420.41   -23254.463    1746.4221   -25000.885   -985.26993    327.30621    95.125101    14.508364    27.985594 
   41000    237.21001   -453.43842    204420.41   -23263.037    1721.7349   -24984.772   -1043.4012    326.31015    95.127429    14.506593    27.964185 
   41200    241.48763   -252.19947    204420.41   -23164.103     1752.783   -24916.886   -360.04108    329.71853    95.129431    14.510215    27.961133 
   41400    241.15852   -85.857712    204420.41   -23223.314    1750.3942   -24973.708    196.51041    331.68979    95.130839    14.508756    27.955883 
   41600    242.91939   -392.18096    204420.41   -23213.772    1763.1751   -24976.947   -848.56265    332.45346    95.130962    14.509866    27.934437 
   41800    235.93795   -479.06182    204420.41   -23223.304    1712.5019   -24935.806   -1135.9917    334.52851    95.130359    14.508753    27.937698 
   42000    242.47546   -226.80058    204420.41   -23246.466    1759.9529   -25006.419    -259.0953    335.43843    95.130697     14.50751    27.943652 
   42200    234.24072   -361.72416    204420.41   -23310.301     1700.183   -25010.484   -781.79113    338.64096    95.128723    14.507194    27.944247 
   42400    236.13293    -282.2231    204420.41   -23248.815    1713.9171   -24962.733   -415.88282    339.60289    95.127727    14.503759    27.968923 
   42600    244.13964   -315.77623    204420.41   -23273.937     1772.032   -25045.969    -556.5142     340.1385    95.128237    14.503672    27.970035 
   42800    240.34804   -395.21715    204420.41   -23234.055    1744.5116   -24978.567   -838.18698    340.56414     95.12719    14.502047    27.978205 
   43000    241.38963   -284.30474    204420.41   -23266.459    1752.0717   -25018.531   -500.65294    341.63806    95.125421    14.499057    27.975623 
   43200    246.74504    -379.3768    204420.41   -23293.314    1790.9428   -25084.257   -780.52505    343.67905    95.124174    14.502304    27.946067 
   43400    241.29455   -357.07629    204420.41    -23253.17    1751.3816   -25004.552    -737.2301    344.57961    95.124423    14.504309    27.944402 
   43600    237.52226   -452.37359    204420.41   -23242.982    1724.0013   -24966.983   -1044.4439    344.14164    95.125518    14.505734    27.919592 
   43800    234.98474    -339.1791    204420.41   -23277.052    1705.5833   -24982.635   -638.87591    344.46709    95.125221    14.506793    27.928227 
   44000    235.25425   -352.57837    204420.41   -23346.811    1707.5395    -25054.35   -672.84836     343.7215    95.124183    14.506151    27.919295 
   44200    239.19506   -392.30874    204420.41   -23310.391    1736.1429   -25046.534   -887.61507    343.72166    95.123554    14.506768    27.925644 
   44400     234.5188   -274.84493    204420.41   -23278.443    1702.2013   -24980.644    -440.3209    342.97806    95.122336    14.505789    27.910589 
   44600    240.41253   -488.29299    204420.41   -23278.925    1744.9796   -25023.905   -1170.5701    345.51109    95.121925     14.50378    27.899209 
   44800    240.45732   -335.86689    204420.41   -23308.181    1745.3047   -25053.485   -641.50451    346.62877    95.121165    14.506239    27.892684 
   45000    237.57553   -357.93738    204420.41   -23285.727    1724.3879   -25010.114   -714.79495    347.55533    95.122101    14.503411    27.888251 
   45200    237.54256   -520.17509    204420.41    -23229.89    1724.1487   -24954.039   -1285.1658    349.48041    95.121311    14.501602    27.885018 
   45400    239.55695   -152.87127    204420.41   -23287.802    1738.7697   -25026.572   -34.819868    349.81855    95.119348     14.50105    27.876745 
   45600    239.82569   -419.66638    204420.41   -23210.048    1740.7202   -24950.768   -926.53523    353.25366    95.119771    14.499196    27.888025 
   45800     242.8988   -324.32341    204420.41   -23248.901    1763.0256   -25011.926   -619.66568    353.49937    95.120765    14.500282    27.908374 
   46000    246.72125   -305.50901    204420.41   -23144.953    1790.7701   -24935.723   -529.25735    354.44646    95.119639       14.505     27.90078 
   46200    241.19214   -408.43088    204420.41    -23137.99    1750.6383   -24888.629   -905.03399    356.57263    95.120148    14.506844    27.900947 
   46400    242.57092   -327.71418    204420.41   -23237.513    1760.6458   -24998.159   -610.95559    357.24091    95.120331    14.507008    27.887536 
   46600    235.71675    26.142873    204420.41   -23241.224    1710.8964    -24952.12    622.17967    355.95849    95.119894    14.505896     27.89855 
   46800    243.27453   -390.45025    204420.41   -23212.189    1765.7529   -24977.942   -813.72651    356.68104    95.119492     14.50584     27.89852 
   47000    237.33687   -352.96888    204420.41   -23169.558    1722.6556   -24892.214   -680.54701    359.00795    95.119199    14.504541    27.903322 
   47200    235.87368    -207.1811    204420.41    -23272.44    1712.0354   -24984.475   -219.64029    361.56767    95.119135    14.504633    27.907108 
   47400    246.17372   -286.19259    204420.41   -23201.379    1786.7959   -24988.175   -467.03465      363.963    95.118775    14.502342    27.912195 
   47600    240.94243   -310.79904    204420.41   -23202.534    1748.8258   -24951.359   -572.03064    365.02362    95.118539    14.503667    27.924447 
   47800    240.87673   -334.59433    204420.41   -23276.864     1748.349   -25025.213   -622.84321    367.46705     95.11784    14.504986    27.928558 
   48000    232.93063     -320.391    204420.41   -23313.623     1690.674   -25004.297   -591.59755    367.89926    95.116417    14.507798    27.966409 
   48200    236.61646   -243.93413    204420.41   -23271.484    1717.4267    -24988.91   -331.49994    368.89633    95.116014    14.506512     27.95324 
   48400     235.6807   -407.39107    204420.41   -23256.253    1710.6347   -24966.888   -887.76843    370.77667    95.116993     14.50765    27.957991 
   48600    235.14618   -161.72207    204420.41   -23303.321     1706.755   -25010.076   -29.794166    370.86544    95.117686     14.50946     27.96134 
   48800    235.42447   -465.00892    204420.41   -23247.232    1708.7749   -24956.007   -1132.7431    372.14533    95.118535    14.507926    27.955805 
   49000    239.60316    -231.4835    204420.41   -23275.741    1739.1051   -25014.846   -265.69362    373.84598    95.119291    14.506036    27.934701 
   49200     241.2498   -442.45614    204420.41   -23232.872    1751.0568   -24983.929    -1028.993    375.31127     95.11889     14.50501    27.930359 
   49400    234.67482   -451.38778    204420.41   -23318.799    1703.3338   -25022.132   -1058.8395    374.96837    95.119371    14.501408    27.926561 
   49600    239.22067   -204.82499    204420.41   -23255.315    1736.3288   -24991.644   -220.51572    375.86496    95.120667    14.500646    27.906473 
   49800    238.63935   -354.88054    204420.41   -23244.137    1732.1094   -24976.247   -707.55177    378.52605    95.121472    14.501846      27.8965 
   50000    235.44471   -514.92743    204420.41   -23293.128    1708.9218    -25002.05   -1263.2714    380.78245    95.121774    14.501366    27.895545 
   50200    239.88326   -362.57893    204420.41   -23227.802    1741.1381    -24968.94   -739.51311    382.13105    95.120868    14.498958    27.886493 
   50400    237.91149   -414.09138    204420.41   -23262.522    1726.8264   -24989.349   -922.40387    383.30644    95.121625    14.502336    27.899438 
   50600    244.90892   -223.29864    204420.41    -23161.16    1777.6157   -24938.776   -246.14368    383.72592    95.120825    14.503479    27.897315 
   50800    232.61806   -311.63828    204420.41   -23353.638    1688.4053   -25042.043   -581.42788    383.84774    95.121653    14.501662    27.882363 
   51000    234.00576   -518.05094    204420.41   -23302.545    1698.4775   -25001.022   -1278.9876    386.12484     95.12187     14.50034    27.878242 
   51200    233.35152    -549.9159    204420.41    -23303.55    1693.7289   -24997.279   -1421.1838    387.32863    95.121858    14.502451     27.87935 
   51400    238.94741   -327.16814    204420.41   -23272.766    1734.3454   -25007.112     -626.423    389.53416    95.124999    14.505487     27.88647 
   51600    240.55207   -342.02987    204420.41   -23315.921    1745.9925   -25061.913   -683.50015    388.28508    95.127101    14.507494    27.908142 
   51800    239.01834   -200.77262    204420.41   -23270.083    1734.8602   -25004.943   -156.35725    390.34739    95.131212    14.505721    27.888295 
   52000     238.4226   -547.99512    204420.41   -23338.406    1730.5362   -25068.942    -1392.717    391.24329    95.131737    14.507998    27.885031 
   52200    232.36242   -377.79412    204420.41   -23345.154    1686.5497   -25031.704   -806.13772    392.02955    95.133517    14.508839    27.869521 
   52400    231.35914   -235.10911    204420.41   -23377.189    1679.2677   -25056.456   -266.54623    393.54313    95.132471    14.507267    27.867501 
   52600    240.56433   -374.53741    204420.41   -23267.666    1746.0814   -25013.747    -775.2064    396.81316    95.132963    14.511056    27.853127 
   52800    244.72983   -461.58308    204420.41   -23227.704    1776.3158    -25004.02   -1098.8514    398.49817    95.131364    14.515839    27.870993 
   53000    245.14149   -255.79047    204420.41   -23209.693    1779.3037   -24988.997    -351.1568    399.01385    95.130755    14.515333    27.890265 
   53200    236.43013   -266.91214    204420.41   -23293.603    1716.0743   -25009.677   -379.63898    396.50652    95.130063    14.517861    27.901776 
   53400    241.90492   -186.07461    204420.41   -23253.097    1755.8118   -25008.908   -116.64685    396.89052    95.129998    14.518661    27.895727 
   53600    238.61296   -375.07168    204420.41   -23307.643    1731.9179    -25039.56   -735.56557    397.80614    95.128867    14.519997    27.896752 
   53800    237.63233   -524.54947    204420.41   -23258.764    1724.8002   -24983.564   -1290.3789    398.74978    95.129891    14.516683    27.878402 
   54000     240.4058   -456.62479    204420.41   -23209.529    1744.9308    -24954.46   -1073.1433    398.93658    95.129286    14.516168    27.864652 
   54200    236.37993   -268.72546    204420.41   -23181.576      1715.71   -24897.286   -386.53227    400.51103    95.131448    14.518936    27.887388 
   54400    250.26123   -372.87297    204420.41   -23163.545    1816.4642   -24980.009   -789.67337      401.506    95.130047    14.519359    27.885657 
   54600    246.84971   -146.24969    204420.41   -23215.801    1791.7025   -25007.504    9.2707448    403.58737    95.130293    14.521579     27.87288 
   54800    240.04215   -198.19533    204420.41   -23250.718    1742.2913   -24993.009   -169.19734    404.11828    95.129717     14.52503    27.861417 
   55000    245.06527   -337.64521    204420.41   -23183.594    1778.7505   -24962.344   -665.59252    406.61857    95.130595    14.523751    27.864392 
   55200    231.07969    -337.7845    204420.41   -23328.419    1677.2393   -25005.658   -648.89754    408.43199    95.132573    14.525741    27.863687 
   55400    235.85182   -355.77309    204420.41   -23263.273    1711.8768    -24975.15   -712.23257    411.33285    95.132316    14.528061    27.856146 
   55600     238.5981    -258.9846    204420.41   -23258.056      1731.81   -24989.866   -389.46857    409.71392    95.132337    14.532709    27.874569 
   55800    247.33617   -345.25486    204420.41   -23193.973    1795.2333   -24989.207   -691.91719    411.21321     95.13257    14.534909    27.849208 
   56000    241.44838    -354.4891    204420.41   -23234.952    1752.4981    -24987.45   -708.25763    411.91577    95.132923     14.53637    27.846102 
   56200    240.69958   -52.278268    204420.41   -23221.792    1747.0631   -24968.855    366.28129    410.80831    95.132839    14.540298    27.833643 
   56400    235.79873   -188.09368    204420.41   -23339.843    1711.4914   -25051.335    -124.1246    411.09123     95.13209    14.540433    27.813017 
   56600    230.61939   -319.89411    204420.41   -23430.305    1673.8984   -25104.203   -629.36674    413.39797    95.133244    14.540584    27.824545 
   56800    240.72247   -214.21675    204420.41   -23326.494    1747.2292   -25073.724   -161.14433    413.54186    95.133286    14.540894    27.838479 
   57000     235.3131    -363.4852    204420.41   -23394.236    1707.9666   -25102.203   -712.37367    414.70944    95.134315    14.538333     27.84562 
   57200    243.51129   -236.35764    204420.41   -23289.368    1767.4713   -25056.839   -297.10026    416.22596     95.13433    14.538632     27.84694 
   57400    236.93834   -462.12911    204420.41   -23299.324     1719.763   -25019.087   -1110.9807    417.12271    95.134687    14.536713    27.879431 
   57600     230.5683   -380.79848    204420.41   -23305.323    1673.5276    -24978.85   -807.28187    419.29678    95.134048    14.537441    27.883504 
   57800    236.84248   -337.95582    204420.41   -23245.605    1719.0672   -24964.672   -669.56481    419.59892    95.135352    14.536451    27.872278 
   58000    245.30393   -391.13828    204420.41   -23281.369    1780.4828   -25061.852   -836.17972    422.13989    95.136287    14.535495    27.871175 
   58200    246.43394   -362.09197    204420.41   -23246.662    1788.6847   -25035.347    -770.3425    424.10375    95.136287    14.537687    27.885455 
   58400    240.85273   -169.40058    204420.41   -23305.113    1748.1748   -25053.288   -78.273958    422.95133    95.137598    14.539359    27.885323 
   58600    236.35087    -500.2682    204420.41   -23360.046     1715.499   -25075.545   -1245.5577    424.71677    95.135847    14.541701    27.897582 
   58800    239.87906   -541.19264    204420.41   -23319.994    1741.1076   -25061.101   -1371.8667    426.59733    95.135468    14.544289    27.883566 
   59000    241.65769   -374.19673    204420.41   -23252.096    1754.0173   -25006.113   -758.61674    426.28113    95.135489    14.544878    27.882181 
   59200    238.88781   -258.85744    204420.41   -23305.522    1733.9128   -25039.434   -364.87186    427.03578    95.136722    14.546721    27.868883 
   59400    235.75357   -357.28125    204420.41    -23291.81    1711.1636   -25002.974    -711.0111    429.24711    95.138277    14.547401    27.869628 
   59600    238.07042   -299.06377    204420.41   -23343.082      1727.98   -25071.062    -530.9359    430.61721    95.138632    14.547796    27.885766 
   59800    241.76941    -289.8618    204420.41   -23254.865    1754.8282   -25009.694   -455.22745     429.9791    95.139097    14.547262    27.864976 
   60000    238.52676   -403.13801    204420.41   -23245.231    1731.2922   -24976.524   -877.32788    432.65762     95.14013    14.548414    27.853793 
   60200    237.40542   -214.77784    204420.41   -23275.001    1723.1532   -24998.154   -233.01303    433.80353    95.140682     14.54952    27.874988 
   60400    240.19825   -384.09684    204420.41   -23202.931    1743.4244   -24946.355     -813.233    435.10482    95.142192    14.547423    27.881242 
   60600    240.74889   -419.25574    204420.41   -23196.334     1747.421   -24943.755    -920.0148    436.65934     95.14393    14.545706    27.868107 
   60800     244.4199   -267.35706    204420.41   -23150.884    1774.0662    -24924.95   -375.18747    436.93953    95.144486    14.544983     27.87509 
   61000    236.56883   -327.09641    204420.41   -23262.824     1717.081   -24979.905    -606.3294    440.72336     95.14454    14.544749    27.872624 
   61200    236.59158   -421.97974    204420.41   -23202.015    1717.2462   -24919.261   -981.81604    441.30782     95.14438    14.545985    27.888174 
   61400    241.40651   -379.05165    204420.41   -23180.154    1752.1942   -24932.348   -840.09624    441.82204    95.142525    14.548331    27.882501 
   61600     238.9715   -310.87215    204420.41   -23207.219    1734.5202   -24941.739   -514.87359    441.47008    95.142301     14.55034    27.876951 
   61800    231.47827   -9.4944165    204420.41   -23287.557    1680.1324    -24967.69     487.2112    441.77559    95.142539    14.551093    27.874743 
   62000    237.41153   -345.48206    204420.41   -23178.388    1723.1976   -24901.586   -669.83591    443.30985    95.141218    14.552029       27.876 
   62200    237.67527   -368.96832    204420.41    -23165.61    1725.1118   -24890.722   -724.98038    446.86243    95.141972    14.550987    27.878227 
   62400    241.14915     -432.524    204420.41   -23170.622    1750.3262   -24920.948   -1024.0417    448.92146    95.143079     14.55204    27.877551 
   62600    240.83638   -336.43277    204420.41   -23221.294    1748.0561    -24969.35   -641.33374    448.86045    95.142296    14.550744    27.867792 
   62800     230.1374   -407.28872    204420.41   -23329.527       1670.4   -24999.927   -920.29216    450.35064    95.142624    14.549984    27.855282 
   63000    247.59002   -339.92731    204420.41   -23239.038    1797.0758   -25036.114   -616.50333    453.64785    95.142094    14.551071    27.860051 
   63200    238.99704   -219.82018    204420.41   -23260.875    1734.7057    -24995.58   -241.51236    456.62789    95.140576     14.55109    27.862842 
   63400    239.55489   -234.12229    204420.41   -23332.374    1738.7547   -25071.128   -285.51035    459.82908    95.141332    14.548351    27.862911 
   63600    234.44395   -286.91487    204420.41   -23382.815    1701.6581   -25084.473   -502.56318    463.80419     95.14279    14.547247      27.8625 
   63800     233.6523    -289.8012    204420.41   -23425.972     1695.912   -25121.884   -503.05175    468.14218    95.143048    14.546967    27.865572 
   64000    247.99475   -156.45563    204420.41   -23291.439    1800.0134   -25091.453   -1.8875897    469.89723    95.143398    14.545358    27.855128 
   64200    240.81773   -329.24228    204420.41   -23300.022    1747.9207   -25047.942   -584.18623    471.42204     95.14264    14.546612    27.847516 
   64400    233.03026   -312.42237    204420.41   -23322.683    1691.3971    -25014.08   -541.18341    471.75887    95.143473    14.548171    27.832408 
   64600    235.74705   -388.68364    204420.41   -23299.492    1711.1163   -25010.608    -814.4044    472.61445    95.144572    14.546279    27.843377 
   64800    236.57733   -322.70325    204420.41   -23280.277    1717.1428    -24997.42   -596.36398    473.25885    95.145439    14.542129    27.838841 
   65000    247.18629   -175.47298    204420.41   -23183.662    1794.1454   -24977.807   -79.841387    473.76943    95.144569    14.542691     27.83519 
   65200     238.3923   -509.90596    204420.41   -23227.424    1730.3163    -24957.74   -1238.6141    478.11283    95.143089    14.542054    27.850731 
   65400    240.42392   -478.43912    204420.41   -23239.206    1745.0623   -24984.268   -1126.1536    480.63143     95.14435    14.542602    27.848755 
   65600    242.08933   -334.57543    204420.41   -23163.669    1757.1503   -24920.819    -642.2403    481.12167    95.144918    14.541828    27.852195 
   65800     240.7986   -376.17662    204420.41   -23198.602    1747.7819   -24946.384   -784.04927    481.59706    95.144785    14.544683    27.833328 
   66000    240.66311   -256.23522    204420.41   -23200.067    1746.7984   -24946.865   -398.48414    483.33941    95.145227    14.548039     27.83013 
   66200    235.67347   -444.33462    204420.41   -23259.903    1710.5822   -24970.485    -1030.234     487.5753    95.143827    14.547131    27.835142 
   66400    238.50942   -320.51867    204420.41    -23245.52    1731.1664   -24976.687   -586.53652    488.18097    95.143061    14.542427    27.847845 
   66600    235.75834   -452.11771    204420.41    -23307.53    1711.1982   -25018.728   -1040.5012    489.73797    95.144059    14.543302    27.831933 
   66800    241.08732   -153.54498    204420.41   -23307.712    1749.8774   -25057.589     -27.2116    490.69412    95.144508    14.545452    27.820349 
   67000    233.42073   -430.81574    204420.41   -23386.921    1694.2313   -25081.153   -952.25241    493.85748    95.144096    14.545955    27.847223 
   67200    240.03616   -302.91272    204420.41   -23344.825    1742.2478   -25087.073    -554.2963    495.49761    95.145848    14.545147    27.842241 
   67400    239.14715   -453.19603    204420.41   -23298.568    1735.7952   -25034.363   -1031.5229    497.53706    95.144754    14.546526    27.814061 
   67600    248.13992   -489.51672    204420.41   -23228.993    1801.0671    -25030.06     -1175.24    495.22152    95.144292    14.548287    27.821793 
   67800    239.90358   -67.056209    204420.41   -23262.752    1741.2855   -25004.038    271.00369    493.54394    95.143312    14.549643    27.848215 
   68000    234.41093   -256.05329    204420.41   -23314.744    1701.4184   -25016.163   -359.16964    495.12415    95.143458    14.549149    27.853253 
   68200    241.90638   -350.00684    204420.41   -23313.085    1755.8224   -25068.907   -691.62244    494.90556    95.143198     14.54878    27.855539 
   68400    238.81984   -244.92838    204420.41   -23266.732    1733.4195   -25000.152   -314.36432    494.91925    95.142278     14.54958    27.875886 
   68600    237.45281   -475.75245    204420.41    -23283.39    1723.4972   -25006.887    -1093.648    497.79024    95.142765    14.549047    27.868713 
   68800    243.19335   -374.25409    204420.41   -23230.388    1765.1636   -24995.552   -804.20959    498.98033    95.145175    14.551424    27.873595 
   69000    238.32001   -338.12748    204420.41   -23219.361    1729.7916   -24949.152   -671.14929    501.41462    95.147487    14.551232    27.877497 
   69200     236.5122   -221.30061    204420.41   -23282.779      1716.67   -24999.449   -232.51276    502.84168    95.147844    14.550236    27.895993 
   69400    230.50332   -348.46454    204420.41   -23301.785    1673.0559   -24974.841    -730.3535     504.2724    95.146807    14.551035    27.889471 
   69600    245.15769   -177.52694    204420.41   -23118.965    1779.4213   -24898.386   -72.627282    507.53359    95.149025    14.551752    27.877592 
   69800    243.32428   -447.16464    204420.41   -23169.798    1766.1139   -24935.912   -1032.9136    512.44732    95.150726     14.55088    27.887612 
   70000    242.91033   -214.38307    204420.41   -23216.658    1763.1094   -24979.767   -197.62504    519.38379    95.150285    14.550853    27.875254 
   70200    240.79921   -236.78215    204420.41   -23097.905    1747.7863   -24845.692   -328.29349    521.94698    95.149706    14.552249    27.868665 
   70400    242.39701   -256.59269    204420.41   -23105.934    1759.3836   -24865.318   -381.06832    523.94565    95.150641    14.553912    27.878251 
   70600    240.11586   -149.70049    204420.41    -23172.53    1742.8264   -24915.357   -17.086192    522.08263    95.150043    14.555409    27.890034 
   70800    239.83879   -233.03239    204420.41   -23191.931    1740.8153   -24932.746   -297.19425    518.86793    95.148876    14.558364    27.883099 
   71000    236.77448    -313.3906    204420.41   -23228.233    1718.5737   -24946.807   -598.54018    517.42976    95.147245    14.559899    27.884347 
   71200    237.95465   -457.59029    204420.41   -23230.896    1727.1397   -24958.036   -1083.3821    519.71064    95.150188    14.560248    27.876612 
   71400    233.86175   -366.73288    204420.41    -23255.47    1697.4323   -24952.902   -808.15429    522.36197    95.149414     14.56105    27.888817 
   71600    243.60772   -405.28478    204420.41   -23150.224    1768.1712   -24918.396   -881.91228    527.76966    95.150296    14.562227    27.881414 
   71800    242.07842   -446.21756    204420.41   -23259.379    1757.0711    -25016.45   -997.73432    529.66631    95.148624    14.563429    27.887663 
   72000    241.62845   -322.56357    204420.41    -23283.91    1753.8052   -25037.715   -619.13039    530.15577    95.149018    14.563548    27.918062 
   72200    239.34178   -616.17111    204420.41   -23132.445    1737.2079   -24869.653   -1627.0737    530.28552    95.148381    14.565083    27.938177 
   72400     239.0714   -359.54342    204420.41   -23160.169    1735.2453   -24895.415   -721.66124    527.69248    95.148757    14.566118    27.934949 
   72600    244.97584   -462.51644    204420.41   -23167.718    1778.1014    -24945.82   -1060.4587    526.15691    95.149105    14.562768    27.906731 
   72800    239.16956   -318.89212    204420.41   -23189.513    1735.9579   -24925.471   -588.19637    525.47703    95.150517     14.55764    27.909954 
   73000    241.52043   -290.66498    204420.41   -23225.564    1753.0211   -24978.586   -518.88043    527.40763    95.150978    14.554692     27.92181 
   73200    245.33601   -327.18714    204420.41   -23168.273    1780.7156   -24948.989   -607.23016    530.29575    95.149236    14.555586    27.901576 
   73400    245.99661   -205.39432    204420.41   -23119.303    1785.5105   -24904.813    -235.2801    528.51441    95.147862    14.555757    27.904474 
   73600    238.94345   -472.93091    204420.41   -23173.803    1734.3167    -24908.12   -1114.7745    529.05437    95.146361    14.553158    27.907183 
   73800    237.58749    -260.9365    204420.41   -23272.326    1724.4748   -24996.801   -392.85696    527.41316    95.145992    14.550031    27.897163 
   74000    236.01932   -362.30924    204420.41   -23236.089    1713.0925   -24949.181   -675.05009    529.14032    95.146841    14.548385    27.882567 
   74200    242.28823   -368.40517    204420.41   -23112.562     1758.594   -24871.156   -764.34595    533.41779    95.146809    14.546246    27.871798 
   74400    244.35902   -268.94971    204420.41   -23156.614    1773.6243   -24930.238    -431.7478    535.31229    95.148211    14.545937    27.858067 
   74600     241.5779   -511.98412    204420.41   -23187.229    1753.4382   -24940.667   -1292.1029    538.88111    95.149683    14.545712    27.874992 
   74800    243.38618   -509.77312    204420.41   -23230.356    1766.5632   -24996.919   -1232.2022    540.30146    95.151199     14.54542    27.868433 
   75000    235.18594   -482.61546    204420.41   -23243.065    1707.0437   -24950.108   -1172.8644    538.26078    95.150349    14.545278    27.892986 
   75200    244.06531   -262.87703    204420.41    -23145.26    1771.4925   -24916.752   -373.30455    536.73766    95.150096    14.545312    27.896968 
   75400    235.72086    -559.7526    204420.41   -23229.811    1710.9263   -24940.737   -1436.4835    537.82084    95.149528    14.543342    27.915265 
   75600    244.11247    -434.8341    204420.41   -23173.168    1771.8348   -24945.003   -1004.2914     538.0856    95.149847     14.54037    27.914487 
   75800    245.42601    -290.6958    204420.41   -23155.274    1781.3688   -24936.643   -473.06732    536.92692    95.151294    14.539854    27.905745 
   76000    245.69901   -478.43622    204420.41   -23193.256    1783.3503   -24976.607   -1150.2552    538.86905    95.151333    14.540043    27.904877 
   76200    232.77756   -380.39911    204420.41    -23298.83    1689.5629   -24988.393   -799.14692    542.23419    95.150389    14.539779    27.919562 
   76400    237.13579   -499.50765    204420.41   -23243.616    1721.1962   -24964.812   -1245.5244    543.52072    95.149755    14.540729    27.913974 
   76600    241.29736   -279.44488    204420.41   -23237.711     1751.402   -24989.113   -443.96561     545.1883    95.149782    14.539549    27.912981 
   76800    238.58453   -532.52149    204420.41   -23244.959    1731.7115   -24976.671   -1366.7392    547.04517    95.150504    14.540618    27.924093 
   77000    238.17402   -502.64316    204420.41   -23274.904    1728.7319   -25003.636   -1250.6657    546.98609    95.151016    14.536629    27.939747 
   77200    239.38368   -267.18785    204420.41   -23218.978     1737.512    -24956.49   -397.94441    551.28739    95.151172    14.538513    27.924869 
   77400    236.95633   -462.69999    204420.41   -23227.041    1719.8936   -24946.934   -1071.8236    555.99815    95.150866    14.537894    27.904903 
   77600    239.19055   -270.75342    204420.41   -23252.448    1736.1102   -24988.558    -439.5455    557.96082    95.150425     14.53826    27.900641 
   77800    237.63966   -224.62028    204420.41   -23264.846    1724.8534   -24989.699   -264.85589    558.30387    95.149961    14.536913    27.882282 
   78000    238.51281    -557.5237    204420.41   -23229.455    1731.1909   -24960.646   -1386.6133    559.32283    95.149805    14.535573    27.867316 
   78200    240.37707   -326.18932    204420.41   -23235.245    1744.7223   -24979.968   -626.42816    559.58026    95.150139    14.534574    27.834883 
   78400    242.18498   -305.51884    204420.41   -23189.341    1757.8446   -24947.185   -522.40517    561.19597    95.149268    14.533889    27.848504 
   78600    236.96425   -176.48402    204420.41   -23226.481    1719.9511   -24946.432   -120.80061    563.71614    95.149535     14.53647    27.847524 
   78800    237.59328   -455.93476    204420.41   -23132.216    1724.5168   -24856.733   -1074.7988    566.54313    95.149826    14.537031    27.862522 
   79000    240.94139   -249.51403    204420.41   -23168.365    1748.8183   -24917.183   -343.06618    567.80404    95.150328    14.538487     27.85353 
   79200    238.66794   -422.87702    204420.41   -23123.402     1732.317   -24855.719   -955.57944     567.4267    95.149855      14.5382    27.864949 
   79400    250.30342   -109.10514    204420.41   -23155.686    1816.7704   -24972.456    133.30698    567.39231     95.14976    14.536819    27.853354 
   79600    234.92033   -447.48349    204420.41   -23269.376    1705.1158   -24974.492   -1052.0497    572.02201    95.151838    14.539079    27.835971 
   79800    241.16608   -222.26893    204420.41   -23235.992    1750.4491   -24986.442    -247.0882    573.27179     95.15204    14.539459    27.822935 
   80000    237.19936   -461.39497    204420.41   -23268.336    1721.6576   -24989.994   -1102.0098    574.90042    95.151264    14.539256    27.840441 
   80200    236.02393   -388.00136    204420.41   -23265.292     1713.126   -24978.418   -894.87343    578.76283    95.148185    14.537069    27.847571 
   80400    236.76843    -294.5741    204420.41   -23277.057    1718.5298   -24995.587   -513.25157    580.34058    95.149174    14.536034    27.848215 
   80600    240.14695   -291.86559    204420.41   -23233.644     1743.052   -24976.696   -509.16069    580.80038    95.148237    14.534478    27.848238 
   80800    238.16784   -250.31539    204420.41   -23171.375    1728.6871   -24900.062   -344.62278    578.85911    95.148426    14.530231    27.854644 
   81000    235.92917   -307.15424    204420.41    -23211.76    1712.4382   -24924.198   -558.62148    577.96079    95.149144    14.528207    27.851588 
   81200    239.62154   -232.11782    204420.41   -23168.504    1739.2384   -24907.743   -270.88247    577.09627    95.149338    14.525976     27.85429 
   81400    241.56195   -329.92778    204420.41   -23168.168    1753.3225    -24921.49   -619.67991    575.50693    95.149341    14.523561     27.86719 
   81600    236.47577   -418.28529    204420.41   -23238.636    1716.4056   -24955.042   -923.51301    575.85392    95.148894     14.52537    27.866288 
   81800    232.57122   -274.62982    204420.41   -23290.035    1688.0653   -24978.101   -479.07459    579.62557    95.147546    14.525688    27.850981 
   82000    241.45312   -452.57473    204420.41   -23260.937    1752.5325    -25013.47    -1030.922    586.13896    95.148774    14.529301    27.845205 
   82200     250.2248   -192.45552    204420.41   -23206.869    1816.1998   -25023.069   -142.89006    590.23306    95.148451    14.526346    27.840609 
   82400    239.59178   -378.70373    204420.41   -23229.271    1739.0224   -24968.294   -794.48137    592.88503     95.14868    14.523577    27.833423 
   82600    239.71761   -546.54462    204420.41   -23103.874    1739.9357    -24843.81   -1366.1557     593.6196    95.148513    14.523726    27.874042 
   82800    235.22363   -433.59843    204420.41   -23199.275    1707.3172   -24906.593   -1028.8635    595.91228    95.149161    14.524491    27.889763 
   83000    247.03294   -335.02521    204420.41   -23081.239    1793.0324   -24874.271   -681.93516    598.33547    95.149579    14.526915    27.902371 
   83200    244.38644   -336.07707    204420.41   -23123.807    1773.8234    -24897.63   -682.19112    602.83561    95.148312    14.524178     27.90333 
   83400     242.1756   -444.96658    204420.41   -23131.237    1757.7765   -24889.013   -1011.8021    604.81959    95.148585    14.522309     27.89832 
   83600    237.00027   -267.73138    204420.41   -23279.523    1720.2126   -24999.735   -352.94243     606.3074    95.149418    14.523855    27.892067 
   83800    238.56342   -261.21404    204420.41   -23276.533    1731.5583   -25008.091   -361.21614    608.29814    95.152384    14.524216    27.896446 
   84000    236.04325   -383.42126    204420.41   -23274.349    1713.2662   -24987.615    -793.1963    610.29616    95.151967    14.525211    27.866326 
   84200    237.68618   -315.14141    204420.41     -23210.4    1725.1911   -24935.591   -526.17148    611.85062    95.152552    14.525338    27.870797 
   84400    233.24147   -243.13646    204420.41   -23259.567    1692.9301   -24952.497   -321.48992     615.0123    95.154262    14.524535    27.868025 
   84600    241.56841   -403.45528    204420.41   -23194.856    1753.3693   -24948.225   -915.77803    619.77632    95.153096     14.52543    27.875472 
   84800    238.86593   -479.19396    204420.41    -23220.06     1733.754   -24953.814   -1123.0733    621.06521    95.153973    14.527779     27.88102 
   85000    242.72202   -298.84747    204420.41    -23209.52    1761.7425   -24971.263    -504.1401    622.02585    95.153304    14.530096     27.88941 
   85200    243.83699   -368.80397    204420.41    -23192.95    1769.8353   -24962.786   -724.92207    624.72729    95.154487    14.529592    27.875156 
   85400    232.18703   -389.96489    204420.41   -23291.375    1685.2767   -24976.651   -823.87599    627.44142    95.154857    14.529127    27.864764 
   85600    234.87095   -359.60732    204420.41   -23237.203    1704.7573   -24941.961   -722.31145    628.26655    95.154643    14.524403    27.860766 
   85800    232.48265   -268.27488    204420.41   -23239.381    1687.4224   -24926.804   -401.30674    626.62909    95.156293    14.521904    27.859268 
   86000    239.01302   -213.26547    204420.41   -23171.325    1734.8216   -24906.147    -226.5825    627.74548    95.155787    14.516103    27.869969 
   86200    243.77871    -309.7455    204420.41   -23130.258    1769.4123    -24899.67   -523.83319     628.2715    95.156689    14.516298    27.872631 
   86400    239.72066   -263.15697    204420.41    -23244.67    1739.9579   -24984.628   -389.49152    626.86419    95.156445    14.516089    27.878097 
   86600      240.971   -389.96823    204420.41   -23167.756    1749.0332   -24916.789   -862.89028    628.99267    95.153855    14.516922    27.885021 
   86800    238.23728   -281.90217    204420.41   -23229.043    1729.1911   -24958.234   -425.51284    631.44428    95.154777    14.517781    27.886316 
   87000    245.60505   -275.39513    204420.41   -23174.584    1782.6684   -24957.253   -442.45382    631.32268    95.153522    14.516076    27.862215 
   87200    243.84666   -520.94273    204420.41   -23158.279    1769.9055   -24928.185   -1267.3734    631.36064     95.15329    14.516303    27.863709 
   87400    237.29402   -250.31871    204420.41   -23263.606    1722.3447   -24985.951   -294.20586    629.76538    95.154398    14.518312    27.847368 
   87600    243.43068   -457.12844    204420.41   -23141.875    1766.8862   -24908.761   -1033.1729    627.92908    95.156782    14.519783    27.858437 
   87800    240.01478   -283.60262    204420.41   -23186.748    1742.0926   -24928.841   -469.43398    627.07111    95.156387    14.519043     27.88865 
   88000     241.0595   -269.77333    204420.41   -23215.487    1749.6756   -24965.162   -411.02216    626.96078    95.155901    14.519575    27.891956 
   88200    237.43093   -311.03027    204420.41   -23255.335    1723.3384   -24978.674   -592.93657    626.18196    95.155971    14.520897    27.905879 
   88400     236.8059   -305.43765    204420.41   -23193.263    1718.8017   -24912.065    -505.5078    629.54594    95.156991    14.524061    27.915388 
   88600    236.67456   -350.92315    204420.41   -23243.174    1717.8484   -24961.022    -715.3437    633.02011    95.158361    14.521875    27.929891 
   88800    238.67828   -284.94941    204420.41   -23274.108     1732.392     -25006.5    -473.6332    633.83674    95.158246     14.52315    27.928513 
   89000    242.09409   -343.36391    204420.41   -23242.137    1757.1849   -24999.322   -642.93714    635.50869    95.157434    14.520762    27.930302 
   89200    235.79655   -204.09192    204420.41   -23261.956    1711.4756   -24973.432   -170.71917    637.98294    95.158015    14.517091    27.932901 
   89400    242.88826   -557.50392    204420.41   -23191.001    1762.9492    -24953.95   -1462.6248    637.64092    95.157658    14.514546    27.909811 
   89600    233.76005   -310.74211    204420.41   -23300.047    1696.6941   -24996.741   -560.42434     639.4883    95.156981    14.513297    27.909294 
   89800    240.43053   -386.10726    204420.41   -23194.833    1745.1103   -24939.943   -802.59755     642.2865    95.157528    14.511965    27.902089 
   90000    238.72661   -319.90498    204420.41   -23246.232    1732.7428   -24978.975   -611.83245    647.71275    95.155855    14.513342     27.91852 
   90200    238.31425   -355.76166    204420.41   -23303.754    1729.7497   -25033.503    -728.6262    649.84428    95.155811    14.508475    27.940574 
   90400    240.31898   -121.57644    204420.41   -23267.993    1744.3006   -25012.294    83.598451    648.85232    95.155103    14.506688    27.956855 
   90600    240.38669   -384.69754    204420.41   -23270.361    1744.7921   -25015.153   -782.53312     651.1606     95.15539    14.506143    27.944579 
   90800     239.5284    -416.1685    204420.41   -23255.066    1738.5624   -24993.628   -982.62309    651.44622     95.15503    14.508002    27.935153 
   91000    235.38836   -440.34371    204420.41   -23284.136    1708.5128   -24992.649   -998.28045    652.84209    95.154947     14.50626    27.930468 
   91200    240.27661   -323.33221    204420.41   -23328.921    1743.9931   -25072.914   -637.20616    652.41167    95.155431    14.505888    27.927226 
   91400     234.3282   -349.53798    204420.41   -23252.358    1700.8179   -24953.176   -692.24433    650.02874     95.15659    14.506884    27.922416 
   91600    241.08032   -227.61571    204420.41   -23148.143    1749.8266    -24897.97   -297.68583    648.29242    95.156782    14.507969    27.916978 
   91800    240.78081   -252.09696    204420.41    -23192.79    1747.6527   -24940.443   -366.14828    648.10982    95.158603    14.508339    27.913383 
   92000    243.34743   -210.26085    204420.41   -23205.785    1766.2819   -24972.067    -223.2673    650.48963    95.160021     14.50743     27.91032 
   92200    241.01625   -409.63693    204420.41   -23252.757    1749.3616   -25002.119   -882.45178    655.45226     95.16009    14.510109     27.89983 
   92400    247.04562   -562.88845    204420.41   -23213.879    1793.1244   -25007.003   -1452.9514    660.25858    95.161124      14.5102    27.907008 
   92600     245.3239    -440.1716    204420.41   -23172.065    1780.6277   -24952.693   -1023.8648    663.53591    95.160824    14.510135    27.913837 
   92800    238.01646   -254.83047    204420.41   -23279.058    1727.5883   -25006.646   -367.23775    663.43583    95.161422    14.511927    27.902058 
   93000    239.79624   -455.49734    204420.41   -23291.835    1740.5064   -25032.341   -1121.5489    662.64998    95.159834    14.513937    27.884746 
   93200    239.70912   -540.00897    204420.41   -23274.105    1739.8741   -25013.979   -1357.2747    661.37541    95.159245    14.517536    27.874544 
   93400    236.80842   -330.36961    204420.41   -23351.054      1718.82   -25069.874   -597.26703    660.19248    95.159186    14.520384    27.882067 
   93600    234.52843   -423.99564    204420.41   -23298.079    1702.2713    -25000.35   -958.50954    659.11229    95.159382    14.524739    27.895958 
   93800    231.62183   -169.91965    204420.41    -23356.04    1681.1743   -25037.215   -42.789922    656.74241    95.159461    14.526553    27.878299 
   94000    239.36101   -405.84738    204420.41   -23366.536    1737.3474   -25103.884   -918.76166    657.47684    95.160081    14.526726    27.882316 
   94200    244.80811    -235.6251    204420.41   -23246.421     1776.884   -25023.305   -306.02301    658.00409    95.160966    14.527529    27.885438 
   94400    240.79349   -289.66128    204420.41   -23280.665    1747.7447    -25028.41   -472.51278    657.66007    95.160607    14.525671    27.887665 
   94600     237.5171   -176.23885    204420.41   -23267.934    1723.9638   -24991.898   -79.389265    657.75844    95.161653    14.526821    27.876219 
   94800    237.74787   -501.19303    204420.41   -23260.564    1725.6388   -24986.203   -1196.2588    661.68718    95.160487    14.525437    27.869075 
   95000    243.36341   -282.27847    204420.41   -23264.282    1766.3979    -25030.68   -481.63126    662.42604    95.160123    14.524436    27.854948 
   95200    235.66298   -283.21619    204420.41   -23246.929    1710.5061   -24957.435   -469.85209    664.32248    95.160406      14.5221    27.861759 
   95400    245.92316   -451.42033    204420.41   -23208.985    1784.9773   -24993.962   -1038.5305    668.64725    95.158528    14.521489      27.8644 
   95600    247.05563    -211.1852    204420.41   -23222.471    1793.1971   -25015.668    -179.7918    666.45006    95.158818    14.521993    27.882697 
   95800    238.72506   -431.91685    204420.41   -23238.728    1732.7315   -24971.459   -943.04699    669.25867    95.159412     14.52508    27.867995 
   96000    238.93161   -444.97383    204420.41   -23224.748    1734.2307   -24958.979   -1034.9021    671.19591    95.160231    14.526152    27.858973 
   96200    241.48551   -209.15666    204420.41   -23156.194    1752.7676   -24908.961   -234.95791    670.36158    95.161062    14.521653    27.852154 
   96400    243.94693   -360.43871    204420.41   -23210.643    1770.6333   -24981.276   -718.24832    670.02946    95.160096    14.520793    27.864216 
   96600    231.45387   -232.79667    204420.41   -23231.872    1679.9552   -24911.827   -263.94803    669.09392    95.158201    14.522899    27.867582 
   96800     240.8222   -418.71401    204420.41   -23203.313    1747.9532   -24951.266   -914.41326    672.05703    95.157502    14.526255    27.876971 
   97000    233.98012   -500.97424    204420.41   -23202.665    1698.2915   -24900.957   -1211.3786    670.35724     95.15657    14.526808    27.882082 
   97200    238.01731   -179.53363    204420.41   -23189.081    1727.5945   -24916.675   -104.15947    671.00188    95.154544    14.525115     27.88521 
   97400    237.54934   -464.49655    204420.41   -23203.187    1724.1978   -24927.385   -1133.7678    673.76019    95.154213    14.522136    27.885098 
   97600    241.61533   -439.39863    204420.41   -23134.529    1753.7099   -24888.239   -988.18049    676.60696    95.154776     14.51975    27.864451 
   97800    238.60147   -595.65307    204420.41   -23169.812    1731.8345   -24901.646    -1528.037     676.4509    95.155123    14.517087    27.896348 
   98000    237.34801   -325.99786    204420.41   -23250.148    1722.7365   -24972.884   -622.62645    678.06357    95.154731    14.516695    27.903223 
   98200    242.67677   -269.37043    204420.41   -23270.829    1761.4141   -25032.244   -431.29942    680.29158    95.156794    14.514245     27.91126 
   98400    245.55981    -370.2323    204420.41   -23183.985      1782.34   -24966.325   -717.72482    680.34114    95.157396    14.514745    27.910271 
   98600    240.42305   -307.86288    204420.41   -23201.478     1745.056   -24946.534   -543.76299    680.02567    95.158604    14.515139    27.890422 
   98800    238.89762   -283.59375    204420.41   -23183.512     1733.984   -24917.496   -493.05882    681.79182    95.159223    14.512842    27.888321 
   99000    242.33272   -177.50396    204420.41   -23258.407    1758.9169   -25017.324   -79.572509    683.37699    95.158035    14.511263    27.899385 
   99200    241.90729   -611.07716    204420.41   -23215.464     1755.829   -24971.293    -1601.451    688.19968    95.158229    14.510481     27.88005 
   99400    243.04934   -312.45604    204420.41   -23218.675    1764.1183   -24982.793   -562.46133    688.10364    95.157188    14.508162    27.874017 
   99600     239.4002   -306.19189    204420.41   -23239.771    1737.6319   -24977.403    -542.5486    688.68933    95.157589    14.506891    27.891989 
   99800    235.28205   -205.65852    204420.41   -23277.887    1707.7412   -24985.629   -225.79315     688.7779    95.158503    14.506341    27.899017 
  100000    243.00496   -188.46874    204420.41   -23285.795    1763.7962   -25049.592    -137.5712    692.92433    95.157703    14.506582    27.898407 
  100200    241.29297   -600.33887    204420.41   -23336.585    1751.3701   -25087.955   -1555.6937    695.45362    95.154871    14.506609    27.901475 
  100400    243.02944   -219.53191    204420.41    -23239.56    1763.9739   -25003.534   -250.67332    692.26694    95.154945    14.507706    27.922746 
  100600    237.44522    -382.1541    204420.41   -23255.626    1723.4421   -24979.068   -782.84111    693.92671    95.157102    14.507028    27.919313 
  100800    240.57307    -291.0873    204420.41   -23288.328    1746.1449   -25034.473   -457.36978     695.4919    95.158689    14.510609     27.91138 
[...]
 5175800    229.32594   -143.21701    204420.41   -25500.361    1664.5102   -27164.871    103.45798    10046.421     96.44506    12.179075    28.642469 
 5176000    229.56435   -4.5775746    204420.41   -25521.388    1666.2406   -27187.629    561.63572    10041.237    96.444801    12.181783    28.636884 
 5176200    224.05127   -178.20976    204420.41   -25532.854    1626.2252   -27159.079   -10.426802    10043.135     96.44467    12.182794    28.645234 
 5176400    233.69545   -26.007498    204420.41   -25478.044    1696.2252   -27174.269    508.89797    10048.313    96.445026    12.183334    28.638284 
 5176600    233.60421    -76.86262    204420.41   -25413.119     1695.563   -27108.682    307.96651    10049.594    96.447043     12.18588    28.644437 
 5176800    230.67392   -172.31462    204420.41       -25464    1674.2942   -27138.295   -9.8141217    10043.583    96.448497    12.187715    28.649469 
 5177000    225.42208   -39.026409    204420.41   -25445.939    1636.1748   -27082.113    447.15402    10036.398     96.44757    12.189258    28.639031 
 5177200    233.25338   -151.45642    204420.41   -25418.313    1693.0166   -27111.329    47.720893    10047.894    96.448081    12.189977    28.636959 
 5177400    234.61164   -62.104953    204420.41   -25384.112    1702.8752   -27086.988    366.81673    10048.299    96.449275    12.191162    28.649381 
 5177600    227.79567   -107.78495    204420.41   -25472.106    1653.4031   -27125.509    198.34953    10045.627    96.449966    12.193086    28.648768 
 5177800    222.76213   -205.84205    204420.41   -25498.199    1616.8683   -27115.067    -136.7056    10042.026    96.449407    12.192721    28.641258 
 5178000     223.6769   -49.448279    204420.41   -25480.729    1623.5079   -27104.237    432.07414    10042.955    96.450088    12.192911    28.639035 
 5178200     227.2251   -136.26752    204420.41   -25488.291    1649.2617   -27137.553    182.21538    10049.682    96.449441    12.193418     28.64127 
 5178400    226.60251   -74.919688    204420.41   -25495.964    1644.7428   -27140.707    326.10529    10039.632    96.450491    12.194309    28.635239 
 5178600    222.70306   -139.24483    204420.41   -25466.491    1616.4395    -27082.93     157.6041     10044.04    96.450265    12.193465    28.647193 
 5178800    229.48481   -48.543894    204420.41   -25470.678    1665.6633   -27136.341    409.84633    10042.667    96.450682    12.194194    28.640827 
 5179000    226.74983   -69.157758    204420.41    -25504.32    1645.8121   -27150.132     349.5977    10043.929    96.450912    12.197272    28.645756 
 5179200    226.81922   -73.524527    204420.41   -25510.229    1646.3157   -27156.545    349.72363     10046.97    96.452343    12.198052    28.648628 
 5179400    231.15389   -141.02593    204420.41   -25435.224    1677.7779   -27113.002    72.934112    10048.384     96.45233    12.200014    28.663154 
 5179600     224.9412  -0.43521845    204420.41   -25494.077    1632.6845   -27126.762    587.27426    10042.608    96.451185    12.200558    28.644756 
 5179800    233.39711   -137.81642    204420.41   -25489.017    1694.0598   -27183.076     121.4022    10043.336    96.450417    12.199834    28.635643 
 5180000    226.91055   -123.99552    204420.41   -25584.575    1646.9786   -27231.554    150.64268    10045.841    96.451535    12.201618     28.64052 
 5180200    229.84965   -227.75474    204420.41   -25552.193    1668.3114   -27220.504   -199.31416    10043.109    96.451964    12.202506    28.647693 
 5180400     232.0914   -42.030343    204420.41   -25488.479    1684.5826   -27173.061    445.28425    10037.855    96.451194    12.202248    28.643298 
 5180600    225.24827   -147.61619    204420.41   -25476.577    1634.9133    -27111.49    34.705082    10050.489    96.451963     12.20199    28.638923 
 5180800     227.1185    -107.5748    204420.41   -25499.544     1648.488   -27148.032    227.22867    10049.653    96.453237    12.204287    28.642736 
 5181000    224.86963   -79.589204    204420.41   -25551.891    1632.1651   -27184.056    343.35401    10033.526    96.453414    12.205072    28.652001 
 5181200    226.80874   -37.029683    204420.41   -25518.159    1646.2396   -27164.399     470.6965    10038.522    96.453325    12.204106    28.653151 
 5181400    236.82387   -93.868183    204420.41   -25433.335    1718.9322   -27152.267    263.62287    10054.023    96.452866    12.203932    28.649603 
 5181600    223.04041   -2.6428388    204420.41   -25567.267    1618.8881   -27186.155    590.64578    10044.773    96.453743     12.20584    28.651469 
 5181800    226.53603   -181.70775    204420.41   -25457.331    1644.2602   -27101.591   -21.590968     10041.37    96.453467     12.20617    28.638132 
 5182000    226.22735   -90.909679    204420.41   -25473.882    1642.0197   -27115.902    286.55967    10038.853    96.453669    12.207189    28.642513 
 5182200    227.57013   -169.86786    204420.41   -25445.698     1651.766   -27097.464   -11.939959    10045.869    96.454503    12.209206    28.653686 
 5182400    224.83881     -87.6907    204420.41   -25523.328    1631.9414    -27155.27    327.76326    10047.082    96.455384    12.210339    28.647994 
 5182600    225.56467   -155.44753    204420.41   -25475.649    1637.2098   -27112.859    67.693235    10047.341    96.455592    12.210722    28.647255 
 5182800    230.43758   -156.86792    204420.41   -25458.761    1672.5788    -27131.34    46.978674    10040.383    96.455003    12.208682     28.65147 
 5183000    230.85106   -190.08807    204420.41   -25427.989    1675.5799   -27103.569   -57.167319     10049.98    96.455534    12.208072    28.666142 
 5183200    228.12893   -65.740732    204420.41   -25452.389    1655.8219   -27108.211    345.86199    10044.393     96.45539    12.208271    28.655953 
 5183400    219.56792   -186.51635    204420.41   -25580.975    1593.6838   -27174.658   -62.134239    10048.705    96.455044    12.207369    28.642267 
 5183600    219.72555    -86.91624    204420.41   -25565.352    1594.8279    -27160.18    300.88899    10040.813    96.455987    12.207183    28.653093 
 5183800    220.96605   -313.44749    204420.41   -25535.919    1603.8318   -27139.751   -495.76944    10047.417    96.456461    12.206564    28.651295 
 5184000    226.90878    75.531731    204420.41   -25464.759    1646.9658   -27111.725    867.23986    10044.991     96.45778     12.20504    28.640548 
 5184200    230.19083   -109.05581    204420.41   -25476.398    1670.7878   -27147.186    223.04468    10052.057    96.459836    12.206602    28.644708 
 5184400    227.89461   -117.11948    204420.41   -25455.726    1654.1211   -27109.848    180.90537    10046.482    96.460975    12.205772    28.651703 
 5184600    229.30337   -50.695877    204420.41   -25502.507    1664.3463   -27166.854    431.89971    10043.325    96.460213    12.204956    28.648625 
 5184800    226.13301   -41.234634    204420.41   -25482.831     1641.335   -27124.166    470.88355     10052.46     96.45989    12.203161    28.645319 
 5185000    226.12221   -96.859345    204420.41   -25484.697    1641.2566   -27125.953    255.24509    10048.766    96.461971    12.203347    28.653744 
 5185200    216.84648    -96.75914    204420.41    -25549.81    1573.9308   -27123.741    277.19342    10041.566     96.46213     12.20357    28.642013 
 5185400    227.38329   -95.945726    204420.41   -25485.587    1650.4099   -27135.997    296.20012    10043.084    96.461685    12.203143    28.637445 
 5185600     223.1286   -199.04266    204420.41   -25484.995    1619.5282   -27104.524     -86.5871    10050.722    96.461519    12.203032    28.639994 
 5185800    226.75732   -16.736276    204420.41   -25452.772    1645.8664   -27098.638    515.59912    10043.652    96.461469    12.201401    28.642119 
 5186000    226.20467   -105.40704    204420.41    -25461.82    1641.8551   -27103.675    234.26671    10045.705    96.461697    12.199288     28.63785 
 5186200    227.92403    -118.9827    204420.41   -25437.978    1654.3347   -27092.313    170.94186    10044.609    96.461637    12.199993     28.64981 
 5186400    223.64755   -241.94486    204420.41   -25471.009    1623.2948   -27094.304   -236.51462    10053.915    96.462889    12.200582    28.657729 
 5186600    223.80531    5.9940188    204420.41   -25476.359    1624.4399   -27100.799    657.89539    10041.116    96.462969    12.199846    28.651432 
 5186800    228.52597   -116.39559    204420.41   -25477.208    1658.7038   -27135.912    168.29295    10042.498    96.464137    12.199434    28.631593 
 5187000    228.75149   -134.44028    204420.41   -25445.464    1660.3406   -27105.805    120.24068    10052.174    96.465029    12.199785    28.661755 
 5187200    225.54343   -163.96691    204420.41   -25495.614    1637.0557    -27132.67    10.264757    10046.762    96.466062    12.201232    28.652084 
 5187400    223.89572    7.8998886    204420.41   -25523.049    1625.0962   -27148.146    628.64467     10039.88    96.464594    12.200607    28.645176 
 5187600    229.15914   -42.041626    204420.41   -25432.141    1663.2995   -27095.441     449.6756    10044.807    96.464778    12.201136    28.637023 
 5187800     220.8812   -302.98139    204420.41    -25474.03    1603.2159   -27077.246   -470.28778    10049.585     96.46418    12.200723    28.649489 
 5188000    229.40559   -74.402151    204420.41    -25420.15    1665.0883   -27085.238    334.32676    10040.995    96.464205    12.201042    28.649122 
 5188200    230.76766   -100.83874    204420.41    -25459.77    1674.9746   -27134.745    214.39065    10044.475    96.464356     12.20116    28.655087 
 5188400    227.68816   -170.96602    204420.41   -25457.304    1652.6227   -27109.926  -0.83381082    10048.589    96.465091    12.202194    28.659922 
 5188600    226.46071   -82.958416    204420.41   -25487.745    1643.7135   -27131.458    320.83748    10041.164    96.464862     12.20335    28.666359 
 5188800    224.14952   -121.37251    204420.41   -25532.843    1626.9383   -27159.781    170.31178    10039.581    96.463425    12.205119    28.660356 
 5189000    228.78302   -159.33995    204420.41   -25485.961    1660.5695    -27146.53    12.641096    10044.409    96.463133    12.204386     28.66185 
 5189200    219.89849   -170.65754    204420.41   -25593.059    1596.0832   -27189.142   -30.803748    10052.706     96.46358    12.204927    28.671588 
 5189400    221.91889   -99.549573    204420.41   -25532.516    1610.7477   -27143.264    268.45285    10044.796    96.462842    12.206609    28.663363 
 5189600    232.66187   -49.653287    204420.41   -25466.454    1688.7233   -27155.178    384.80267    10037.791    96.461063    12.206476     28.65413 
 5189800    223.91747   -57.519301    204420.41   -25501.474     1625.254   -27126.728    389.65358    10044.397    96.460606    12.207393    28.665366 
 5190000    224.38206   -185.21808    204420.41   -25484.435    1628.6261   -27113.061   -36.420898    10048.566    96.459009    12.206913    28.673616 
 5190200    224.32557   -90.309029    204420.41   -25504.224    1628.2161   -27132.441    285.62149    10045.949    96.460382    12.209006    28.662229 
 5190400    231.34446   -93.629362    204420.41   -25406.629    1679.1611    -27085.79    249.39168     10041.66    96.457983    12.209695    28.663329 
 5190600    227.20981   -126.59182    204420.41   -25481.912    1649.1507   -27131.063    122.37899    10042.286    96.457684    12.212165    28.666178 
 5190800    229.88176    -97.03419    204420.41   -25466.926    1668.5444   -27135.471    255.07004    10045.188    96.455746    12.212736    28.661243 
 5191000    228.90212   -19.488853    204420.41   -25490.908    1661.4339   -27152.342    517.65044    10045.519    96.456191    12.213097     28.65561 
 5191200    222.82056   -140.17654    204420.41    -25486.77    1617.2923   -27104.062    112.16521    10045.699    96.455479    12.214064    28.666498 
 5191400     226.6431   -11.864621    204420.41   -25462.056    1645.0374   -27107.094    554.78229    10034.623    96.454405    12.212627    28.656812 
 5191600     230.7053   -84.769197    204420.41   -25485.858    1674.5219    -27160.38    313.98112    10038.688    96.452449    12.213531    28.665717 
 5191800     231.6157   -6.3801572    204420.41   -25431.528    1681.1298   -27112.658    587.08227    10045.211    96.453188    12.214024    28.665099 
 5192000    233.98933   -87.101109    204420.41   -25420.156    1698.3583   -27118.514    291.65455    10047.787    96.454271     12.21262    28.679127 
 5192200    226.36896   -56.641944    204420.41   -25473.423    1643.0476   -27116.471    427.44529    10038.498    96.453758    12.212101    28.672719 
 5192400    229.81269   -125.78893    204420.41   -25468.359    1668.0431   -27136.402    159.80636    10037.997    96.452958    12.212324    28.657882 
 5192600     226.1586    -152.1569    204420.41   -25493.485    1641.5207   -27135.005    79.865711    10045.902    96.452459    12.213098    28.659287 
 5192800    227.84637   -56.804005    204420.41   -25449.021     1653.771   -27102.792    358.14888    10040.675    96.452175    12.213413    28.658081 
 5193000    223.25318    -178.4326    204420.41   -25522.152    1620.4324   -27142.584    3.9533568    10040.738    96.451687    12.213639    28.657953 
 5193200    227.88931   -68.021492    204420.41    -25447.94    1654.0827   -27102.022    360.43337    10044.436    96.452131    12.212409    28.670694 
 5193400    225.55562   -87.839587    204420.41   -25450.949    1637.1442   -27088.093     279.2469    10041.726    96.450932    12.211984    28.671265 
 5193600    227.09309   -75.388121    204420.41   -25440.951    1648.3035   -27089.254    280.68842    10042.284    96.450326    12.213893    28.670162 
 5193800     223.6014   -135.17479    204420.41   -25471.801    1622.9599    -27094.76    104.15196    10045.418    96.449937    12.212018     28.67224 
 5194000    218.41936    28.318337    204420.41   -25585.048    1585.3472   -27170.395    716.67911    10034.352    96.449389    12.211723    28.674637 
 5194200    220.41196   -178.16744    204420.41   -25524.776    1599.8101   -27124.586   -48.281687    10048.877    96.449565    12.211964    28.666884 
 5194400    225.35269     -25.4536    204420.41   -25469.161    1635.6712   -27104.832    516.12806    10043.469    96.449104    12.211475    28.671778 
 5194600    227.73063   -120.84908    204420.41   -25436.516     1652.931   -27089.447    165.22889    10046.679    96.448083    12.211153    28.671899 
 5194800     230.6727   -9.8970813    204420.41   -25462.431    1674.2853   -27136.717    562.57214    10042.254    96.447618    12.212513    28.676913 
 5195000    224.46839   -125.84661    204420.41   -25469.446    1629.2528   -27098.698    230.26075    10046.316    96.446217    12.214126    28.673365 
 5195200     233.2297   -11.328803    204420.41   -25454.078    1692.8447   -27146.923    529.27526    10037.869     96.44648    12.215312    28.662745 
 5195400    233.42746   -276.46423    204420.41   -25461.276    1694.2801   -27155.556   -357.97427    10047.797     96.44628    12.215629    28.665215 
 5195600    226.81088   -107.95516    204420.41   -25513.525    1646.2552    -27159.78    270.93053    10046.098    96.446291    12.215942    28.687694 
 5195800    232.07166   -157.72066    204420.41   -25406.692    1684.4393   -27091.131    76.556237    10043.692    96.447035    12.216757    28.666258 
 5196000    227.18843   -23.022569    204420.41   -25490.661    1648.9955   -27139.656    494.66232    10039.102    96.445413    12.218299    28.665683 
 5196200    228.93136   -185.54162    204420.41    -25491.39    1661.6462   -27153.036   -51.855146    10045.264    96.444832    12.219037    28.667754 
 5196400    234.59592   -92.134219    204420.41   -25475.696    1702.7611   -27178.457    236.82116    10044.872    96.444971    12.220762    28.667767 
 5196600    227.15242   -91.822664    204420.41   -25455.612    1648.7341   -27104.346    264.52724    10043.853    96.443748    12.221481    28.667803 
 5196800    229.95642   -66.789234    204420.41   -25451.129    1669.0863   -27120.215    380.70162    10036.675    96.442354     12.22184    28.665632 
 5197000    233.43575   -53.389692    204420.41   -25421.679    1694.3403    -27116.02    438.23568    10045.696    96.441293    12.222436    28.646601 
 5197200    224.80175   -90.190409    204420.41   -25506.566    1631.6723   -27138.239    275.05518    10045.113    96.440336    12.222555    28.663215 
 5197400    222.45837   -108.22713    204420.41   -25507.038    1614.6634   -27121.702    219.59629     10043.81    96.439761     12.22227    28.656705 
 5197600    224.40959   -163.38849    204420.41   -25545.722     1628.826   -27174.548    40.235741    10047.022    96.438794    12.223354    28.656421 
 5197800     225.3588   -87.102991    204420.41   -25575.923    1635.7156   -27211.639    273.21617    10037.764    96.438581    12.224485    28.657204 
 5198000    227.88649   -174.65482    204420.41    -25443.96    1654.0622   -27098.022   -26.599148    10041.463    96.437726    12.225177    28.641794 
 5198200    228.07145   -32.506758    204420.41   -25466.194    1655.4047   -27121.599    450.43829    10043.055    96.436921     12.22584    28.651201 
 5198400     227.8972   -207.55296    204420.41   -25519.893      1654.14   -27174.033   -114.53433    10051.745    96.436233     12.22503    28.656915 
 5198600     221.9399   -9.2444042    204420.41   -25567.431    1610.9003   -27178.331    531.33797     10036.79    96.436193     12.22583    28.650415 
 5198800    234.71716   -76.407638    204420.41   -25488.611    1703.6411   -27192.252    338.04678     10048.21    96.436082    12.226286    28.654075 
 5199000    227.13128   -69.155466    204420.41   -25431.298    1648.5807   -27079.879    345.25729    10049.319    96.435636    12.226381    28.660645 
 5199200    228.00316   -95.568391    204420.41   -25497.426     1654.909   -27152.335    220.47534    10042.532    96.435404    12.226835    28.652503 
 5199400    229.44613    -75.44389    204420.41   -25475.542    1665.3825   -27140.924    323.03958    10041.704    96.436618    12.228586    28.638723 
 5199600    229.61254   -161.04424    204420.41   -25471.581    1666.5903   -27138.172    58.000488    10045.158    96.435785    12.228196    28.643947 
 5199800    228.72416   -53.486589    204420.41    -25492.42    1660.1423   -27152.562    388.64349    10044.831    96.435638    12.227787    28.644259 
 5200000    232.65494   -165.86475    204420.41   -25440.932    1688.6729   -27129.604   -21.339083    10043.717    96.435703     12.22919    28.650981 
Loop time of 5601.33 on 64 procs for 5200000 steps with 8482 atoms

Performance: 802.096 ns/day, 0.030 hours/ns, 928.352 timesteps/s
100.0% CPU use with 64 MPI tasks x no OpenMP threads

MPI task timing breakdown:
Section |  min time  |  avg time  |  max time  |%varavg| %total
---------------------------------------------------------------
Pair    | 0.43537    | 2018.7     | 4220.7     |3382.9 | 36.04
Neigh   | 4.7139     | 228.18     | 500.09     |1126.1 |  4.07
Comm    | 114.04     | 1206.9     | 3594.4     |2625.4 | 21.55
Output  | 137.69     | 137.75     | 137.96     |   0.3 |  2.46
Modify  | 212.67     | 1952.3     | 5276       |4273.6 | 34.85
Other   |            | 57.62      |            |       |  1.03

Nlocal:    132.531 ave 255 max 0 min
Histogram: 12 6 0 4 10 0 2 9 10 11
Nghost:    809.188 ave 1115 max 520 min
Histogram: 9 7 8 8 2 3 5 2 14 6
Neighs:    0 ave 0 max 0 min
Histogram: 64 0 0 0 0 0 0 0 0 0
FullNghs:  13406 ave 28592 max 0 min
Histogram: 18 14 0 0 0 0 1 9 11 11

Total # of neighbors = 857984
Ave neighs/atom = 101.154
Neighbor list builds = 560624
Dangerous builds = 0
write_data 		${DIR}/data.${NAME}_run
write_data 		run_7/data.${NAME}_run
write_data 		run_7/data.ibeam_cooling_7_run
Total wall time: 1:33:32
