
### Dimensions ###


### IMPORT ATOMS ###
read_data ../Box_Setup/data.Ibeam_240K
  orthogonal box = (0 0 0) to (189.989 26.9999 39.8504)
  16 by 2 by 2 MPI processor grid
  reading atoms ...
  8482 atoms
  reading velocities ...
  8482 velocities
group water type 2
2436 atoms in group water
group graphite type 1
6046 atoms in group graphite


# Define potential
#
pair_style          sw
pair_coeff * * MLC_e.sw C mW

# Add velocity/set timestep
#

fix		1 graphite setforce 0.0 0.0 0.0
velocity 	graphite set 0.0 0.0 0.0
velocity            water create ${START_TEMP} ${SEED} rot yes dist gaussian
velocity            water create 240 ${SEED} rot yes dist gaussian
velocity            water create 240 7785 rot yes dist gaussian
timestep            5.0

# Define output
#
compute 1 water msd
compute 2 water temp


thermo	            100
thermo_style custom step c_2 press vol etotal ke pe c_1[4] density

# Neighbor lists
#
neigh_modify        delay 0 every 1 check yes


# Set fixes
#
fix                 2 water momentum 10 linear 1 1 1 rescale
fix                 3 all nve
fix                 4 water temp/csvr ${START_TEMP} ${START_TEMP} 500.0 928347
fix                 4 water temp/csvr 240 ${START_TEMP} 500.0 928347
fix                 4 water temp/csvr 240 240 500.0 928347

# Run 0.05 ns equilibration
#
dump                1 all custom 100 ${DIR}/eq.${NAME}.dump id type x y z vx vy vz
dump                1 all custom 100 run_7/eq.${NAME}.dump id type x y z vx vy vz
dump                1 all custom 100 run_7/eq.ibeam_cooling_7.dump id type x y z vx vy vz
run                 10000
Neighbor list info ...
  update every 1 steps, delay 0 steps, check yes
  max neighbors/atom: 2000, page size: 100000
  master list distance cutoff = 6.67472
  ghost atom cutoff = 6.67472
  binsize = 3.33736, bins = 57 9 12
  1 neighbor lists, perpetual/occasional/extra = 1 0 0
  (1) pair sw, perpetual
      attributes: full, newton on
      pair build: full/bin/atomonly
      stencil: full/bin/3d
      bin: standard
Per MPI rank memory allocation (min/avg/max) = 3.381 | 4.313 | 4.753 Mbytes
Step c_2 Press Volume TotEng KinEng PotEng c_1[4] Density 
       0          240   -262.64038    204420.41   -23347.773    1741.9854   -25089.758            0   0.94632332 
     100    239.09337   -201.09493    204420.41   -23351.719    1735.4048   -25087.124   0.82114321   0.94632332 
     200    236.54997   -403.56283    204420.41   -23380.155    1716.9441   -25097.099    1.2561984   0.94632332 
     300     239.2729    -532.1734    204420.41   -23380.802    1736.7079    -25117.51    1.6793752   0.94632332 
     400    236.00554   -296.51847    204420.41   -23383.246    1712.9925   -25096.239    2.0566005   0.94632332 
     500    240.37521   -220.96133    204420.41   -23357.669    1744.7088   -25102.378    2.4553998   0.94632332 
     600    241.75758   -295.43415    204420.41   -23277.274    1754.7424   -25032.016    2.7450313   0.94632332 
     700    242.82675    -278.7871    204420.41    -23269.82    1762.5027   -25032.322    3.1338784   0.94632332 
     800    238.64133   -380.88351    204420.41    -23244.39    1732.1238   -24976.514     3.560638   0.94632332 
     900     237.5868   -240.19627    204420.41   -23264.456    1724.4697   -24988.926    3.9310921   0.94632332 
    1000    233.40753   -361.06649    204420.41   -23288.211    1694.1354   -24982.346    4.3879378   0.94632332 
    1100    242.39661   -255.08361    204420.41   -23267.435    1759.3806   -25026.815    4.8479647   0.94632332 
    1200    238.32298   -301.46939    204420.41   -23271.419    1729.8131   -25001.232    5.3170344   0.94632332 
    1300    244.32826   -363.29663    204420.41   -23229.845    1773.4011   -25003.246     5.703926   0.94632332 
    1400    245.28035   -253.21679    204420.41   -23268.011    1780.3116   -25048.323    6.1489967   0.94632332 
    1500    239.26824   -365.57843    204420.41   -23294.178    1736.6741   -25030.853    6.6235792   0.94632332 
    1600    243.83076   -378.05159    204420.41   -23271.158    1769.7901   -25040.948    6.8431043   0.94632332 
    1700    236.04231   -461.19397    204420.41   -23283.776    1713.2594   -24997.036    7.4637677   0.94632332 
    1800    235.62889   -323.19044    204420.41   -23248.489    1710.2587   -24958.748    7.6889643   0.94632332 
    1900    245.66307   -358.61433    204420.41   -23213.612    1783.0895   -24996.702    8.2139118   0.94632332 
    2000    245.81221   -284.32517    204420.41   -23191.348     1784.172    -24975.52    8.6228263   0.94632332 
    2100    242.14578   -225.64835    204420.41   -23299.358      1757.56   -25056.918    8.9943414   0.94632332 
    2200    236.27944   -260.45867    204420.41   -23262.848    1714.9805   -24977.828    9.3743311   0.94632332 
    2300    243.03595   -285.69367    204420.41   -23237.704    1764.0211   -25001.725    9.6501175   0.94632332 
    2400    237.78479   -378.09554    204420.41   -23235.018    1725.9068   -24960.924    9.9251631   0.94632332 
    2500     237.5551   -335.67907    204420.41   -23250.375    1724.2396   -24974.615    10.247586   0.94632332 
    2600     241.6238    -432.4821    204420.41   -23251.913    1753.7714   -25005.685    10.625553   0.94632332 
    2700    243.70288   -380.05304    204420.41   -23255.588    1768.8619    -25024.45    11.191529   0.94632332 
    2800    245.88642   -207.83974    204420.41   -23205.406    1784.7106   -24990.116     11.49927   0.94632332 
    2900     240.9881   -203.31646    204420.41   -23201.926    1749.1573   -24951.083    12.014548   0.94632332 
    3000    243.12766   -268.93979    204420.41   -23173.332    1764.6868   -24938.019    12.378196   0.94632332 
    3100    240.71672   -283.70741    204420.41   -23169.395    1747.1876   -24916.583    12.796635   0.94632332 
    3200     238.3526   -259.31876    204420.41   -23219.565    1730.0281   -24949.594     13.16108   0.94632332 
    3300    238.24619   -414.41755    204420.41   -23310.195    1729.2558    -25039.45    13.584649   0.94632332 
    3400    235.85263   -380.77589    204420.41   -23268.158    1711.8826   -24980.041    14.027356   0.94632332 
    3500    241.74976   -278.03649    204420.41   -23263.456    1754.6857   -25018.142    14.441624   0.94632332 
    3600    238.59817   -503.41073    204420.41   -23264.388    1731.8105   -24996.198    14.727462   0.94632332 
    3700    243.52469   -486.26904    204420.41   -23238.156    1767.5685   -25005.725    14.985721   0.94632332 
    3800    238.57729   -403.18816    204420.41   -23233.547     1731.659   -24965.206    15.412499   0.94632332 
    3900    235.66556   -375.50561    204420.41   -23240.593    1710.5248   -24951.118    15.751202   0.94632332 
    4000    238.67344   -191.29131    204420.41   -23276.005    1732.3568   -25008.362    16.175505   0.94632332 
    4100    236.97816   -164.17349    204420.41   -23252.009     1720.052   -24972.061    16.713655   0.94632332 
    4200    243.01168   -253.85803    204420.41   -23232.452     1763.845   -24996.297    17.266576   0.94632332 
    4300    237.09624   -371.00005    204420.41   -23305.532    1720.9091   -25026.441    17.604072   0.94632332 
    4400    236.26308   -214.95585    204420.41   -23268.182    1714.8618   -24983.044    18.082448   0.94632332 
    4500    236.49838   -325.31901    204420.41   -23284.707    1716.5697   -25001.277    18.686706   0.94632332 
    4600    236.65253   -210.53393    204420.41   -23329.943    1717.6885   -25047.631    19.120557   0.94632332 
    4700    236.99408   -465.28176    204420.41   -23262.824    1720.1676   -24982.992    19.509337   0.94632332 
    4800    244.07035   -468.68811    204420.41   -23236.154    1771.5291   -25007.683    19.836114   0.94632332 
    4900    239.04489   -249.68328    204420.41   -23203.194     1735.053   -24938.247    20.383709   0.94632332 
    5000    237.10391   -281.76613    204420.41   -23252.914    1720.9648   -24973.879     20.98725   0.94632332 
    5100    246.77014   -448.81238    204420.41   -23213.573    1791.1249   -25004.698    21.467505   0.94632332 
    5200    242.49121   -200.14214    204420.41   -23259.372    1760.0673   -25019.439    21.964341   0.94632332 
    5300    236.93102   -198.19209    204420.41   -23323.377    1719.7099   -25043.086    22.489087   0.94632332 
    5400    241.97415   -264.45584    204420.41   -23318.698    1756.3143   -25075.012    22.922468   0.94632332 
    5500    237.79941   -447.43484    204420.41   -23315.306    1726.0129   -25041.319    23.412051   0.94632332 
    5600    239.86117   -297.71943    204420.41   -23336.016    1740.9778   -25076.993    23.927308   0.94632332 
    5700      243.062   -370.10321    204420.41   -23316.796    1764.2102   -25081.006    24.067396   0.94632332 
    5800    245.95504   -299.46524    204420.41    -23300.63    1785.2087   -25085.839    24.220836   0.94632332 
    5900    245.07693   -322.89776    204420.41   -23336.372    1778.8352   -25115.207    24.340486   0.94632332 
    6000    241.98781   -223.07735    204420.41     -23345.4    1756.4135   -25101.813    24.316205   0.94632332 
    6100     241.7176   -356.82705    204420.41   -23377.795    1754.4522   -25132.247    24.719684   0.94632332 
    6200    236.48699   -364.92781    204420.41    -23389.52     1716.487   -25106.007    24.878424   0.94632332 
    6300    237.56064   -351.22532    204420.41   -23320.256    1724.2799   -25044.536    25.072549   0.94632332 
    6400    233.89049   -507.54138    204420.41   -23349.522    1697.6409   -25047.163    25.234196   0.94632332 
    6500    238.54727   -355.25461    204420.41   -23360.494    1731.4411   -25091.936    25.557909   0.94632332 
    6600    239.54528   -334.76916    204420.41   -23373.247    1738.6849   -25111.932    25.636616   0.94632332 
    6700     235.9881   -335.92785    204420.41   -23410.228    1712.8659   -25123.094    25.738963   0.94632332 
    6800    235.01918   -94.802274    204420.41    -23398.38    1705.8333   -25104.213    25.817891   0.94632332 
    6900    245.10959   -241.52533    204420.41   -23362.237    1779.0722   -25141.309    26.367654   0.94632332 
    7000    241.42742    -437.0351    204420.41   -23375.984     1752.346    -25128.33    26.515638   0.94632332 
    7100    235.24146   -345.63092    204420.41   -23366.877    1707.4466   -25074.324    27.405528   0.94632332 
    7200    236.28507   -432.68507    204420.41   -23417.679    1715.0214   -25132.701    27.808837   0.94632332 
    7300     230.4059   -387.30504    204420.41   -23445.595    1672.3488   -25117.944    28.317529   0.94632332 
    7400    241.06729   -166.01227    204420.41   -23400.074    1749.7321   -25149.806    28.506782   0.94632332 
    7500    235.24328    -255.6574    204420.41   -23363.805    1707.4598   -25071.265    28.760233   0.94632332 
    7600    238.55251    -334.2138    204420.41   -23310.561    1731.4791    -25042.04    29.007408   0.94632332 
    7700    241.97548   -452.87388    204420.41   -23311.571     1756.324   -25067.895    29.155343   0.94632332 
    7800    234.96081    -340.0019    204420.41   -23371.174    1705.4096   -25076.584    29.605898   0.94632332 
    7900    239.47382   -218.76132    204420.41   -23338.412    1738.1663   -25076.578    29.952257   0.94632332 
    8000    244.25824    -228.3198    204420.41   -23259.729    1772.8928   -25032.622    30.299352   0.94632332 
    8100    244.90436   -227.77381    204420.41   -23247.025    1777.5826   -25024.607    31.073704   0.94632332 
    8200     247.6991   -281.43498    204420.41   -23269.592    1797.8676   -25067.459       31.256   0.94632332 
    8300    245.61001   -230.39015    204420.41   -23241.323    1782.7044   -25024.028    31.527669   0.94632332 
    8400    240.86244   -402.18759    204420.41   -23232.638    1748.2452   -24980.883    32.068744   0.94632332 
    8500     242.1343   -395.53999    204420.41   -23266.208    1757.4767   -25023.685    32.528565   0.94632332 
    8600    240.08887   -466.04843    204420.41   -23274.443    1742.6305   -25017.073    32.837821   0.94632332 
    8700    242.72677   -456.67908    204420.41   -23300.583    1761.7771    -25062.36    33.465578   0.94632332 
    8800    233.67826   -400.95812    204420.41   -23297.528    1696.1004   -24993.629    33.931347   0.94632332 
    8900    237.83375   -533.17562    204420.41    -23332.04    1726.2622   -25058.302    34.302203   0.94632332 
    9000    245.33259   -310.20978    204420.41    -23303.34    1780.6908   -25084.031    34.790863   0.94632332 
    9100    247.06738   -147.27256    204420.41   -23333.008    1793.2824    -25126.29    35.158114   0.94632332 
    9200    243.23861   -179.61916    204420.41    -23292.26    1765.4921   -25057.753    35.591714   0.94632332 
    9300    243.91258   -394.45131    204420.41   -23383.854     1770.384   -25154.238    36.072124   0.94632332 
    9400    237.93731   -268.27218    204420.41   -23343.073    1727.0138   -25070.087    36.755148   0.94632332 
    9500    238.37492   -475.42905    204420.41   -23361.369    1730.1901   -25091.559     37.03756   0.94632332 
    9600    241.42314     -433.545    204420.41   -23364.385    1752.3149     -25116.7    37.447787   0.94632332 
    9700    242.69113   -215.94943    204420.41   -23323.507    1761.5184   -25085.025    37.953848   0.94632332 
    9800    245.74988   -249.78587    204420.41   -23260.906    1783.7196   -25044.626    38.548851   0.94632332 
    9900    242.00709   -287.04088    204420.41   -23284.713    1756.5534   -25041.266    39.271689   0.94632332 
   10000    239.20489   -227.89498    204420.41   -23287.807    1736.2143   -25024.021     39.76856   0.94632332 
Loop time of 10.7052 on 64 procs for 10000 steps with 8482 atoms

Performance: 403.541 ns/day, 0.059 hours/ns, 934.123 timesteps/s
100.0% CPU use with 64 MPI tasks x no OpenMP threads

MPI task timing breakdown:
Section |  min time  |  avg time  |  max time  |%varavg| %total
---------------------------------------------------------------
Pair    | 0.00083414 | 3.8796     | 8.7153     | 169.0 | 36.24
Neigh   | 0.0048632  | 0.23616    | 0.56186    |  36.6 |  2.21
Comm    | 0.1942     | 1.9749     | 6.7377     | 128.1 | 18.45
Output  | 0.16833    | 0.16839    | 0.16915    |   0.0 |  1.57
Modify  | 0.30134    | 4.3489     | 10.236     | 196.5 | 40.62
Other   |            | 0.09732    |            |       |  0.91

Nlocal:    132.531 ave 268 max 0 min
Histogram: 16 0 4 5 7 0 10 7 8 7
Nghost:    807.625 ave 1148 max 520 min
Histogram: 14 10 7 1 3 3 2 0 17 7
Neighs:    0 ave 0 max 0 min
Histogram: 64 0 0 0 0 0 0 0 0 0
FullNghs:  13299.1 ave 29485 max 0 min
Histogram: 17 15 0 0 0 0 2 13 9 8

Total # of neighbors = 851142
Ave neighs/atom = 100.347
Neighbor list builds = 580
Dangerous builds = 0
write_data 	    ${DIR}/data.${NAME}_eq
write_data 	    run_7/data.${NAME}_eq
write_data 	    run_7/data.ibeam_cooling_7_eq

undump              1
unfix               4



################################################
#######         Run Simulation         #########
################################################

reset_timestep      0
timestep	    10.0
log                 ${DIR}/log.run_${NAME}
log                 run_7/log.run_${NAME}
log                 run_7/log.run_ibeam_cooling_7
