
### Dimensions ###


### IMPORT ATOMS ###
read_data ../Box_Setup/data.Ibeam_240K
  orthogonal box = (0 0 0) to (157.504 36.4877 39.8503)
  8 by 2 by 4 MPI processor grid
  reading atoms ...
  8943 atoms
  reading velocities ...
  8943 velocities
group water type 2
2223 atoms in group water
group graphite type 1
6720 atoms in group graphite


# Define potential
#
pair_style          sw
pair_coeff * * MLC_e.sw C mW

# Add velocity/set timestep
#

fix		1 graphite setforce 0.0 0.0 0.0
velocity 	graphite set 0.0 0.0 0.0
velocity            water create ${START_TEMP} ${SEED} rot yes dist gaussian
velocity            water create 240 ${SEED} rot yes dist gaussian
velocity            water create 240 13177 rot yes dist gaussian
timestep            5.0

# Define output
#
compute 1 water msd
compute 2 water temp


thermo	            100
thermo_style custom step c_2 press vol etotal ke pe c_1[4] density

# Neighbor lists
#
neigh_modify        delay 0 every 1 check yes


# Set fixes
#
fix                 2 water momentum 10 linear 1 1 1 rescale
fix                 3 all nve
fix                 4 water temp/csvr ${START_TEMP} ${START_TEMP} 500.0 928347
fix                 4 water temp/csvr 240 ${START_TEMP} 500.0 928347
fix                 4 water temp/csvr 240 240 500.0 928347

# Run 0.05 ns equilibration
#
dump                1 all custom 100 ${DIR}/eq.${NAME}.dump id type x y z vx vy vz
dump                1 all custom 100 run_30/eq.${NAME}.dump id type x y z vx vy vz
dump                1 all custom 100 run_30/eq.ibeam_cooling_30.dump id type x y z vx vy vz
run                 10000
Neighbor list info ...
  update every 1 steps, delay 0 steps, check yes
  max neighbors/atom: 2000, page size: 100000
  master list distance cutoff = 6.67472
  ghost atom cutoff = 6.67472
  binsize = 3.33736, bins = 48 11 12
  1 neighbor lists, perpetual/occasional/extra = 1 0 0
  (1) pair sw, perpetual
      attributes: full, newton on
      pair build: full/bin/atomonly
      stencil: full/bin/3d
      bin: standard
Per MPI rank memory allocation (min/avg/max) = 0.5062 | 3.768 | 4.796 Mbytes
Step c_2 Press Volume TotEng KinEng PotEng c_1[4] Density 
       0          240   -163.35224    229018.04   -21211.582    1589.6064   -22801.188            0   0.87555383 
     100     241.0789   -253.12471    229018.04   -21177.345    1596.7523   -22774.098   0.86818308   0.87555383 
     200    239.71118   -419.60378    229018.04   -21219.045    1587.6934   -22806.738    1.2842279   0.87555383 
     300    238.66747   -322.67653    229018.04   -21193.586    1580.7805   -22774.367    1.6547616   0.87555383 
     400    239.53567   -407.43232    229018.04   -21199.494     1586.531   -22786.025    1.9774523   0.87555383 
     500    240.82001   -268.84524    229018.04   -21195.984    1595.0376   -22791.022    2.2856314   0.87555383 
     600    229.30148   -426.08457    229018.04   -21286.312    1518.7462   -22805.058    2.7690968   0.87555383 
     700    232.93589    -265.7859    229018.04   -21250.515    1542.8182   -22793.334    3.2263233   0.87555383 
     800    233.89604   -177.26126    229018.04   -21293.416    1549.1776   -22842.593    3.4642936   0.87555383 
     900    234.35139   -153.29022    229018.04    -21245.54    1552.1936   -22797.734     3.910613   0.87555383 
    1000     243.7522   -268.63659    229018.04   -21175.003    1614.4586   -22789.462    4.2643471   0.87555383 
    1100    241.33309   -335.57196    229018.04   -21200.525    1598.4359   -22798.961    4.6430068   0.87555383 
    1200     232.7878   -453.94625    229018.04   -21235.009    1541.8374   -22776.846    4.9646327   0.87555383 
    1300    240.36676   -285.42356    229018.04   -21184.058    1592.0356   -22776.094     5.261209   0.87555383 
    1400    247.42925   -388.83601    229018.04   -21105.146     1638.813   -22743.959    5.6111621   0.87555383 
    1500    243.66433   -390.02433    229018.04    -21109.21    1613.8765   -22723.087    6.0425892   0.87555383 
    1600     241.6486   -260.25395    229018.04   -21089.629    1600.5256   -22690.154    6.4698487   0.87555383 
    1700    240.52666   -167.96641    229018.04   -21105.916    1593.0947   -22699.011    6.9113171   0.87555383 
    1800    243.16068   -164.50698    229018.04   -21109.145    1610.5407   -22719.686    7.2146712   0.87555383 
    1900    247.14913   -191.50384    229018.04     -21028.1    1636.9576   -22665.058    7.6626262   0.87555383 
    2000    247.40506   -261.20075    229018.04    -20997.11    1638.6528   -22635.763     8.198362   0.87555383 
    2100    246.61244   -435.82337    229018.04    -21017.86    1633.4029   -22651.263    8.6233254   0.87555383 
    2200    249.87349   -268.29648    229018.04   -20995.274    1655.0021   -22650.276    8.9649311   0.87555383 
    2300    241.86028   -232.98345    229018.04   -21036.922    1601.9277    -22638.85    9.3920192   0.87555383 
    2400    240.32789   -190.45527    229018.04   -21035.775    1591.7781   -22627.553    9.7569911   0.87555383 
    2500    239.18612   -331.58183    229018.04   -21014.901    1584.2158   -22599.116    9.9964642   0.87555383 
    2600    242.08287   -166.06938    229018.04   -21066.279     1603.402   -22669.681    10.260936   0.87555383 
    2700    245.09089   -451.70662    229018.04   -21052.618    1623.3252   -22675.943    10.666956   0.87555383 
    2800    243.98488    -172.2011    229018.04   -21063.723    1615.9997   -22679.723    11.302337   0.87555383 
    2900    240.44411   -370.10053    229018.04   -21149.864    1592.5479   -22742.412    11.723491   0.87555383 
    3000     235.7493   -228.30413    229018.04   -21178.137    1561.4525    -22739.59    12.149461   0.87555383 
    3100    237.06341   -155.84276    229018.04    -21164.28    1570.1563   -22734.436    12.590218   0.87555383 
    3200    231.05215   -133.93819    229018.04   -21187.524    1530.3415   -22717.866    12.895803   0.87555383 
    3300    238.28542   -333.47108    229018.04    -21151.97    1578.2501    -22730.22    13.286711   0.87555383 
    3400    240.02065   -105.40992    229018.04   -21156.093    1589.7431   -22745.836    13.721986   0.87555383 
    3500     234.2176   -369.55949    229018.04   -21152.568    1551.3075   -22703.875    13.828559   0.87555383 
    3600    239.10038   -444.78477    229018.04   -21136.303    1583.6479   -22719.951    14.079842   0.87555383 
    3700    239.71224   -335.04484    229018.04   -21176.043    1587.7004   -22763.744      14.3888   0.87555383 
    3800    237.92539   -138.26253    229018.04   -21177.296    1575.8655   -22753.161    14.945021   0.87555383 
    3900     245.4059   -398.43247    229018.04   -21165.715    1625.4116   -22791.127     15.32273   0.87555383 
    4000    239.53058   -290.10035    229018.04   -21207.532    1586.4973   -22794.029    15.703499   0.87555383 
    4100    238.78271   -255.45575    229018.04   -21178.312    1581.5438   -22759.856    16.086416   0.87555383 
    4200    242.96527   -290.16705    229018.04   -21160.026    1609.2465   -22769.273    16.467351   0.87555383 
    4300    245.88471    -298.9167    229018.04   -21079.473    1628.5829   -22708.055    17.060563   0.87555383 
    4400    243.05303   -476.11606    229018.04   -21086.418    1609.8277   -22696.246    17.295533   0.87555383 
    4500    244.32615   -343.81887    229018.04   -21122.704      1618.26   -22740.964    17.716036   0.87555383 
    4600    234.94264   -232.83842    229018.04   -21153.051    1556.1097   -22709.161    18.322136   0.87555383 
    4700    239.72491   -264.50234    229018.04   -21181.501    1587.7844   -22769.285     18.71084   0.87555383 
    4800    239.80706   -142.66703    229018.04   -21142.066    1588.3285   -22730.394    18.979281   0.87555383 
    4900    243.59179   -353.65109    229018.04   -21164.286    1613.3961   -22777.682    19.483387   0.87555383 
    5000     240.4803   -179.03427    229018.04    -21190.89    1592.7876   -22783.678    20.057863   0.87555383 
    5100    234.01625     -258.064    229018.04       -21212    1549.9738   -22761.974    20.374402   0.87555383 
    5200    240.52769   -211.87038    229018.04   -21178.562    1593.1014   -22771.664    20.700325   0.87555383 
    5300     236.8979    -357.7292    229018.04   -21222.264      1569.06   -22791.324     21.05895   0.87555383 
    5400    237.68326   -270.14114    229018.04   -21182.278    1574.2618    -22756.54    21.621572   0.87555383 
    5500    233.69584   -176.18541    229018.04   -21210.403    1547.8516   -22758.255    22.052896   0.87555383 
    5600    236.26361   -134.78913    229018.04   -21230.591    1564.8589   -22795.449    22.622338   0.87555383 
    5700    236.52841   -382.20821    229018.04   -21192.824    1566.6128   -22759.436    23.063679   0.87555383 
    5800    245.91682   -362.28528    229018.04   -21109.718    1628.7956   -22738.513    23.554143   0.87555383 
    5900    247.81639   -283.24129    229018.04   -21131.271    1641.3772   -22772.649    24.107113   0.87555383 
    6000    238.00587    -178.1194    229018.04   -21229.493    1576.3986   -22805.892    24.193567   0.87555383 
    6100    243.40955   -42.017595    229018.04   -21214.307    1612.1891   -22826.496    24.437505   0.87555383 
    6200    238.54274   -323.33468    229018.04   -21189.978    1579.9544   -22769.933    24.714964   0.87555383 
    6300    243.15972   -347.40484    229018.04   -21159.117    1610.5344   -22769.652    25.315702   0.87555383 
    6400    242.19106   -228.43778    229018.04   -21149.963    1604.1186   -22754.082    25.543461   0.87555383 
    6500     240.0724   -360.16606    229018.04   -21174.776    1590.0859   -22764.862    25.901981   0.87555383 
    6600    237.92263   -339.85006    229018.04   -21209.082    1575.8472    -22784.93    26.194998   0.87555383 
    6700    235.94216   -249.92716    229018.04   -21248.571    1562.7299   -22811.301    26.540758   0.87555383 
    6800    231.08422   -301.85184    229018.04   -21183.326     1530.554    -22713.88    26.992407   0.87555383 
    6900    234.28399    -188.8447    229018.04   -21215.823    1551.7472    -22767.57    27.262643   0.87555383 
    7000    232.80547   -392.49199    229018.04   -21225.527    1541.9544   -22767.482    27.712472   0.87555383 
    7100    240.11378   -99.641149    229018.04   -21124.362      1590.36   -22714.722    28.067684   0.87555383 
    7200    235.71185   -104.47805    229018.04   -21132.374    1561.2044   -22693.578    28.739103   0.87555383 
    7300    235.97817     -316.968    229018.04   -21207.061    1562.9683    -22770.03    29.060907   0.87555383 
    7400    232.27764   -264.04129    229018.04    -21221.97    1538.4584   -22760.428    29.563881   0.87555383 
    7500    232.80856   -208.85523    229018.04   -21245.774    1541.9749   -22787.749    30.135176   0.87555383 
    7600    229.64458   -202.26325    229018.04   -21250.994    1521.0187   -22772.012    30.714181   0.87555383 
    7700     237.5577   -271.02744    229018.04   -21209.527    1573.4301   -22782.957    31.198983   0.87555383 
    7800    241.71252   -217.92486    229018.04   -21162.713     1600.949   -22763.662    31.696568   0.87555383 
    7900    243.94705   -357.02057    229018.04   -21145.336    1615.7491   -22761.085     31.86395   0.87555383 
    8000    239.31443   -183.40247    229018.04   -21138.192    1585.0656   -22723.258     32.35139   0.87555383 
    8100    238.35181   -301.34293    229018.04   -21165.265    1578.6898   -22743.955    32.363424   0.87555383 
    8200     239.1118   -250.19574    229018.04    -21189.61    1583.7235   -22773.333    32.952431   0.87555383 
    8300    235.28885   -313.00417    229018.04   -21194.502    1558.4027   -22752.905    33.509594   0.87555383 
    8400    234.80767    -376.6052    229018.04   -21208.523    1555.2157   -22763.739     33.97292   0.87555383 
    8500     239.3533   -320.68027    229018.04   -21211.441    1585.3231   -22796.764    34.250336   0.87555383 
    8600    242.22122   -307.26276    229018.04   -21157.035    1604.3183   -22761.353    34.536788   0.87555383 
    8700    235.32238   -160.71169    229018.04   -21232.339    1558.6248   -22790.964    34.757503   0.87555383 
    8800    240.07402   -82.328895    229018.04   -21179.594    1590.0967    -22769.69    35.423004   0.87555383 
    8900    242.44646   -514.43468    229018.04   -21202.582    1605.8102   -22808.392    36.138317   0.87555383 
    9000     242.5479   -428.33009    229018.04   -21153.774    1606.4821   -22760.256     36.99516   0.87555383 
    9100    238.56745   -250.93327    229018.04   -21127.282    1580.1181     -22707.4    37.407245   0.87555383 
    9200    242.22253   -356.62576    229018.04   -21169.706     1604.327   -22774.033    37.788032   0.87555383 
    9300    238.78071   -218.16628    229018.04   -21213.287    1581.5306   -22794.818     38.35507   0.87555383 
    9400    236.18487   -225.59278    229018.04   -21245.619    1564.3374   -22809.957     38.59732   0.87555383 
    9500    230.90368   -277.43102    229018.04   -21205.192    1529.3582   -22734.551    38.722502   0.87555383 
    9600    231.16074   -401.99852    229018.04   -21260.558    1531.0608   -22791.619    39.198296   0.87555383 
    9700    238.67434    -339.1851    229018.04   -21201.587     1580.826   -22782.413    39.825844   0.87555383 
    9800    234.22668   -316.66126    229018.04   -21205.097    1551.3676   -22756.465    40.246441   0.87555383 
    9900    241.20111   -287.81351    229018.04   -21153.752    1597.5618   -22751.314    40.565576   0.87555383 
   10000    245.01587   -248.93477    229018.04   -21076.403    1622.8283   -22699.231    40.560715   0.87555383 
Loop time of 15.0849 on 64 procs for 10000 steps with 8943 atoms

Performance: 286.378 ns/day, 0.084 hours/ns, 662.913 timesteps/s
100.0% CPU use with 64 MPI tasks x no OpenMP threads

MPI task timing breakdown:
Section |  min time  |  avg time  |  max time  |%varavg| %total
---------------------------------------------------------------
Pair    | 0.00053376 | 3.7139     | 12.394     | 210.9 | 24.62
Neigh   | 0.0008403  | 0.2526     | 0.94346    |  62.4 |  1.67
Comm    | 0.023695   | 4.2626     | 12.767     | 190.2 | 28.26
Output  | 0.20225    | 0.20232    | 0.20305    |   0.0 |  1.34
Modify  | 0.26307    | 6.5221     | 14.731     | 240.2 | 43.24
Other   |            | 0.1315     |            |       |  0.87

Nlocal:    139.734 ave 439 max 0 min
Histogram: 26 10 12 0 0 0 0 0 0 16
Nghost:    823.984 ave 1337 max 0 min
Histogram: 8 0 4 0 0 5 23 8 4 12
Neighs:    0 ave 0 max 0 min
Histogram: 64 0 0 0 0 0 0 0 0 0
FullNghs:  14102.5 ave 53808 max 0 min
Histogram: 40 8 0 0 0 0 0 0 6 10

Total # of neighbors = 902558
Ave neighs/atom = 100.923
Neighbor list builds = 578
Dangerous builds = 0
write_data 	    ${DIR}/data.${NAME}_eq
write_data 	    run_30/data.${NAME}_eq
write_data 	    run_30/data.ibeam_cooling_30_eq

undump              1
unfix               4



################################################
#######         Run Simulation         #########
################################################

reset_timestep      0
timestep	    10.0
log                 ${DIR}/log.run_${NAME}
log                 run_30/log.run_${NAME}
log                 run_30/log.run_ibeam_cooling_30
