
# Set production fixes - Nose/Hoover
#
fix                 4 water temp/csvr ${START_TEMP} ${END_TEMP} 500.0 928347
fix                 4 water temp/csvr 240 ${END_TEMP} 500.0 928347
fix                 4 water temp/csvr 240 227 500.0 928347


## divide "droplet" into core and surface
#region		core_reg cylinder z 135 135 44.6 20 INF units box
#region		surface_reg cylinder z 135 135 44.6 20 INF units box side out
#group		core dynamic all region core_reg
#group		surface dynamic all region surface_reg

## compute pressure core
#compute        peratom_core core stress/atom NULL
#compute        p_core core reduce sum c_peratom_core[1] c_peratom_core[2] c_peratom_core[3]
#variable       press_core equal -(c_p_core[1]+c_p_core[2]+c_p_core[3])/(3*1249982.5)


## compute pressure surface
#compute        peratom_surf surface stress/atom NULL
#compute        p_surf surface reduce sum c_peratom_surf[1] c_peratom_surf[2] #c_peratom_surf[3]
#variable       press_surf equal -(c_p_surf[1]+c_p_surf[2]+c_p_surf[3])/(3*42395)

## compute total pressure of drop
compute        peratom water stress/atom NULL
compute        p water reduce sum c_peratom[1] c_peratom[2] c_peratom[3]
variable       press equal -(c_p[1]+c_p[2]+c_p[3])/(3*58301)


# compute order parameter
compute        3 all orientorder/atom nnn NULL cutoff 3.5

# compute center of mass of bridge
compute 	4 water com

# Run simulation
thermo_style        custom step c_2 press vol etotal ke pe v_press c_1[4] c_4[*]
thermo              200
dump		     1 water custom 400 ${DIR}/prod.${NAME}.dump id type x y z vx vy vz c_3[*] c_peratom[*]
dump		     1 water custom 400 run_30/prod.${NAME}.dump id type x y z vx vy vz c_3[*] c_peratom[*]
dump		     1 water custom 400 run_30/prod.ibeam_cooling_30.dump id type x y z vx vy vz c_3[*] c_peratom[*]
run                 ${STEPS}
run                 5200000
Neighbor list info ...
  update every 1 steps, delay 0 steps, check yes
  max neighbors/atom: 2000, page size: 100000
  master list distance cutoff = 6.67472
  ghost atom cutoff = 6.67472
  binsize = 3.33736, bins = 48 11 12
  2 neighbor lists, perpetual/occasional/extra = 1 1 0
  (1) pair sw, perpetual
      attributes: full, newton on
      pair build: full/bin/atomonly
      stencil: full/bin/3d
      bin: standard
  (2) compute orientorder/atom, occasional, copy from (1)
      attributes: full, newton on
      pair build: copy
      stencil: none
      bin: none
Per MPI rank memory allocation (min/avg/max) = 0.9069 | 5.942 | 7.204 Mbytes
Step c_2 Press Volume TotEng KinEng PotEng v_press c_1[4] c_4[1] c_4[2] c_4[3] 
       0    245.01587   -248.93477    229018.04   -21076.403    1622.8283   -22699.231   -504.35113    40.560715    78.594699    15.903532    29.600594 
     200    234.12452   -205.77745    229018.04   -21110.257    1550.6909   -22660.948   -309.84292    42.303887    78.596239    15.901361     29.61396 
     400    242.43393   -279.34223    229018.04   -21118.999    1605.7272   -22724.726    -589.3538    44.685459    78.596785    15.902189    29.599142 
     600    227.61001   -208.22759    229018.04   -21217.947     1507.543    -22725.49   -332.70271    47.093453    78.597486    15.903186    29.619001 
     800    228.84961   -277.80462    229018.04   -21216.414    1515.7533   -22732.167   -628.34481    49.145624    78.597884    15.900949     29.62367 
    1000    241.76864   -494.49682    229018.04   -21054.734    1601.3207   -22656.055   -1418.0716    51.446662    78.597301    15.900198     29.62495 
    1200    234.33464   -418.11371    229018.04   -21116.705    1552.0827   -22668.788   -1138.4743    54.250152    78.597531    15.897675    29.625163 
    1400    244.70883   -157.21605    229018.04   -20972.607    1620.7947   -22593.402    -98.29626    56.678426    78.597898      15.8961    29.621629 
    1600    244.54038   -295.45301    229018.04   -21005.583    1619.6789   -22625.262   -660.32328    58.952857    78.598743    15.894584     29.62479 
    1800    245.20996   -138.90943    229018.04   -21088.356    1624.1138    -22712.47   -28.370792    59.555782    78.599528    15.895434    29.631157 
    2000    244.57096   -213.90559    229018.04   -20969.997    1619.8815   -22589.878   -349.17423     61.09688    78.598354    15.895706     29.60707 
    2200    238.55684   -255.05805    229018.04   -21001.253    1580.0478     -22581.3   -482.63112    63.161717    78.598909     15.89757    29.605789 
    2400    241.69067   -56.912099    229018.04   -21064.271    1600.8043   -22665.076    274.73656    66.122368    78.600052    15.898025    29.613387 
    2600    241.53806   -180.64063    229018.04   -21114.116    1599.7935    -22713.91   -201.59671    67.849696    78.600872    15.900377    29.596278 
    2800    242.72004   -293.05646    229018.04   -21106.419    1607.6222   -22714.041    -653.0407    71.984055    78.602123    15.901212     29.60608 
    3000    241.04343   -265.44865    229018.04    -21183.54    1596.5174   -22780.057   -540.27933    76.338013    78.603481    15.899079    29.609669 
    3200    235.00565   -281.95099    229018.04   -21180.565     1556.527   -22737.092    -655.8996    78.940993    78.603575    15.898325    29.595456 
    3400    233.69526   -397.69184    229018.04   -21145.583    1547.8479   -22693.431   -1087.6679    80.127572    78.601594    15.900288    29.592453 
    3600    239.36421   -277.84602    229018.04   -21129.532    1585.3953   -22714.928   -586.46412     81.77369     78.60132    15.901547    29.583034 
    3800    231.91042   -332.94418    229018.04   -21156.498    1536.0262   -22692.524   -792.05383    84.078313    78.600112    15.901876     29.59595 
    4000    235.89748   -360.79255    229018.04   -21198.713    1562.4339   -22761.147   -945.35887    86.488597    78.599891    15.903941    29.617408 
    4200    237.22672   -332.85218    229018.04   -21113.657    1571.2379   -22684.895    -804.1325      86.4169    78.597716    15.902344    29.614333 
    4400    239.15591    -423.9505    229018.04   -21047.413    1584.0156   -22631.429    -1164.131    87.755843    78.596758     15.89908     29.61528 
    4600    241.25625   -255.34002    229018.04   -21108.585     1597.927   -22706.512    -542.6426    90.739393    78.595829    15.895886    29.617063 
    4800    240.02762   -131.35079    229018.04   -21077.177    1589.7893   -22666.967   -22.806256    93.410224    78.595899    15.891739    29.616125 
    5000    235.91573    -203.8561    229018.04    -21132.53    1562.5548   -22695.085   -328.95064     93.48622    78.596456    15.891118    29.632283 
    5200    235.69201   -271.77826    229018.04   -21079.492     1561.073   -22640.565   -617.26178    94.282551    78.599054    15.891228    29.617479 
    5400    239.96129    -274.8238    229018.04   -21099.061      1589.35   -22688.411   -572.18308    95.030526     78.59963    15.892903     29.61955 
    5600    243.68415   -311.15603    229018.04   -21181.549    1614.0078   -22795.557   -750.45496    94.673808    78.596769    15.892472     29.60713 
    5800    242.63939   -242.09197    229018.04   -21023.047     1607.088   -22630.135   -474.68407     94.82175    78.594988    15.893041    29.620474 
    6000    229.40361   -360.21614    229018.04   -21190.502    1519.4227   -22709.925   -951.70483    96.008642    78.594945    15.893538    29.627083 
    6200    243.02134   -208.25315    229018.04   -21124.813    1609.6178   -22734.431   -317.07172    98.064321    78.594517    15.896206      29.6365 
    6400    242.03946   -337.38719    229018.04   -21104.335    1603.1144    -22707.45   -819.01539    100.50291     78.59487    15.896192    29.642728 
    6600    235.73596   -243.10152    229018.04   -21171.247    1561.3641   -22732.611    -472.0114    100.78273    78.592878    15.900675    29.634664 
    6800    238.50916   -414.87016    229018.04   -21127.157     1579.732   -22706.889   -1118.5312    100.84316    78.593622    15.901999    29.645731 
    7000    232.80817   -162.71736    229018.04   -21205.999    1541.9723   -22747.972   -144.52187     101.3439    78.595682    15.903531    29.642076 
    7200    243.35752   -329.64449    229018.04   -21091.679    1611.8444   -22703.524   -807.49273    102.12769    78.594475    15.905312    29.651137 
    7400    238.00394   -274.10176    229018.04    -21175.73    1576.3858   -22752.116   -546.27031    103.48609    78.593791    15.904567    29.644787 
    7600    236.27166   -246.44754    229018.04   -21218.108    1564.9123   -22783.021   -522.06901    104.98433    78.592309    15.905455    29.638797 
    7800    238.80868   -269.81818    229018.04   -21074.939    1581.7159   -22656.655   -567.19188    107.12349    78.591025    15.905118    29.657992 
    8000    240.40648   -225.62869    229018.04   -21060.094    1592.2987   -22652.393   -368.81502    109.56269     78.59116    15.903888    29.664541 
    8200    236.22304   -310.76192    229018.04   -21136.821    1564.5902   -22701.411    -742.4825    110.83594    78.589159    15.905167    29.670145 
    8400    239.40286   -284.71356    229018.04   -21177.573    1585.6513   -22763.224   -626.15041     111.6965    78.588428    15.906605    29.666737 
    8600    247.73193    -206.3503    229018.04   -21134.449    1640.8177   -22775.266   -317.44638    113.37513    78.590082    15.908928    29.679631 
    8800    241.12287   -298.47313    229018.04   -21146.387    1597.0435    -22743.43    -675.0736    113.77591    78.590488    15.908576    29.676993 
    9000    238.86119   -190.24969    229018.04   -21150.637    1582.0637   -22732.701   -250.36061    112.58444    78.590803    15.905684     29.65308 
    9200    230.42043   -284.21057    229018.04   -21222.112    1526.1575    -22748.27   -655.84786    115.46434    78.590313    15.901547    29.656575 
    9400    232.17363   -321.26407    229018.04   -21285.658    1537.7695   -22823.427   -753.66693    118.18757    78.589182    15.900892    29.664636 
    9600    229.16991    -175.3688    229018.04   -21287.959    1517.8748   -22805.833   -171.64387    118.15596    78.588379    15.900508    29.651672 
    9800    239.74655   -131.88848    229018.04   -21205.072    1587.9277       -22793    0.9200436    119.42894    78.588143     15.89707    29.640969 
   10000    249.85038   -433.50615    229018.04   -21074.853     1654.849   -22729.702   -1212.8887    120.21067    78.587589    15.896866    29.631229 
   10200    240.01753   -321.69429    229018.04   -21112.209    1589.7225   -22701.932   -783.76442    121.28263    78.587516    15.896642    29.607374 
   10400    238.49309   -238.10566    229018.04   -21115.428    1579.6256   -22695.054   -454.36926    122.79929    78.587397    15.896936    29.627429 
   10600    237.18527   -261.35633    229018.04   -21079.797    1570.9634   -22650.761   -508.79938    123.06084      78.5869    15.897834    29.606251 
   10800    241.59746   -467.77323    229018.04   -21084.375    1600.1869   -22684.562   -1374.4204    126.18353     78.58612    15.897862    29.595119 
   11000    239.62904   -327.59638    229018.04   -21140.508    1587.1494   -22727.657   -791.21998    127.40827    78.585808    15.898784    29.607169 
   11200    232.50097   -257.49493    229018.04    -21124.93    1539.9376   -22664.868   -499.08283     129.2224    78.585533    15.898289    29.613392 
   11400    237.47197   -215.32428    229018.04   -21144.648    1572.8624    -22717.51   -325.64485    130.37181    78.583243    15.896096    29.592889 
   11600    240.72529   -385.81039    229018.04   -21112.547    1594.4103   -22706.957    -1032.634    132.66341    78.585257    15.896418     29.58472 
   11800    243.04101   -79.553677    229018.04    -21157.93    1609.7481   -22767.678     198.1218    134.69444    78.585096    15.897398     29.57873 
   12000    246.93742   -430.12978    229018.04   -21100.746    1635.5554   -22736.301    -1184.566    136.65714    78.583261    15.898036    29.577717 
   12200    231.99021   -270.04294    229018.04   -21188.707    1536.5546   -22725.262   -538.67761    136.15587    78.583114    15.898183    29.580135 
   12400    241.77698   -154.13449    229018.04   -21067.814     1601.376    -22669.19    -128.4512    138.29157    78.583333    15.897496    29.587684 
   12600    242.51051   -480.04977    229018.04   -21047.407    1606.2344   -22653.641   -1370.3642    139.27416    78.584255    15.897323    29.603081 
   12800    235.79697   -110.35469    229018.04    -21156.96    1561.7682   -22718.728    73.473972    140.08565    78.582966    15.898364     29.61015 
   13000    240.56235    -408.2627    229018.04   -21172.181    1593.3311   -22765.512   -1072.9841    141.22614    78.583608    15.897612    29.601907 
   13200    239.71772   -244.99983    229018.04   -21133.241    1587.7368   -22720.978   -451.52989    142.03369    78.583862    15.898847    29.579947 
   13400    235.47366   -283.53765    229018.04   -21088.239    1559.6268   -22647.866   -573.30548    144.55856    78.585522     15.89921     29.59209 
   13600    238.70541   -385.94372    229018.04   -21122.722    1581.0318   -22703.753   -1035.0262    146.51515    78.587248    15.898465    29.604469 
   13800    241.52957   -346.77367    229018.04    -21183.32    1599.7373   -22783.057   -844.35822    148.75104    78.588836    15.897613    29.603558 
   14000    240.62891    -255.6309    229018.04   -21182.116    1593.7719   -22775.888    -501.5116    152.48446    78.587441    15.897568     29.57001 
   14200    235.58109   -236.73095    229018.04   -21222.839    1560.3383   -22783.177   -427.04889    156.36018    78.588456    15.900168    29.546063 
   14400    234.41102   -353.16583    229018.04   -21251.159    1552.5886   -22803.748     -907.833    157.20975    78.591457     15.89794    29.541832 
   14600    241.81412     -256.957    229018.04   -21221.958     1601.622    -22823.58   -522.74997    158.12552    78.591458    15.897155    29.572462 
   14800    236.26592   -152.24536    229018.04   -21194.181    1564.8742   -22759.055   -40.517294    159.55005    78.592287    15.894695    29.578877 
   15000    240.96176    -337.3284    229018.04   -21187.377    1595.9765   -22783.354   -837.36337    163.13302    78.591937    15.892981    29.590067 
   15200    238.71317   -300.98301    229018.04    -21251.75    1581.0833   -22832.834   -696.99052    164.44513      78.5909    15.887863     29.55348 
   15400    238.41567   -397.01779    229018.04   -21173.839    1579.1128   -22752.951   -1037.0099     164.5591     78.59116    15.883364    29.549119 
   15600    236.01263   -246.92508    229018.04   -21217.741    1563.1966   -22780.937   -467.42557    166.12221    78.590471    15.878283    29.536996 
   15800    243.35657   -155.05891    229018.04   -21091.514    1611.8381   -22703.352   -120.62486    167.67731    78.590764    15.874658    29.548395 
   16000    239.15098   -332.59104    229018.04   -21159.317     1583.983     -22743.3   -807.28756    170.20511    78.590295    15.874122    29.554242 
   16200    243.14696   -272.66469    229018.04   -21067.766    1610.4498   -22678.216   -562.43912    171.65487    78.588643    15.873689    29.555467 
   16400    245.24885   -182.07859    229018.04   -21068.576    1624.3714   -22692.947   -224.31544    172.18758    78.586781    15.874624    29.575949 
   16600    234.47895   -337.39402    229018.04   -21090.508    1553.0385   -22643.546   -848.36992    171.82034    78.588143    15.872142    29.559449 
   16800     242.6746   -266.73816    229018.04   -21040.812    1607.3212   -22648.133   -531.39518    171.68361    78.590232    15.873236    29.547981 
   17000    242.29583   -170.01099    229018.04   -21056.369    1604.8125   -22661.182   -156.84418    172.35092    78.589265    15.876266    29.539521 
   17200    235.19273   -344.94518    229018.04   -21094.119    1557.7661   -22651.885   -874.05314    172.91984    78.591379    15.875171    29.520901 
   17400    244.98896    -202.3233    229018.04    -21039.94      1622.65    -22662.59   -281.60654    173.39749    78.591226     15.87719    29.512093 
   17600    248.21212   -282.57069    229018.04   -21002.858    1643.9982   -22646.857   -611.39945    175.66465    78.589505    15.875554    29.509616 
   17800    240.66442   -289.03079    229018.04   -21032.398    1594.0071   -22626.405   -642.24188    175.92546    78.590073    15.872011     29.51791 
   18000    243.52933   -307.12807    229018.04   -21058.635    1612.9824   -22671.618   -663.73137     178.5682    78.591756    15.867849    29.523279 
   18200    240.13274   -244.62992    229018.04   -21060.826    1590.4856   -22651.312   -490.34946    180.10086    78.593809     15.86571    29.511169 
   18400    238.65622    -478.8565    229018.04   -21083.209     1580.706   -22663.915   -1371.6379    181.05236    78.594698    15.864458    29.503992 
   18600    239.85646   -399.29539    229018.04   -21047.121    1588.6557   -22635.777   -1057.7069    182.59327    78.595493    15.867718    29.540294 
   18800    242.58181   -346.72989    229018.04   -21081.121    1606.7066   -22687.828   -857.53283    183.65402    78.593795    15.867958    29.536481 
   19000    240.82688   -199.62239    229018.04   -21111.454    1595.0831   -22706.537   -314.21674    183.93261    78.593366    15.869549    29.512076 
   19200    243.78377   -206.92642    229018.04   -21109.363    1614.6677   -22724.031   -319.40427    184.86929    78.593088    15.870319    29.523787 
   19400    242.32526   -225.22097    229018.04   -21045.277    1605.0074   -22650.285   -402.50824    183.98228     78.59388    15.874486    29.524601 
   19600    238.36038   -360.55743    229018.04   -21090.898    1578.7466   -22669.644   -896.22544     185.3359    78.593771     15.87573    29.514537 
   19800    234.18989   -314.64702    229018.04   -21121.206    1551.1239    -22672.33   -768.45802    187.53811    78.594388    15.875465    29.512369 
   20000    233.81268   -230.28748    229018.04   -21150.989    1548.6255   -22699.615   -380.30206    189.58018    78.593468     15.87839    29.522666 
   20200    237.24043   -223.01553    229018.04   -21111.597    1571.3287   -22682.926   -400.80791     191.8604    78.593877     15.88086    29.517751 
   20400    236.30572   -225.16865    229018.04   -21213.382    1565.1379    -22778.52   -391.85738    190.69161    78.595007    15.884422    29.506201 
   20600     239.8019   -250.42598    229018.04   -21168.857    1588.2943   -22757.151   -523.77982    192.57659    78.595049    15.886759    29.494046 
   20800    244.42914   -268.47322    229018.04    -21177.48    1618.9422   -22796.422   -543.64883    194.83299    78.594908    15.888681    29.493068 
   21000     237.1127   -359.22486    229018.04   -21174.631    1570.4828   -22745.114   -870.83453    197.19118    78.592649    15.889888    29.496888 
   21200    242.54107   -487.20937    229018.04    -21104.76    1606.4368   -22711.196   -1389.4583    198.94268    78.591802    15.889648    29.511139 
   21400    233.79287   -334.12838    229018.04   -21176.599    1548.4943   -22725.093   -801.01415    200.97333    78.590056    15.887679    29.500432 
   21600    237.44709   -274.89533    229018.04   -21076.709    1572.6975   -22649.406   -592.95576    201.98579    78.591608    15.884176    29.493659 
   21800    237.80625   -243.47216    229018.04    -21072.49    1575.0764   -22647.566   -459.92226     204.7434    78.591084    15.882611    29.491473 
   22000    238.67434   -255.07557    229018.04   -21092.287     1580.826   -22673.113     -516.277     205.7431    78.590853    15.880996    29.493556 
   22200    240.87442   -375.54865    229018.04   -21112.032    1595.3979    -22707.43   -960.64031    207.86273     78.59116    15.879708    29.494265 
   22400    241.29442   -357.97501    229018.04   -21126.587    1598.1798   -22724.767   -867.37743    209.09888    78.591189    15.879466    29.496616 
   22600    240.47781   -305.24548    229018.04   -21105.915    1592.7711   -22698.686   -722.62967    211.34879    78.588948    15.881287    29.519429 
   22800    239.04843   -298.42286    229018.04   -21116.518    1583.3038   -22699.822   -632.58658    211.13182    78.586845     15.88282    29.495457 
   23000    234.98691    -327.8434    229018.04   -21167.902    1556.4029   -22724.305   -759.24543     212.8413    78.584189    15.882576    29.487454 
   23200    239.93672   -318.26865    229018.04   -21177.963    1589.1873    -22767.15   -762.65037    213.27967    78.583354    15.883839    29.478563 
   23400    238.50543   -377.68946    229018.04   -21088.469    1579.7073   -22668.176   -971.52975    213.34584    78.581774      15.8864    29.482856 
   23600    229.11643   -166.10195    229018.04   -21179.077    1517.5206   -22696.598   -161.12519    215.42986    78.580998     15.88636    29.495789 
   23800     234.6114   -359.77378    229018.04   -21205.215    1553.9157   -22759.131   -897.43478    217.61992    78.581404    15.886653    29.491323 
   24000    238.36212   -337.19832    229018.04   -21106.066    1578.7581   -22684.824   -792.16808    218.41488    78.579592    15.890046    29.484213 
   24200    239.00419   -263.71546    229018.04   -21119.587    1583.0108   -22702.598   -565.77804    219.61589    78.577781     15.89087    29.520684 
   24400    238.21442   -355.95564    229018.04    -21036.15    1577.7799    -22613.93   -893.32883     221.5068    78.574764    15.892714    29.515229 
   24600    244.00057   -298.82295    229018.04   -21082.094    1616.1036   -22698.198   -699.86795    224.26301    78.576465    15.891789    29.518059 
   24800    237.76542    -305.7746    229018.04   -21088.842    1574.8059   -22663.648   -692.02398    223.94313    78.577517    15.889743     29.52024 
   25000    236.28071   -375.28975    229018.04   -21053.348    1564.9722    -22618.32   -976.50764    223.88596     78.57713    15.889807     29.52765 
   25200    241.70964   -295.37495    229018.04   -21038.333    1600.9299   -22639.262   -678.99954    223.67396     78.57526    15.890172    29.512827 
   25400     241.1281   -431.69394    229018.04   -21082.197    1597.0782   -22679.276   -1174.2678    222.99792    78.574704    15.888893    29.532658 
   25600    241.84513   -286.05945    229018.04   -21067.303    1601.8273    -22669.13   -633.08239    225.12195    78.573769    15.889658    29.549892 
   25800    235.54592   -455.82801    229018.04   -21121.915    1560.1054   -22682.021   -1284.2284    227.34088    78.571167      15.8912    29.539595 
   26000    233.56766   -334.85377    229018.04   -21171.633    1547.0026   -22718.636   -794.02742     229.4031    78.573656    15.889297    29.542143 
   26200    238.18425   -372.31873    229018.04   -21100.851      1577.58   -22678.431   -979.63105    231.74001    78.574124    15.892111    29.549043 
   26400    239.60843   -212.68426    229018.04   -21205.418    1587.0129   -22792.431   -379.29945    231.28152    78.573186    15.890561    29.546724 
   26600    236.72687   -52.247979    229018.04   -21123.416    1567.9273   -22691.343    250.28664    232.18829    78.572827    15.890541    29.534528 
   26800    240.19899   -339.06724    229018.04   -21071.278    1590.9244   -22662.202   -841.82917    234.16219    78.570749    15.894108    29.537956 
   27000    236.51793   -236.39962    229018.04   -21082.994    1566.5434   -22649.537   -438.44138    234.21108    78.570299    15.894857    29.524769 
   27200    247.18883   -369.24476    229018.04   -20994.819    1637.2206    -22632.04   -974.71209    235.40569    78.568439    15.893226    29.516757 
   27400    238.39032    -279.0633    229018.04   -21049.362    1578.9449   -22628.307   -603.76567    237.54418    78.569278    15.894343     29.51674 
   27600    241.65005   -174.05154    229018.04   -21082.773    1600.5352   -22683.308    -176.0248    239.72272    78.571186    15.895099     29.49735 
   27800     232.6565   -412.92919    229018.04   -21178.453    1540.9677    -22719.42    -1111.707    241.15123     78.57041    15.894521    29.514577 
   28000     237.6182   -375.66414    229018.04   -21108.981    1573.8309   -22682.812   -993.95779    241.18585    78.568571    15.895249    29.522249 
   28200    248.92973   -275.26734    229018.04   -21072.314    1648.7512   -22721.065   -557.33374    243.04817    78.569541     15.89664    29.525669 
   28400    242.07365      -162.21    229018.04   -21052.116    1603.3409   -22655.456   -187.12278    244.90019    78.573182     15.89589    29.533938 
   28600    237.66966   -346.90792    229018.04   -21041.805    1574.1717   -22615.977    -846.0195    246.91434    78.574467     15.89572    29.540003 
   28800    241.36068   -314.60161    229018.04   -21102.224    1598.6187   -22700.842   -736.91404    247.49555    78.576557    15.894379    29.555638 
   29000    238.81547   -401.78177    229018.04   -21078.499    1581.7608    -22660.26   -1094.9355    246.96164    78.577226    15.890993    29.553456 
   29200    238.40778   -272.70155    229018.04   -21137.336    1579.0606   -22716.396   -590.18775    246.79276    78.575362    15.890721    29.570609 
   29400    239.85351   -250.81254    229018.04    -21079.04    1588.6362   -22667.676   -496.64585     248.4268    78.575091    15.889548    29.569151 
   29600    242.05829   -255.35196    229018.04   -21126.255    1603.2392   -22729.494   -506.73319    250.78947    78.575738     15.88989    29.570237 
   29800    244.11925   -203.81809    229018.04   -21127.956    1616.8897   -22744.845   -289.49983    251.82662     78.57633    15.886124    29.590957 
   30000    237.96598   -266.48494    229018.04   -21129.457    1576.1343   -22705.591   -534.35239     255.6736    78.575422    15.886112     29.59979 
   30200    236.20217   -120.20236    229018.04   -21173.054     1564.452   -22737.506    44.813077    258.51734    78.574783    15.887204    29.582711 
   30400    240.82144   -148.12834    229018.04   -21202.498    1595.0471   -22797.545   -120.23126    258.45173    78.575004    15.886905    29.583208 
   30600    230.27662   -282.57455    229018.04   -21278.822    1525.2049   -22804.027   -668.23439    260.08646    78.576167    15.886018    29.588724 
   30800    237.66762   -289.82243    229018.04   -21203.424    1574.1582   -22777.582   -624.11933    260.41136    78.576974    15.887721    29.590959 
   31000    233.43359   -369.85233    229018.04   -21141.035    1546.1147    -22687.15   -938.90749    261.20013    78.577701    15.887816    29.592608 
   31200    244.78931    -216.4454    229018.04   -21073.519    1621.3277   -22694.847   -344.83417    262.44373    78.579698    15.890797     29.59186 
   31400    246.99229   -304.48881    229018.04   -21091.335    1635.9188   -22727.253   -698.68029    264.61014    78.578328    15.887798    29.620048 
   31600    242.69055   -206.79162    229018.04   -21077.123    1607.4268    -22684.55   -343.15479    266.22589     78.58053    15.885299    29.628493 
   31800    236.14218   -296.54754    229018.04    -21109.09    1564.0547   -22673.145   -664.81898    268.22069    78.580781    15.885856    29.639344 
   32000    246.26859   -291.71405    229018.04   -21112.575    1631.1255   -22743.701   -648.26604     271.4046    78.581419    15.882266    29.655042 
   32200    235.02625   -233.37877    229018.04   -21231.795    1556.6635   -22788.459   -417.96303    274.83676    78.582142    15.879329    29.628054 
   32400    232.88799   -156.81919    229018.04    -21173.49     1542.501   -22715.991   -104.47259    277.21208    78.582368    15.877637    29.625771 
   32600    235.08532    -307.4521    229018.04   -21153.363    1557.0547   -22710.418   -687.72628    278.51255    78.580756    15.878149    29.616153 
   32800    235.08325   -161.61007    229018.04   -21153.023     1557.041   -22710.064   -153.87192    278.27551    78.579992       15.878    29.621338 
   33000    238.66077   -343.15963    229018.04   -21123.149    1580.7362   -22703.885   -881.10148    280.78551    78.580484    15.878575    29.640564 
   33200    237.38143   -278.25549    229018.04   -21127.074    1572.2627   -22699.337   -640.32043    280.47961    78.579831    15.878177    29.649306 
   33400    241.27773   -282.04101    229018.04   -21122.233    1598.0692   -22720.302   -656.99418    281.92227    78.580845    15.878838    29.649352 
   33600    232.66456   -318.47645    229018.04   -21202.553    1541.0211   -22743.574   -785.24709    285.54116    78.580603    15.877767    29.648379 
   33800    240.98875     -233.789    229018.04   -21111.663    1596.1552   -22707.819   -458.83181    287.42564    78.580474    15.878146    29.652616 
   34000     236.6588   -301.26344    229018.04   -21166.255    1567.4764   -22733.732   -719.27023    291.17068    78.578392     15.88097    29.644929 
   34200    240.85741   -250.90646    229018.04   -21146.599    1595.2853   -22741.884   -495.29389    295.43803     78.58046    15.881016    29.629071 
   34400    236.78794   -53.046068    229018.04   -21154.715    1568.3317   -22723.047     268.8921    295.50128    78.580721    15.878479    29.611548 
   34600    234.00637   -212.64287    229018.04   -21125.676    1549.9084   -22675.585   -324.58264    298.20998    78.581924    15.878638     29.60423 
   34800    244.40943   -270.75959    229018.04   -21105.286    1618.8116   -22724.098    -566.6111    300.00401    78.583845    15.880366    29.582753 
   35000    237.91703   -300.45555    229018.04   -21092.119    1575.8101   -22667.929   -710.14658     301.7342    78.584797    15.877849    29.588545 
   35200    242.73359   -322.75559    229018.04   -21093.734    1607.7119   -22701.446   -771.66202     303.0837    78.585784    15.879229    29.579814 
   35400    239.16282   -223.23236    229018.04   -21052.049    1584.0614    -22636.11   -355.13317    303.15093    78.584738    15.876543    29.584163 
   35600    239.34493   -272.80725    229018.04   -21145.786    1585.2676   -22731.053   -559.34231    305.94453    78.586683    15.874988    29.585433 
   35800    243.76223   -482.86077    229018.04   -21072.002     1614.525   -22686.527   -1375.9108    309.16363    78.588246    15.872638    29.573558 
   36000    235.46959   -377.81325    229018.04    -21148.85    1559.5999    -22708.45   -960.17473    308.88417    78.586947    15.871668    29.573416 
   36200    234.86822   -294.92845    229018.04   -21150.783    1555.6167     -22706.4   -624.43009    310.21914    78.586122    15.869372    29.551192 
   36400    240.81407    -257.3534    229018.04   -21090.482    1594.9982    -22685.48   -497.36004    309.19942    78.586941    15.866583    29.545791 
   36600    242.00406   -323.05566    229018.04   -21111.891      1602.88   -22714.771   -805.51408    311.76309    78.586259    15.865927     29.54213 
   36800    242.59415   -353.65668    229018.04   -21103.962    1606.7883   -22710.751   -916.27249    314.65995    78.586797    15.866935    29.533272 
   37000    241.64894     -245.406    229018.04   -21082.632    1600.5279    -22683.16   -468.46622    315.16717    78.587786    15.867723      29.5146 
   37200    235.82802   -267.73582    229018.04   -21217.375    1561.9739   -22779.349   -605.63429     315.0261    78.588721    15.867098    29.521961 
   37400    238.47806   -237.48327    229018.04   -21201.005     1579.526   -22780.531   -417.44048    317.02659    78.589914    15.867461    29.517511 
   37600    241.05524    -223.9391    229018.04   -21130.867    1596.5956   -22727.462   -379.42356    323.36193    78.587767    15.866582    29.525257 
   37800    237.26142   -366.61545    229018.04   -21173.746    1571.4678   -22745.213    -917.5522    325.47862    78.585953    15.868097    29.511826 
   38000    240.18672   -250.81859    229018.04    -21112.06    1590.8431   -22702.903    -453.0181    322.25971    78.587681    15.867248    29.517812 
   38200    237.23821   -122.79913    229018.04   -21103.714    1571.3141   -22675.028    9.0428386     319.5256    78.586643    15.868199      29.5199 
   38400    240.69046   -192.22282    229018.04   -21111.963    1594.1795   -22706.143   -251.16617    319.36904    78.588444    15.868957    29.511137 
   38600    240.68966   -170.43732    229018.04   -21092.422    1594.1742   -22686.597    -155.7183    321.09516    78.588445    15.868116    29.482736 
   38800    234.67343    -373.4438    229018.04   -21088.124    1554.3266   -22642.451   -962.28253    318.81355    78.589007    15.867053    29.474844 
   39000    239.61594   -222.96782    229018.04    -21042.31    1587.0626   -22629.373   -434.63183    319.32377    78.591718    15.867189    29.490466 
   39200    236.04152   -443.85433    229018.04   -21162.517     1563.388   -22725.905   -1287.6993    321.97035    78.592197     15.86676    29.496723 
   39400     239.7978   -184.39633    229018.04   -21138.579    1588.2672   -22726.846   -267.43418    322.96212    78.593853    15.864417    29.477088 
   39600    232.16352   -290.70236    229018.04   -21121.579    1537.7025   -22659.282   -660.00772    323.52006    78.595316    15.861912    29.471264 
   39800    255.18727   -393.00189    229018.04   -20953.356    1690.1972   -22643.553   -1053.1703    326.26882    78.595535     15.86212    29.469905 
   40000    237.43144   -238.03058    229018.04   -21077.235    1572.5939   -22649.828   -437.62681    328.42155    78.595308     15.86179    29.474949 
   40200    228.12858   -300.97605    229018.04   -21151.434    1510.9777   -22662.412   -690.21302    332.44378    78.593014    15.859692     29.48302 
   40400     239.0813   -331.80538    229018.04   -21034.964    1583.5215   -22618.486   -841.24131    331.72068    78.593176    15.857383    29.485425 
   40600    234.51529   -309.41369    229018.04   -21141.678    1553.2791   -22694.957   -676.91907    334.80072    78.593253    15.856627    29.479132 
   40800    239.10971   -203.78568    229018.04     -21120.3    1583.7097   -22704.009   -283.47439    336.67931    78.594348    15.855185    29.453653 
   41000    242.48503   -150.84146    229018.04   -21095.022    1606.0656   -22701.088   -136.37117    337.49693    78.594153    15.853687     29.46445 
   41200     242.6635   -264.31225    229018.04   -21067.272    1607.2477    -22674.52    -548.6884    339.04862    78.595936    15.848833     29.47304 
   41400    241.06068   -344.52833    229018.04   -21095.355    1596.6316   -22691.987    -866.6365     341.4871    78.596102    15.845333    29.490302 
   41600    244.92413   -280.74425    229018.04   -20967.976    1622.2207   -22590.196   -623.97086     346.0647    78.597466    15.846285    29.502792 
   41800    237.55227   -289.03899    229018.04   -21035.688    1573.3942   -22609.082    -697.2429    348.72174    78.596342    15.845633    29.513254 
   42000    236.24339   -275.53427    229018.04   -21032.842     1564.725   -22597.567   -606.67162    353.10555    78.595066    15.846483    29.526922 
   42200    238.35598   -8.8189327    229018.04   -21043.397    1578.7174   -22622.115    457.39202    357.42901    78.595623    15.844521    29.521702 
   42400    244.66949   -195.68461    229018.04   -21096.719    1620.5341   -22717.253   -292.94257    360.69188    78.594478    15.844937    29.526887 
   42600    238.14837   -250.31325    229018.04   -21169.335    1577.3424   -22746.677   -523.53927    364.45543    78.593461    15.846115    29.549212 
   42800    244.62479   -419.45723    229018.04   -21065.098     1620.238   -22685.336   -1201.5792    367.07666    78.592547     15.84568    29.566296 
   43000    245.35172   -425.33845    229018.04   -21006.838    1625.0528   -22631.891   -1210.7244    368.11399    78.592363     15.84511    29.585429 
   43200    241.81372   -267.38768    229018.04   -21077.328    1601.6193   -22678.947   -559.29166    369.14098    78.592818     15.84209    29.576648 
   43400    241.18409   -282.89567    229018.04   -21114.821     1597.449    -22712.27   -650.17508    370.77827    78.592985    15.839732    29.582315 
   43600    239.96033   -428.15863    229018.04   -21148.522    1589.3436   -22737.866   -1183.7492    370.86926    78.592552    15.837704    29.565439 
   43800    246.61207   -365.07572    229018.04   -21124.387    1633.4005   -22757.788   -938.12179     376.3095    78.592995    15.834635    29.578759 
   44000    232.76034   -427.52445    229018.04    -21155.63    1541.6555   -22697.286   -1206.7102     382.5082    78.591962     15.83236    29.578007 
   44200    239.70791   -338.46887    229018.04   -21069.018    1587.6717    -22656.69   -836.81595    383.96206    78.591603    15.830881    29.591464 
   44400    239.13273   -198.73156    229018.04   -21054.334    1583.8622   -22638.197   -300.77221    383.47189     78.59099    15.830988    29.588801 
   44600    236.97083   -527.53787    229018.04   -21062.218    1569.5431   -22631.761   -1582.8946    384.06247    78.592637    15.829643    29.602491 
   44800    233.60273   -291.04955    229018.04   -21112.613     1547.235   -22659.848   -637.46223    385.88807    78.594262    15.827055    29.601403 
   45000    235.20424   -406.62447    229018.04   -21083.929    1557.8424   -22641.772   -1097.2999    388.17931     78.59518    15.828468    29.574951 
   45200    245.93899   -288.77155    229018.04   -20974.864    1628.9425   -22603.806   -627.72919    390.69501    78.594441    15.827869    29.572337 
   45400    245.32723   -249.68417    229018.04   -20955.534    1624.8905   -22580.424   -535.46017     390.9803    78.592618    15.825827    29.555456 
   45600    243.39265    -325.5937    229018.04   -20947.507    1612.0771   -22559.584   -797.15878    395.12449    78.592272    15.824799    29.546596 
   45800    239.21811   -222.23789    229018.04    -21043.43    1584.4277   -22627.858   -381.57486    399.80575    78.593099    15.825403     29.54469 
   46000    244.87807   -211.43964    229018.04   -21072.223    1621.9156   -22694.139   -333.49767    404.07523    78.594379    15.828545    29.534236 
   46200    240.40741   -239.70226    229018.04   -21071.301    1592.3048   -22663.606   -474.82695    405.65106    78.592275    15.826722    29.524636 
   46400    242.44422   -382.89586    229018.04   -21069.326    1605.7953   -22675.121   -1029.7954    407.87269     78.58979    15.826989    29.522117 
   46600    240.93779    -118.3396    229018.04   -21137.268    1595.8177   -22733.086    4.8912782    405.92286    78.587838    15.827318    29.494863 
   46800    240.28034   -380.60672    229018.04   -21058.102    1591.4632   -22649.566   -1024.5426    407.85379    78.587548    15.825386    29.457203 
   47000    240.48303   -345.28977    229018.04   -21011.812    1592.8056   -22604.618   -864.83796    411.10472    78.587475    15.823978    29.437499 
   47200    247.19548   -449.98359    229018.04   -21065.951    1637.2647   -22703.215   -1271.8438    413.78057    78.588919    15.824887    29.428965 
   47400    239.19197   -324.58494    229018.04   -21102.615    1584.2545   -22686.869     -744.834    413.96192    78.586617    15.826252    29.429269 
   47600    243.59088   -223.57235    229018.04   -21068.087      1613.39   -22681.477   -416.00248    415.94833    78.584443     15.82327    29.414613 
   47800     243.2722   -458.00231    229018.04   -21071.239    1611.2794   -22682.519    -1274.632    417.84526      78.5842    15.823451    29.418786 
   48000    242.56409   -228.32535    229018.04   -21074.166    1606.5893   -22680.755   -383.71604    415.11633    78.580822      15.8222    29.407723 
   48200     242.2389   -245.60659    229018.04   -21086.017    1604.4354   -22690.452   -481.54835    411.31001    78.582901    15.822435    29.408802 
   48400    233.93035    -160.7756    229018.04   -21116.729    1549.4049   -22666.134   -125.72638    412.87217    78.583299    15.822821    29.399458 
   48600    239.22853   -298.78674    229018.04   -21124.296    1584.4967   -22708.793   -688.54007    415.04931    78.584423    15.825604    29.382046 
   48800    243.61956   -424.25759    229018.04   -21071.283      1613.58   -22684.863   -1146.0191    418.21759     78.58476    15.829163    29.378292 
   49000     242.6849   -168.36943    229018.04   -21126.329    1607.3894   -22733.718   -191.79773    416.46994     78.58587    15.829931    29.382115 
   49200    234.00379   -140.65737    229018.04   -21125.827    1549.8913   -22675.719   -94.140606    416.78645    78.586104    15.830909    29.391524 
   49400    234.21999   -400.59292    229018.04   -21071.809    1551.3233   -22623.132   -1093.9074    418.29074    78.587082     15.82982    29.400639 
   49600    239.27914   -318.33039    229018.04   -21076.112    1584.8318   -22660.944   -763.15502    418.59403    78.585235    15.825763    29.407858 
   49800    240.79347   -237.04826    229018.04   -21136.151    1594.8618   -22731.013   -466.66912    419.73136    78.586388    15.825784    29.387792 
   50000    239.29628    -265.1975    229018.04   -21141.213    1584.9454   -22726.158   -585.73935    420.64089     78.58792    15.825702    29.380722 
   50200    238.71236    -139.9346    229018.04   -21158.999    1581.0779   -22740.077   -82.009029    421.87953    78.588797    15.824035    29.362319 
   50400    243.42116   -213.22088    229018.04   -21158.448     1612.266   -22770.714   -298.14334    422.64708    78.590085    15.827459    29.346716 
   50600    231.70368   -397.72365    229018.04   -21171.841    1534.6568   -22706.498   -1094.4392    422.85112    78.589084    15.828196    29.345908 
   50800    234.25726   -366.81368    229018.04   -21182.685    1551.5701   -22734.255   -944.65309     422.0735     78.58989    15.828177    29.339071 
   51000    241.86168   -212.30479    229018.04   -21185.435     1601.937   -22787.372   -316.79558     424.6124    78.591698    15.827857    29.338673 
   51200    243.24837   -232.15398    229018.04   -21157.653    1611.1215   -22768.774   -407.77115    422.40931    78.595742    15.828412    29.301814 
   51400    233.72515   -229.16636    229018.04   -21211.496    1548.0458   -22759.542     -415.033    420.02333    78.598881    15.824662    29.296643 
   51600          235   -465.31042    229018.04   -21182.956    1556.4896   -22739.445    -1324.403    420.13195    78.599872     15.82437    29.294563 
   51800    239.52397   -305.04858    229018.04     -21151.5    1586.4535   -22737.954   -691.42005    420.18397    78.600417     15.82331    29.294075 
   52000    239.36326   -333.87935    229018.04    -21122.24     1585.389   -22707.629   -833.66923    419.50374    78.600785    15.822905    29.311468 
   52200    241.20868   -232.94794    229018.04   -21115.173    1597.6119   -22712.785   -450.47296    419.68797    78.599905    15.824419    29.306659 
   52400     240.0322   -322.05525    229018.04   -21160.649    1589.8197   -22750.468   -768.68855    422.26779    78.601978    15.824596    29.317652 
   52600    240.62315   -268.63382    229018.04   -21150.373    1593.7337   -22744.107   -544.69074    424.28042    78.602345    15.826186    29.308445 
   52800    232.74645   -317.59225    229018.04   -21224.682    1541.5635   -22766.246   -728.85743    427.08802    78.601176    15.830355    29.303008 
   53000    236.88652   -190.49725    229018.04   -21171.878    1568.9847   -22740.863   -284.75631    428.04347    78.600843    15.835214    29.331049 
   53200     239.7459   -339.39094    229018.04   -21139.315    1587.9234   -22727.238   -853.28586    427.48137    78.600153    15.839206     29.33066 
   53400    238.25582   -447.26319    229018.04   -21088.022     1578.054   -22666.076   -1265.9651    430.17429    78.599647    15.842634    29.325936 
   53600    237.61863   -354.26807    229018.04     -21111.7    1573.8337   -22685.534   -878.92194    432.26852    78.600892    15.843954    29.324976 
   53800    239.62957   -372.21088    229018.04   -21124.677    1587.1529    -22711.83   -941.24287    434.91167    78.600268    15.848271    29.345562 
   54000    241.87216   -307.31454    229018.04   -21028.053    1602.0064   -22630.059   -687.83754    437.02194     78.59933    15.847176    29.349969 
   54200     239.3683   -243.22343    229018.04   -21115.199    1585.4224   -22700.621   -446.23857    441.50165    78.597056    15.844947    29.357104 
   54400    244.08802   -256.32915    229018.04   -21189.088    1616.6828   -22805.771   -520.79095    445.17609    78.596069    15.845465    29.372256 
   54600    238.78568   -230.83035    229018.04   -21105.872    1581.5635   -22687.435   -414.43061    447.63139    78.595198    15.843359     29.38609 
   54800    241.38155   -218.40382    229018.04   -21090.205    1598.7569   -22688.962   -400.74961    446.19928    78.595169    15.845025    29.372302 
   55000    239.09954   -190.68609    229018.04   -21137.406    1583.6423   -22721.048   -223.18714    446.08878    78.594408    15.841362    29.378592 
   55200    241.68147   -243.18005    229018.04   -21101.039    1600.7434   -22701.782   -470.64573    448.69748    78.594293    15.838653    29.376271 
   55400    243.19938   -105.05225    229018.04   -21090.751     1610.797   -22701.548    128.21295    450.34338    78.596645     15.83882     29.39203 
   55600    246.86109   -389.45153    229018.04   -21069.388    1635.0499   -22704.438   -1025.7663    452.21222    78.598867    15.840375    29.388818 
   55800    242.04211   -308.81741    229018.04   -21118.058     1603.132    -22721.19   -713.97515    449.54875    78.599503    15.839337    29.405337 
   56000    241.70662   -325.27783    229018.04   -21094.653    1600.9099   -22695.563   -779.91537    450.80004    78.599753    15.838097    29.391616 
   56200    244.79665   -190.72517    229018.04   -21090.699    1621.3763   -22712.076   -239.87453    456.13863    78.601092    15.837082    29.405776 
   56400    238.20771   -433.04882    229018.04   -21124.529    1577.7354   -22702.265   -1197.9836    457.79341     78.60062    15.837885     29.41587 
   56600    240.70729    -127.3419    229018.04   -21205.591     1594.291   -22799.882   -17.305539    456.46703    78.601695    15.839115    29.407136 
   56800    233.44769   -389.91241    229018.04   -21172.801    1546.2081   -22719.009   -1016.3691    458.51264    78.602631    15.836655     29.41781 
   57000    232.53548    -301.7126    229018.04   -21254.103    1540.1661   -22794.269   -686.48923    459.90154    78.601508     15.83621    29.416983 
   57200    240.36907   -381.69341    229018.04   -21243.466    1592.0508   -22835.516   -1000.5989    460.92173    78.599028    15.838645    29.420919 
   57400    235.60019    -302.4259    229018.04   -21256.356    1560.4649    -22816.82   -704.77348    459.89996    78.598948    15.841008    29.417361 
   57600     240.2685   -297.96455    229018.04   -21134.233    1591.3848   -22725.618   -647.18855    459.08937    78.598546     15.83947    29.429767 
   57800    242.45443   -257.08176    229018.04   -21140.482    1605.8629   -22746.345   -489.74288    460.03238    78.594947    15.840426    29.417068 
   58000    241.00189    -286.7933    229018.04   -21112.806    1596.2423   -22709.048   -614.09585    459.76051    78.593682    15.839744    29.431714 
   58200    239.76484   -287.72524    229018.04   -21147.744    1588.0488   -22735.793   -592.79866    457.06007    78.593042    15.840937    29.448055 
   58400    239.12579     -251.237    229018.04   -21218.784    1583.8162   -22802.601   -489.38847    458.98324    78.592584    15.841564    29.427599 
   58600    237.08828   -266.70207    229018.04   -21173.491     1570.321   -22743.812   -517.74974    461.12383    78.594378    15.838562    29.417805 
   58800    243.80564   -356.34306    229018.04   -21192.263    1614.8125   -22807.076   -875.82378    460.82707    78.593704    15.839297    29.441481 
   59000    237.90701   -241.76868    229018.04   -21180.716    1575.7438    -22756.46   -409.87353    459.50195    78.591592    15.842038    29.434426 
   59200    231.01499   -400.10279    229018.04   -21162.284    1530.0954   -22692.379   -1071.5174    463.11991    78.589287    15.843005    29.442001 
   59400    239.97693   -157.25592    229018.04   -21126.356    1589.4536    -22715.81   -85.941221     465.7878    78.589587    15.843277    29.428864 
   59600    247.06137   -231.37002    229018.04   -21045.644    1636.3764   -22682.021    -383.2678    466.59015    78.591675    15.845762    29.437089 
   59800     247.7181   -201.13379    229018.04   -21064.204    1640.7262    -22704.93   -274.61819    469.52896    78.592762     15.84551    29.430736 
   60000    236.08081   -309.26228    229018.04   -21165.194    1563.6482   -22728.842   -709.14096    470.22323    78.592631    15.846663    29.429206 
   60200    241.38633   -421.01419    229018.04   -21105.419    1598.7885   -22704.208   -1134.7479    473.91361    78.593951    15.849524    29.429057 
   60400    238.27622   -313.62396    229018.04   -21177.446    1578.1892   -22755.635   -708.03979    476.06332     78.59478    15.851179    29.431463 
   60600    237.66176   -261.32638    229018.04    -21189.01    1574.1194   -22763.129   -526.93294    473.91178      78.5942    15.853031    29.413102 
   60800    231.82737   -341.76204    229018.04    -21226.12    1535.4761   -22761.596   -827.94702    473.46631    78.592792    15.853075    29.387204 
   61000     235.9721   -380.84014    229018.04   -21215.301    1562.9282   -22778.229   -949.39231    475.58715    78.591001    15.851843    29.393623 
   61200    226.98036   -291.97311    229018.04   -21259.065    1503.3726   -22762.438   -597.00699    478.58232    78.589103    15.852658    29.376454 
   61400    235.27374   -188.20564    229018.04   -21175.236    1558.3027   -22733.539   -191.47776    480.68668    78.587563    15.852532    29.398274 
   61600    236.64823   -253.80727    229018.04   -21158.713    1567.4064   -22726.119   -442.12705    483.82232    78.586268    15.851271    29.368891 
   61800    242.31244   -272.97512    229018.04   -21065.803    1604.9225   -22670.725   -562.39554    483.01807    78.585741    15.852941    29.358009 
   62000    237.60966   -259.86282    229018.04   -21171.542    1573.7743   -22745.317   -487.03985    485.44546    78.585226    15.852653    29.363706 
   62200    240.57511   -262.08448    229018.04   -21110.061    1593.4156   -22703.477   -515.09633    485.07269    78.582492    15.852333    29.365969 
   62400    245.16687   -248.22531    229018.04   -21053.187    1623.8284   -22677.016   -421.24064    485.94515    78.583579     15.85247    29.400002 
   62600    241.43778   -336.54826    229018.04   -21087.246    1599.1293   -22686.375   -792.93488    489.95708     78.58423    15.856019    29.396571 
   62800    246.82337   -339.53035    229018.04   -21108.148       1634.8   -22742.948   -835.62857    492.16274    78.584184      15.8562    29.412659 
   63000    241.73876   -199.61629    229018.04   -21148.118    1601.1228   -22749.241   -282.25872    490.58198    78.584217    15.858193    29.442252 
   63200    237.11753   -290.57813    229018.04    -21274.94    1570.5147   -22845.455   -630.64415    489.89599    78.586243    15.860396    29.438401 
   63400    241.69336   -244.73065    229018.04   -21160.354    1600.8221   -22761.176   -404.80802    490.92701    78.587913    15.861979    29.435176 
   63600    246.27099   -257.53835    229018.04   -21164.441    1631.1414   -22795.583   -498.89488    489.92067    78.589225    15.861349    29.426679 
   63800    243.91548   -432.56952    229018.04   -21133.493      1615.54   -22749.033   -1156.5753     489.3129    78.589658    15.858302    29.404539 
   64000    238.47859   -377.55619    229018.04   -21197.763    1579.5296   -22777.292   -978.96592    488.57207    78.591142    15.858303    29.412405 
   64200    238.11859   -483.25975    229018.04   -21185.746    1577.1451   -22762.891   -1365.5828    488.93508    78.593828    15.857343    29.396012 
   64400    242.15099   -395.42476    229018.04   -21141.328    1603.8532   -22745.182    -1043.874    491.93508    78.595682    15.858745    29.377136 
   64600    238.99145   -328.26629    229018.04   -21170.528    1582.9264   -22753.454   -780.70392    492.80736    78.597957    15.858825    29.368069 
   64800    243.02251   -312.54049    229018.04   -21055.735    1609.6256   -22665.361   -721.02106    494.14661    78.597214    15.860083    29.348012 
   65000    238.37866   -255.65349    229018.04   -21100.882    1578.8677    -22679.75   -518.45366    495.33878    78.596986    15.859387    29.342795 
   65200    240.00591   -420.79247    229018.04   -21109.437    1589.6455   -22699.082    -1133.071    496.82469    78.597813    15.859209    29.336894 
   65400    246.02165   -273.35394    229018.04   -21002.746    1629.4899   -22632.236    -543.2329    498.22567    78.597561    15.859309    29.335916 
   65600    248.27853   -277.00886    229018.04   -21040.841     1644.438   -22685.279   -577.64379    496.92854    78.597406    15.857414    29.339179 
   65800    239.38833   -531.90193    229018.04   -21112.427    1585.5551   -22697.982   -1575.2994    500.76535    78.598212    15.856541    29.299548 
   66000    239.39102   -218.61278    229018.04   -21153.722    1585.5729   -22739.294   -319.61463    502.02011    78.598809    15.859424    29.293723 
   66200    245.02539   -237.59127    229018.04   -21110.007    1622.8914   -22732.898   -428.92377    505.43447    78.599482     15.86263    29.264621 
   66400    229.25999   -278.50128    229018.04   -21182.689    1518.4714   -22701.161   -583.50407    504.66084    78.602077    15.862849    29.256456 
   66600    238.10882    -320.9093    229018.04   -21127.353    1577.0804   -22704.434   -763.53076    506.85737    78.600204     15.86242    29.284016 
   66800    235.48105   -379.22264    229018.04   -21173.871    1559.6758   -22733.547   -989.43759    508.24399    78.599329    15.862894    29.276866 
   67000    238.70097   -366.18824    229018.04    -21132.58    1581.0024   -22713.582   -926.54903     504.2558    78.602311    15.862858    29.238649 
   67200    235.74009   -305.07158    229018.04   -21164.696    1561.3914   -22726.087   -690.93319    507.20527    78.602181    15.863173    29.231907 
   67400    242.63033   -280.44925    229018.04   -21111.607     1607.028   -22718.635   -572.98807    512.05701    78.602591    15.862574    29.229304 
   67600     235.2224   -478.94285    229018.04   -21160.189    1557.9626   -22718.151   -1349.3537     513.9422    78.605616      15.8603    29.234514 
   67800     237.5811   -356.36917    229018.04   -21148.681    1573.5852   -22722.266   -902.62386    514.53891    78.606529     15.86007    29.253132 
   68000    240.10269   -212.77877    229018.04   -21152.809    1590.2865   -22743.096   -342.38842    515.39431    78.606172    15.857737    29.255504 
   68200    235.70619   -190.41216    229018.04   -21184.807     1561.167   -22745.974     -245.662    514.61615    78.606378    15.857797    29.277521 
   68400    241.10041   -273.35623    229018.04   -21053.662    1596.8948   -22650.556   -536.95068     512.8244    78.606721      15.8586    29.255611 
   68600    245.42302   -314.22764    229018.04    -21096.75     1625.525   -22722.275   -788.45762    513.40468    78.606085    15.856208    29.281842 
   68800    242.99184   -149.70272    229018.04   -21058.578    1609.4224       -22668   -86.423991    514.23568    78.608155     15.85595    29.301891 
   69000    244.28543   -225.89487    229018.04   -21066.003    1617.9903   -22683.993   -424.45359    516.04589    78.609352    15.856761    29.313269 
   69200    238.53104    -324.3659    229018.04   -21109.941     1579.877   -22689.818   -766.15653    517.29467    78.610748     15.85501    29.316375 
   69400     241.6909   -223.85825    229018.04   -21139.317    1600.8058   -22740.123   -405.90645    519.38073    78.610147    15.855057    29.333596 
   69600    245.94695   -240.99647    229018.04    -21146.91    1628.9952   -22775.905   -450.26353    520.48265    78.610311    15.855274    29.337555 
   69800     241.5027   -237.41345    229018.04   -21128.958    1599.5593   -22728.518   -403.52389     518.0665      78.6102    15.855553    29.327012 
   70000    236.90622   -291.13815    229018.04   -21184.331    1569.1151   -22753.446   -629.70401    517.18439    78.610701    15.854919    29.318799 
   70200    236.16987   -430.30303    229018.04   -21171.339    1564.2381   -22735.577   -1199.3279    517.61719    78.611183    15.853926    29.299212 
   70400    235.00041   -327.42711    229018.04   -21173.576    1556.4923   -22730.069   -765.36804    518.29009    78.610922    15.854394    29.284048 
   70600     242.0472   -429.13393    229018.04   -21134.826    1603.1657   -22737.992    -1213.435    521.33476    78.612585    15.853397    29.309463 
   70800     234.0281   -258.99573    229018.04   -21184.284    1550.0523   -22734.337   -522.31872    520.79592    78.612032    15.851136    29.302158 
   71000    239.76823   -131.70018    229018.04   -21128.165    1588.0713   -22716.236   -26.692027    522.30376    78.613232    15.848576    29.315053 
   71200    243.02726   -331.03721    229018.04   -21017.222     1609.657   -22626.879   -807.72438    523.81294    78.614338    15.846197    29.335348 
   71400    237.04622   -451.97855    229018.04   -21081.543    1570.0424   -22651.585   -1282.8504    525.25872    78.614385     15.84544    29.340832 
   71600     242.4037   -242.41869    229018.04   -21094.876     1605.527   -22700.403   -502.08386    527.10628    78.614895    15.842289    29.329748 
   71800    242.41558   -260.06201    229018.04   -21100.518    1605.6056   -22706.124   -571.24833    527.63552    78.614101    15.845036     29.34074 
   72000    239.22655   -293.89482    229018.04    -21140.91    1584.4836   -22725.394   -688.00265    528.35585    78.615425    15.846531    29.350526 
   72200    237.12146   -309.97412    229018.04   -21144.792    1570.5408   -22715.333   -714.60263    529.08439     78.61532    15.847282    29.341904 
   72400    241.46687    -347.6169    229018.04   -21090.894     1599.322   -22690.216   -926.05877    531.58099       78.614    15.847906    29.371716 
   72600    238.17205   -281.84891    229018.04    -21075.97    1577.4992   -22653.469     -657.578    531.76475    78.614145    15.849108    29.393842 
   72800    243.83518   -259.33905    229018.04   -21135.573    1615.0082   -22750.581   -527.67091    536.88702    78.611771    15.848105     29.41026 
   73000    235.01497   -303.92187    229018.04   -21164.181    1556.5888    -22720.77   -669.63312    538.57402     78.61033     15.85012    29.404039 
   73200    243.47046   -207.73646    229018.04   -21083.407    1612.5925       -22696   -342.37875     541.0249     78.61313    15.851923    29.411788 
   73400    243.20882    -311.9525    229018.04   -21072.386    1610.8596   -22683.245   -760.33548    541.68886    78.613905    15.852757    29.441058 
   73600    233.55877   -224.13852    229018.04    -21107.51    1546.9438   -22654.454   -406.64438    540.01154    78.611488    15.854906    29.448056 
   73800     242.2428   -315.49404    229018.04   -21057.125    1604.4613   -22661.586    -791.3302    541.16831    78.611817    15.856483    29.437035 
   74000    245.02232   -330.80702    229018.04   -20983.724     1622.871   -22606.595   -807.51315    539.87883    78.611228    15.856502     29.42828 
   74200    241.14481   -204.42578    229018.04   -21083.211    1597.1889     -22680.4   -295.77936    540.04599     78.61133     15.85571    29.414125 
   74400    236.45772   -107.56981    229018.04   -21120.109    1566.1446   -22686.254    15.058836    538.24398    78.610657    15.854018    29.402319 
   74600    243.79514   -204.70506    229018.04   -21171.874     1614.743   -22786.617   -308.68488    539.60888    78.609221    15.855356    29.415079 
   74800    239.05188   -301.36563    229018.04   -21114.492    1583.3266   -22697.819   -704.11042    538.86266    78.609932    15.857971     29.40599 
   75000    234.87429   -333.59652    229018.04   -21127.842     1555.657   -22683.499    -800.3243     539.5544    78.608714    15.857041    29.423257 
   75200    241.29808   -321.47372    229018.04   -21112.988     1598.204   -22711.192   -781.23843    538.37586    78.607486    15.855909    29.424989 
   75400    243.36288   -336.54537    229018.04   -21070.443    1611.8799   -22682.323   -849.21706    537.78402    78.606879    15.855289    29.430863 
   75600    247.17884   -269.92642    229018.04   -21092.869    1637.1544   -22730.024   -593.59092    539.91014    78.607843    15.855866    29.421121 
   75800    241.62232   -174.92615    229018.04   -21121.048    1600.3516     -22721.4   -233.47199     541.1945    78.605436    15.852253    29.418314 
   76000    238.17211    -332.2498    229018.04   -21105.698    1577.4996   -22683.198   -834.94177    544.29696    78.607239    15.850283    29.411017 
   76200    238.59512   -261.23109    229018.04   -21160.203    1580.3014   -22740.504   -563.77325    544.15679     78.60862    15.850144     29.38968 
   76400    233.39827   -520.41013    229018.04    -21169.04    1545.8807   -22714.921   -1518.6884    543.66008    78.608916    15.850769    29.394558 
   76600     238.9481   -365.86155    229018.04   -21115.402    1582.6393   -22698.041   -943.56787    543.71969    78.608751    15.852521    29.396304 
   76800    245.24154   -425.32837    229018.04   -21038.724     1624.323   -22663.047    -1163.467    547.07184    78.610113    15.851891    29.400094 
   77000    243.77865   -295.49687    229018.04   -21150.079    1614.6337   -22764.713    -628.3604     547.9046    78.608315    15.851999    29.402296 
   77200    233.25188   -268.90203    229018.04   -21152.717    1544.9111   -22697.628   -554.95783    550.33557     78.60895     15.85321    29.403457 
   77400    237.21738   -338.28154    229018.04   -21155.699    1571.1761   -22726.876   -782.51523    551.61125    78.608385    15.851227     29.39221 
   77600     235.7331   -28.943734    229018.04   -21160.758    1561.3452   -22722.103    382.67096     551.6003    78.606436    15.852824    29.384196 
   77800    235.21768   -365.52727    229018.04   -21160.381    1557.9313   -22718.313   -910.33632    554.32267    78.605521    15.850509    29.360493 
   78000    239.77824   -307.72923    229018.04   -21211.664    1588.1376   -22799.802   -722.53289    554.01132    78.605275    15.849109     29.33978 
   78200    240.55381   -234.49979    229018.04   -21151.301    1593.2744   -22744.575   -434.69109    557.10703    78.604616    15.849199    29.333366 
   78400    240.92188   -236.82185    229018.04   -21142.083    1595.7124   -22737.795   -442.79868    555.69691    78.602028    15.850168    29.364982 
   78600    234.63116   -112.62064    229018.04   -21202.329    1554.0466   -22756.376    48.706709    559.41265    78.600702    15.848538    29.362325 
   78800    240.41326   -218.15388    229018.04   -21185.707    1592.3435   -22778.051   -330.76008    564.54907    78.600288    15.851047    29.359365 
   79000    240.17365    -122.5394    229018.04   -21150.877    1590.7565   -22741.634    1.0809374    567.16307    78.601061     15.84923    29.357695 
   79200    242.63349   -231.36807    229018.04   -21145.845     1607.049   -22752.894   -378.68161    567.71948    78.600755    15.848193    29.346127 
   79400     231.8975   -224.99234    229018.04    -21197.61    1535.9406   -22733.551   -364.14002    566.31215    78.599726    15.847469     29.33697 
   79600    239.83606   -169.97183    229018.04   -21171.214    1588.5206   -22759.735   -144.63685    566.20621    78.600843    15.847763    29.318402 
   79800     242.6702    -345.4325    229018.04   -21166.489    1607.2921   -22773.781   -821.06632    566.86555    78.600701    15.847885     29.32228 
   80000    237.32117   -232.24832    229018.04   -21187.059    1571.8636   -22758.922   -406.23006    565.47575    78.601546    15.848279    29.328168 
   80200    235.77584   -111.70074    229018.04   -21177.258    1561.6282   -22738.886    60.382552    567.98239    78.602221    15.848691    29.343871 
   80400    225.41201   -293.85554    229018.04   -21241.317    1492.9849   -22734.302   -669.45319    574.22308    78.603176    15.850522    29.337385 
   80600    244.62418   -348.86115    229018.04   -21052.089     1620.234   -22672.323   -873.85453    576.98438    78.601894    15.849751    29.337071 
   80800     239.0418   -334.41658    229018.04    -21146.61    1583.2599    -22729.87   -810.35315    579.66282    78.601966    15.849357    29.322408 
   81000    245.76646   -461.46385    229018.04   -21041.452    1627.7997   -22669.252   -1337.6122    578.52784    78.601772    15.850722    29.291816 
   81200    246.74485   -335.83374    229018.04   -21035.861    1634.2799   -22670.141   -823.97216    578.12484    78.601409    15.850908    29.294314 
   81400    232.69044    -244.7906    229018.04   -21088.893    1541.1925   -22630.085   -482.81601    575.30704     78.60121    15.851408    29.310272 
   81600    241.73662   -308.72952    229018.04   -20980.696    1601.1087   -22581.805   -715.13566    575.28335    78.601574    15.851019    29.281565 
   81800    241.60121   -250.91123    229018.04   -20985.569    1600.2118   -22585.781   -490.59525    572.37543    78.602258    15.852704    29.300568 
   82000    246.39149    -293.1923    229018.04   -20959.069    1631.9395   -22591.008   -658.16175    572.84335    78.604264    15.853253    29.314202 
   82200    239.23772   -378.45738    229018.04   -21085.689    1584.5575   -22670.247   -978.99109     574.7349     78.60545    15.854306    29.313866 
   82400    238.83775    -337.9586    229018.04   -21110.706    1581.9084   -22692.614   -851.56811    577.29289    78.605005    15.857853    29.316917 
   82600    239.05623   -352.49965    229018.04   -21084.008    1583.3554   -22667.364   -881.14113    579.06379    78.604316      15.8619    29.297896 
   82800    234.07103   -355.71575    229018.04   -21087.277    1550.3367   -22637.614      -889.22    578.76036    78.602925    15.862593    29.306952 
   83000    239.89835     -379.573    229018.04   -21112.588    1588.9331   -22701.521   -1006.2877    578.68538    78.603698    15.866647    29.287444 
   83200    235.43666   -328.20317    229018.04   -21162.095    1559.3817   -22721.476   -783.00298     580.1864    78.603231    15.867622    29.282974 
   83400    237.92957   -326.65444    229018.04   -21179.798    1575.8932   -22755.691   -794.63935    582.92162    78.603203     15.86838    29.296736 
   83600     236.6339   -255.13493    229018.04   -21176.574    1567.3115   -22743.885     -506.638    587.46867    78.602575    15.868466    29.295326 
   83800    242.48784   -333.13144    229018.04   -21209.947    1606.0843   -22816.032   -803.91688    587.50133    78.599274    15.866971    29.313794 
   84000    239.20038   -328.89614    229018.04   -21210.698    1584.3102   -22795.008   -765.06199    585.60137    78.599994    15.866075    29.310124 
   84200    235.04792    -311.3947    229018.04   -21204.925     1556.807   -22761.731   -710.65963    588.20584    78.598587    15.864431    29.340868 
   84400    240.55568   -547.89797    229018.04   -21159.849    1593.2868   -22753.136   -1610.3108    589.83719    78.597192    15.864914    29.338392 
   84600    233.80477   -412.97362    229018.04   -21182.168    1548.5731   -22730.741   -1114.4765    591.20477    78.596216    15.867768     29.34212 
   84800    235.36633   -272.94033    229018.04   -21224.147    1558.9159   -22783.063   -551.80971    591.24248    78.596478    15.867841    29.357252 
   85000    233.39511   -335.50107    229018.04   -21131.734    1545.8598   -22677.594   -794.83097    592.61877    78.597318    15.869312    29.373682 
   85200    246.87813   -403.55616    229018.04   -21105.752    1635.1627   -22740.915    -1088.073    593.75511    78.599395    15.871473    29.356153 
   85400    240.95985   -54.476946    229018.04   -21150.667    1595.9638   -22746.631      282.463    593.58526    78.599979    15.871451    29.350634 
   85600    235.77315   -435.03095    229018.04   -21123.803    1561.6104   -22685.413   -1165.3761     596.2432    78.600639    15.873647      29.3574 
   85800    240.26778    -168.8742    229018.04   -21109.501      1591.38   -22700.881   -146.80768    597.67932    78.601798    15.873871    29.350069 
   86000    248.79375   -403.43101    229018.04   -21071.825    1647.8505   -22719.676   -1104.6411    599.88845    78.603827    15.873783    29.335404 
   86200    240.16743   -265.89975    229018.04   -21095.203    1590.7153   -22685.918   -506.58165    601.06635    78.606175    15.870452    29.318898 
   86400     238.8495   -217.05458    229018.04   -21110.096    1581.9862   -22692.082   -344.32292    602.62739     78.60713    15.866771    29.326524 
   86600    238.38582   -184.15257    229018.04   -21078.902    1578.9151   -22657.817   -200.76215    601.79342    78.607966    15.862354    29.309868 
   86800    243.95548   -313.21405    229018.04   -21139.156     1615.805   -22754.961   -747.08065    604.60786    78.608111    15.862628    29.292933 
   87000    238.75306   -505.01664    229018.04   -21137.561    1581.3475   -22718.909   -1457.5599     606.6099    78.607645    15.863261    29.307567 
   87200    239.61635   -277.23528    229018.04   -21081.767    1587.0653   -22668.833   -606.98509    604.20016    78.607503    15.862026    29.303521 
   87400    251.01461   -432.28934    229018.04   -21119.038    1662.5601   -22781.598   -1211.2749    605.42407    78.607108     15.86198    29.325298 
   87600    241.94577   -353.40121    229018.04   -21067.785    1602.4939   -22670.279   -919.14263    607.58732    78.604254    15.860127    29.319953 
   87800    237.81009   -171.07688    229018.04   -21209.222    1575.1018   -22784.323   -156.68292    607.55984    78.604222    15.856693    29.327021 
   88000    241.73144   -300.37675    229018.04   -21033.294    1601.0743   -22634.369   -688.26316    608.71232    78.602162    15.855045     29.33013 
   88200    241.18307   -216.33877    229018.04   -21012.843    1597.4423   -22610.285   -330.32487    606.55903     78.60131    15.853517      29.3483 
   88400    242.00365   -291.07078    229018.04   -21060.484    1602.8773   -22663.361   -647.90956    606.06438     78.60169    15.853043     29.34628 
   88600    234.91327   -249.32329    229018.04    -21158.13    1555.9151   -22714.045   -526.40697    607.88567     78.60151    15.855487    29.345063 
   88800    232.26738   -314.31734    229018.04   -21178.652    1538.3904   -22717.042    -709.3755    611.63352    78.600589    15.854433    29.362779 
   89000    237.32633   -323.96743    229018.04   -21201.359    1571.8977   -22773.257   -778.39201    612.97067    78.601662    15.851734    29.375866 
   89200    237.55621   -465.78638    229018.04   -21153.655    1573.4203   -22727.075   -1352.7047    616.83247    78.601331     15.85267    29.378673 
   89400    244.03277   -260.62959    229018.04   -21114.357    1616.3168   -22730.673   -544.28291    612.62936    78.603381    15.853158    29.391005 
   89600    235.97481    -319.1751    229018.04    -21225.86    1562.9461   -22788.806   -757.63805    616.22535    78.604067    15.853341    29.397975 
   89800     234.3479   -448.41396    229018.04   -21167.446    1552.1705   -22719.616   -1250.6954    620.54336    78.604149    15.854197     29.40983 
   90000    242.94559   -392.85963    229018.04   -21106.171    1609.1161   -22715.287   -1028.2472    622.33983    78.605001    15.855905    29.426671 
   90200    235.31899    -313.1657    229018.04   -21129.413    1558.6024   -22688.016   -763.85255    626.25883    78.604041    15.857059       29.436 
   90400    238.31586   -327.92974    229018.04   -21192.824    1578.4517   -22771.276   -776.16119    629.04221    78.603252    15.855295    29.445023 
   90600    240.69135   -284.22111    229018.04   -21182.893    1594.1854   -22777.078   -660.25967    629.07083    78.603601    15.855605    29.457192 
   90800    245.23655   -294.10749    229018.04   -21060.534    1624.2899   -22684.824   -638.11163    630.49354    78.602932    15.854477    29.473073 
   91000    239.91924   -387.02123    229018.04   -21123.295    1589.0715   -22712.366   -1010.6093    629.71621    78.603922     15.85416    29.489984 
   91200    232.87852    -182.0463    229018.04    -21148.76    1542.4382   -22691.198   -216.39475    631.17486    78.606638    15.856111    29.502465 
   91400    236.05586   -322.81533    229018.04   -21108.556    1563.4829   -22672.039   -780.63085    629.92482    78.609598    15.856022    29.529241 
   91600    237.19819   -284.10423    229018.04   -21103.613     1571.049   -22674.662   -618.92277    631.20969    78.611149    15.856589    29.531501 
   91800    243.62308    -518.6292    229018.04   -21072.533    1613.6034   -22686.136   -1583.2338    632.05923    78.612059    15.858354    29.533467 
   92000    236.73747   -172.34517    229018.04     -21141.8    1567.9975   -22709.798   -180.00123    630.87974    78.612779    15.858383    29.534883 
   92200    242.91919   -321.18925    229018.04   -21169.226    1608.9412   -22778.167   -770.84733    632.16166    78.613828    15.855626    29.526994 
   92400    236.50409   -201.93685    229018.04   -21111.727    1566.4517   -22678.178   -316.11847     632.2216    78.617122    15.854863    29.511569 
   92600    242.05214   -227.91345    229018.04    -21071.76    1603.1985   -22674.958   -445.18848     633.2132    78.617616    15.853035    29.506611 
   92800    238.25423   -205.97383    229018.04   -21174.606    1578.0435   -22752.649   -344.68988     635.3786    78.619335    15.853584    29.495085 
   93000     235.5871   -121.34481    229018.04   -21227.367    1560.3781   -22787.745    44.208915    638.35198    78.619456    15.854582    29.467207 
   93200    242.44469   -391.60654    229018.04   -21106.697    1605.7985   -22712.496    -1052.065    641.17014     78.61906    15.854859    29.485858 
   93400    239.84603   -220.24016    229018.04   -21180.101    1588.5866   -22768.687   -406.70092    643.80154    78.621532    15.852731    29.502653 
   93600    237.02117   -384.92039    229018.04   -21155.917    1569.8766   -22725.793   -1022.9756    646.90317    78.622017     15.85241    29.505885 
   93800    241.69774   -256.90316    229018.04   -21054.843    1600.8511   -22655.694    -572.4725    644.80272    78.623265    15.851912    29.507772 
   94000    242.03981   -262.67237    229018.04   -21070.208    1603.1168   -22673.325   -576.63122    646.57688    78.622893    15.850728    29.520427 
   94200    241.26212   -396.04646    229018.04   -21102.363    1597.9659   -22700.329   -1059.0949    653.12029    78.621462    15.850888      29.5348 
   94400     244.1829   -252.87002    229018.04   -21024.143    1617.3112   -22641.454   -546.93085    655.26647    78.623011     15.85276    29.551877 
   94600    243.69654   -234.37571    229018.04   -21074.357    1614.0899   -22688.446   -437.58235    652.85272     78.62235    15.854916     29.54661 
   94800    241.22442   -376.29693    229018.04   -20988.206    1597.7161   -22585.922   -989.57639    651.10579    78.621534    15.855483     29.52682 
   95000    244.14223   -324.09859    229018.04   -21002.008    1617.0419    -22619.05   -791.70797    653.91082    78.621498    15.855857    29.543418 
   95200    239.38205   -263.71204    229018.04     -21108.6    1585.5135   -22694.113   -559.42178    655.42903    78.621583    15.855614    29.532634 
   95400    238.12805   -49.127017    229018.04   -21116.759    1577.2078   -22693.967    324.21477    655.85704    78.621646    15.856584    29.516904 
   95600    236.65066   -281.23851    229018.04   -21116.501    1567.4225   -22683.923   -581.72505    659.61506    78.624046    15.854393    29.505927 
   95800      244.957   -316.34033    229018.04   -21095.233    1622.4384   -22717.671   -743.07548    660.61909     78.62172    15.852627    29.509247 
   96000    237.69678   -237.05389    229018.04   -21177.919    1574.3513   -22752.271   -437.68855    661.41053    78.620649    15.853664    29.503577 
   96200    233.05399   -200.52294    229018.04   -21222.093    1543.6004   -22765.693   -326.09034    661.15183    78.620164    15.854735    29.506852 
   96400    237.89579   -353.81019    229018.04   -21110.426    1575.6695   -22686.095   -864.17805     663.7345    78.620885    15.853245    29.506897 
   96600    233.91592   -157.12556    229018.04   -21202.616    1549.3094   -22751.925   -116.60984    665.97664    78.621937    15.849311    29.498868 
   96800    232.41222   -312.65773    229018.04   -21170.973    1539.3498   -22710.322   -724.23145    669.13149    78.622165    15.851607    29.506478 
   97000    240.23047   -251.76658    229018.04   -21114.733    1591.1329   -22705.866   -496.67048    669.85006    78.622529    15.852653    29.535472 
   97200    246.96903   -326.27799    229018.04   -21050.842    1635.7648   -22686.606   -767.62068    670.60233    78.623602    15.852232    29.545391 
   97400    238.64617   -175.07016    229018.04   -21047.759    1580.6395   -22628.399   -177.03823     669.3754    78.625772    15.853317    29.544217 
   97600    240.16906   -381.65087    229018.04   -21061.157    1590.7261   -22651.883   -1036.7213    674.95841    78.626467    15.852323    29.531079 
   97800    229.36058   -342.91292    229018.04   -21118.753    1519.1377   -22637.891   -830.77867    675.98163    78.626735    15.850796    29.517847 
   98000    230.45575   -359.78575    229018.04   -21201.038    1526.3914   -22727.429    -930.6123    676.27287    78.625137    15.850011    29.540625 
   98200    236.32043   -321.81114    229018.04   -21163.879    1565.2353   -22729.114   -775.20623    675.29207    78.624433    15.850328    29.558399 
   98400    235.58473   -438.45805    229018.04   -21120.332    1560.3625   -22680.695    -1202.587    677.55382    78.625255    15.852905    29.570991 
   98600    240.31645    -436.5697    229018.04   -21080.922    1591.7023   -22672.625   -1203.8806    677.62752    78.624258    15.851285    29.577507 
   98800     248.7286   -301.63028    229018.04   -20974.465     1647.419   -22621.884   -691.97846     677.6559    78.623496    15.853089    29.589783 
   99000    240.03747   -459.48793    229018.04   -20973.166    1589.8545   -22563.021   -1271.1827    677.07721    78.626409    15.854143    29.603647 
   99200    243.34129   -243.61922    229018.04   -21045.743     1611.737    -22657.48   -465.22891    676.10453    78.625638    15.856591    29.643318 
   99400    237.03187   -208.17355    229018.04   -21118.355    1569.9474   -22688.303   -352.18451    674.77479    78.625289    15.857706    29.656634 
   99600    238.70433   -357.35925    229018.04   -21067.674    1581.0247   -22648.699   -886.18265    678.26875    78.625951    15.857276    29.664899 
   99800    241.17543   -371.00565    229018.04   -21032.297    1597.3917   -22629.689   -937.19455    678.96838    78.627706    15.858935    29.673341 
  100000    235.38627   -364.23643    229018.04   -21078.554     1559.048   -22637.602   -912.46144    681.16953    78.628386    15.857913    29.665443 
  100200    238.99692   -243.31639    229018.04   -20987.388    1582.9626   -22570.351   -460.45565    683.11451    78.628051    15.859241    29.666669 
  100400    247.98586    -204.0898    229018.04   -21015.875    1642.4996   -22658.374    -340.4088    686.26734    78.627167    15.857253    29.663901 
  100600    240.71297   -311.31257    229018.04    -21075.91    1594.3286   -22670.238   -714.55605    690.89422    78.627729    15.855373    29.677231 
  100800    244.17804   -258.17877    229018.04   -21058.865     1617.279   -22676.144   -535.56414    692.15751    78.628912    15.855656    29.694448 
[...]
 5175800    228.94468   -142.34762    229018.04   -23340.778     1516.383   -24857.161   -122.15457    7947.0557    78.449544     16.27717    29.796865 
 5176000    222.07402   -125.43298    229018.04    -23463.56    1470.8762   -24934.436   -38.660947    7948.5262    78.448891    16.277217    29.793832 
 5176200    219.55096   -23.804833    229018.04   -23457.286     1454.165   -24911.451    325.86491    7945.9971    78.447602    16.276974    29.802584 
 5176400    221.76619   -40.507298    229018.04   -23401.913    1468.8373    -24870.75    294.55004    7945.5087    78.446613     16.27799    29.801383 
 5176600     228.9416    8.3681778    229018.04   -23369.727    1516.3627    -24886.09    502.52323    7944.7087    78.445666    16.278294     29.80037 
 5176800     220.8529    10.908073    229018.04   -23420.266    1462.7882   -24883.054    462.45173    7946.2703    78.444729    16.277938    29.796724 
 5177000    234.04506   -43.409401    229018.04   -23316.834    1550.1647   -24866.999    278.08106     7947.867    78.446072    16.279083     29.79801 
 5177200    227.23245   -41.815324    229018.04   -23321.006    1505.0423   -24826.048    280.31919    7947.3447    78.446327    16.278621    29.802977 
 5177400    226.73783    34.271614    229018.04    -23368.41    1501.7663   -24870.176    601.86506    7947.0426    78.446738    16.281007    29.811292 
 5177600    223.49152   -19.085845    229018.04   -23360.621    1480.2648   -24840.886    419.47195    7946.8397    78.446705    16.281996    29.808186 
 5177800     227.5143     -98.9364    229018.04   -23328.878    1506.9091   -24835.787    30.601044    7947.5984    78.447148    16.283014    29.807905 
 5178000    222.94493   -50.595441    229018.04   -23417.884    1476.6445   -24894.529    274.80174    7947.7504    78.446652    16.285122     29.80875 
 5178200    222.64187    -72.52791    229018.04   -23415.318    1474.6372   -24889.955    124.19313    7949.4114    78.445486    16.286796    29.814826 
 5178400    232.92097   -66.527124    229018.04   -23319.877    1542.7194   -24862.597    196.32449    7946.2339      78.4458    16.287078    29.815061 
 5178600    226.85006    -27.23874    229018.04   -23381.755    1502.5096   -24884.264    322.18486    7946.4013    78.446383    16.286494    29.811803 
 5178800    230.33784    40.637159    229018.04   -23340.521    1525.6104   -24866.131    625.41894    7943.8485    78.447419    16.286727    29.806085 
 5179000    234.00108   -82.020067    229018.04   -23312.214    1549.8734   -24862.087    126.73993     7944.709      78.4482    16.286046    29.814467 
 5179200    226.22962   -29.339135    229018.04   -23376.015    1498.4002   -24874.415    353.17594    7944.3893    78.448831    16.285546    29.813705 
 5179400    227.42151   -19.508172    229018.04   -23396.624    1506.2945   -24902.919    362.62216    7943.1518    78.449688    16.285208    29.816113 
 5179600    227.00856   -38.341669    229018.04   -23366.775    1503.5594   -24870.335    291.70367    7947.7559    78.450571    16.284992    29.808872 
 5179800    223.41959   -13.595921    229018.04   -23342.524    1479.7884   -24822.313    385.60985    7945.8394     78.45047    16.284483    29.812732 
 5180000    223.63862   -11.634372    229018.04   -23378.073    1481.2391   -24859.312     363.3926    7947.7726    78.451028     16.28506    29.811269 
 5180200    227.05766   -42.997479    229018.04   -23397.721    1503.8846   -24901.605    285.32195    7947.7436    78.451798    16.286417    29.807157 
 5180400    221.93174   -144.90695    229018.04   -23378.286    1469.9338    -24848.22   -155.05552    7947.9174    78.451807    16.287693    29.813083 
 5180600    223.88643   -8.5316394    229018.04    -23387.26    1482.8804    -24870.14    396.14878    7944.5745    78.452045    16.289066    29.813319 
 5180800    223.85436   -9.0369204    229018.04    -23405.51     1482.668   -24888.178    443.93532    7943.6226    78.452705    16.287985    29.811963 
 5181000    223.97229     -179.614    229018.04   -23361.295    1483.4491   -24844.744   -286.74806     7946.256     78.45283    16.286909    29.811221 
 5181200    227.97849   -29.380075    229018.04   -23329.008    1509.9836   -24838.992    333.40861     7942.071     78.45351    16.286814    29.817088 
 5181400    230.99725    41.201116    229018.04   -23339.458     1529.978   -24869.436     581.2282    7944.0856    78.452695    16.286537    29.812967 
 5181600    226.18333   -249.59241    229018.04   -23335.161    1498.0936   -24833.255   -508.53561    7947.2625    78.452913    16.287399    29.808629 
 5181800    218.69684   -28.293399    229018.04   -23438.906    1448.5079   -24887.414     359.4481    7946.1088    78.453094    16.287677    29.806811 
 5182000    223.64029    6.6073402    229018.04   -23438.757    1481.2501   -24920.007    469.41245    7944.7745    78.453516    16.290068    29.807537 
 5182200    226.58513   -77.941096    229018.04   -23354.905    1500.7549   -24855.659    159.14351    7946.5823    78.454051    16.290443    29.816959 
 5182400    225.77056   -104.50043    229018.04    -23357.95    1495.3597   -24853.309    22.122697    7946.3974    78.453952    16.291567    29.814561 
 5182600    229.41126    51.654733    229018.04   -23324.265    1519.4734   -24843.738    656.84761    7945.0506    78.453574    16.291773    29.807692 
 5182800    233.95525   -66.500399    229018.04   -23331.017    1549.5698   -24880.587    181.58368    7944.8496    78.453064    16.291584    29.803852 
 5183000      228.235   -28.659068    229018.04   -23321.011    1511.6826   -24832.694    353.64528    7945.5838    78.452696    16.293355    29.802108 
 5183200    223.86759   -54.985396    229018.04   -23346.883    1482.7557   -24829.639     223.5789    7946.1498    78.452105    16.293297    29.807844 
 5183400    224.29426   -64.145264    229018.04   -23371.507    1485.5816   -24857.089    199.07561    7944.4691    78.452216     16.29522    29.805716 
 5183600    233.76897   -12.354416    229018.04   -23355.012     1548.336   -24903.348    389.58093    7946.8479     78.45269    16.296233    29.801274 
 5183800    221.31414   -31.729054    229018.04   -23415.303    1465.8432   -24881.146    320.30925    7945.5589    78.453651    16.298708    29.807614 
 5184000     227.7735   -30.703816    229018.04   -23377.936    1508.6259   -24886.562    336.45621    7946.3784      78.4542    16.299712    29.812004 
 5184200    226.88768   -5.9125456    229018.04   -23389.669    1502.7588   -24892.428    440.19631    7944.4542    78.454944    16.299573    29.810467 
 5184400    225.56328   -88.218845    229018.04   -23363.704    1493.9868   -24857.691    62.004089    7945.4082    78.455544    16.299433     29.80585 
 5184600    224.10414    14.565564    229018.04   -23368.331    1484.3223   -24852.653    521.15055    7943.8499    78.454575    16.298691     29.80301 
 5184800    233.32889   -88.063281    229018.04   -23354.428    1545.4212    -24899.85    105.10532    7945.6917    78.454428    16.298525    29.799085 
 5185000     228.6256   -54.825227    229018.04    -23358.35    1514.2696    -24872.62    261.83401    7946.6842    78.454152     16.29791    29.798891 
 5185200    224.93005   -49.453153    229018.04   -23379.214    1489.7927   -24869.007    261.31248    7943.1565    78.454066      16.2996    29.801385 
 5185400    233.69735    17.375894    229018.04   -23409.272    1547.8617   -24957.133    519.52956    7943.8186    78.451713    16.299135    29.803834 
 5185600    229.98381   -155.38604    229018.04   -23370.238    1523.2656   -24893.503   -168.48525    7945.6556     78.45176    16.300174    29.802557 
 5185800    232.37734   -87.237136    229018.04   -23279.825    1539.1187   -24818.943    106.67527    7943.3819    78.451988    16.300626    29.809867 
 5186000    230.30565    39.827713    229018.04   -23324.547    1525.3972   -24849.944    583.56127    7940.4053    78.451569      16.3007    29.804361 
 5186200    222.50653   -105.45517    229018.04   -23392.016    1473.7408   -24865.757    40.642147    7944.3421    78.450976    16.300042     29.80423 
 5186400    225.26757   -55.362474    229018.04   -23421.134    1492.0282   -24913.163    225.63347    7943.7799    78.449482    16.301445    29.798928 
 5186600    234.35401   -17.577768    229018.04   -23356.619    1552.2109    -24908.83     353.3567    7940.5364    78.450085    16.302695    29.798752 
 5186800    227.24206   -132.72671    229018.04   -23364.101     1505.106   -24869.207   -73.961957    7943.8134    78.450609    16.303006    29.791275 
 5187000    224.54303   -60.497969    229018.04   -23356.063    1487.2293   -24843.293    182.42135    7941.7839    78.451046    16.305321    29.790745 
 5187200    219.22892   -59.611137    229018.04   -23374.051    1452.0321   -24826.083    184.31813    7939.7901    78.451954    16.305608    29.799184 
 5187400    227.23931  -0.40114423    229018.04   -23347.771    1505.0877   -24852.859     457.1391    7940.2182    78.453845    16.305486     29.80099 
 5187600    226.86015   -77.900596    229018.04   -23367.651    1502.5764   -24870.227    130.17711    7943.1831    78.454009    16.306054    29.800299 
 5187800    222.48054   -59.955999    229018.04   -23370.681    1473.5687    -24844.25    190.86691    7943.3895    78.454386    16.307718     29.79828 
 5188000    231.08699    47.223225    229018.04   -23368.905    1530.5723   -24899.477    646.47339    7941.6017    78.453268    16.307878    29.808584 
 5188200    230.09175    -93.35313    229018.04   -23348.566    1523.9805   -24872.547    78.803279    7945.3504    78.452465    16.310049    29.813211 
 5188400    227.20406   -6.7805803    229018.04   -23397.573    1504.8543   -24902.427      422.138    7942.2309    78.452749    16.312245     29.80663 
 5188600    229.24505    66.620408    229018.04   -23328.474    1518.3725   -24846.847    709.12029    7940.9446    78.451656    16.314024    29.817314 
 5188800    230.66205   -128.02564    229018.04   -23370.523    1527.7578   -24898.281   -62.848519    7944.7964    78.450937    16.316162     29.81668 
 5189000     225.4746   -52.886484    229018.04    -23365.86    1493.3994    -24859.26    212.38899     7944.637    78.451241     16.31722    29.803734 
 5189200    229.08117    55.356253    229018.04   -23370.086    1517.2871   -24887.373    665.19516    7941.7308    78.450937    16.318923    29.801429 
 5189400    229.13762   -117.24529    229018.04   -23351.322    1517.6609   -24868.983   -2.2726722    7943.7184    78.451013    16.318764    29.806927 
 5189600    230.41789   -115.21967    229018.04   -23339.765    1526.1406   -24865.906    14.587135    7943.6528    78.450692    16.318322    29.811269 
 5189800    223.81222     23.71963    229018.04    -23386.65    1482.3889   -24869.039    504.32654    7939.9428    78.451059    16.317503    29.811995 
 5190000    232.19646   -114.27277    229018.04   -23349.512    1537.9207   -24887.433  -0.70541801     7945.987    78.450012    16.317323    29.805768 
 5190200    226.63349    -176.8866    229018.04   -23340.026    1501.0752   -24841.101   -230.80662    7944.6773    78.449104    16.317153    29.803598 
 5190400      228.135     89.18271    229018.04   -23376.935    1511.0202   -24887.955    799.79492    7941.5935    78.449999    16.317906    29.809536 
 5190600      227.624   -41.049315    229018.04   -23359.104    1507.6357    -24866.74    254.81381    7944.7101    78.449782    16.317943    29.811574 
 5190800    225.70184   -141.61429    229018.04   -23369.593    1494.9045   -24864.498   -118.46748    7945.8066    78.449643    16.318363    29.812807 
 5191000    219.24602    57.458809    229018.04   -23478.399    1452.1453   -24930.545     638.2496    7940.6702    78.449275    16.317946    29.812813 
 5191200    228.58464   -40.968406    229018.04    -23401.64    1513.9983   -24915.639    276.94158    7944.2525    78.448933    16.318541    29.806898 
 5191400    232.45328   -146.48252    229018.04   -23371.744    1539.6217   -24911.365   -147.47412    7947.5594    78.449244    16.319382    29.808598 
 5191600    223.98052    113.49387    229018.04   -23383.164    1483.5036   -24866.668    876.23466    7941.2761    78.449218    16.321144     29.81472 
 5191800    229.67652   -47.670396    229018.04   -23329.346    1521.2303   -24850.576    221.05751    7941.4524    78.448944    16.319313    29.815334 
 5192000    231.46761   -170.65872    229018.04   -23333.514    1533.0933   -24866.608   -220.07278    7947.6746    78.448077    16.318197    29.808238 
 5192200    226.68007     42.58558    229018.04   -23362.025    1501.3837   -24863.409    603.16644    7940.4335    78.448329    16.319446    29.815908 
 5192400    228.29108  -0.82908173    229018.04   -23410.732     1512.054   -24922.786    422.39515    7941.1598    78.448402     16.32136    29.819599 
 5192600    224.65246   -196.52527    229018.04   -23410.581    1487.9541   -24898.535   -318.65842    7948.6495     78.44805    16.322114    29.816446 
 5192800    230.02176    26.332668    229018.04   -23341.352    1523.5169   -24864.869    506.22012    7942.4248    78.446952    16.323566    29.808927 
 5193000    222.52289    34.684999    229018.04     -23386.2    1473.8492   -24860.049    544.18241    7943.3607    78.447683    16.324874    29.813028 
 5193200    225.09597   -220.78436    229018.04   -23379.388    1490.8917   -24870.279   -385.76457    7947.8307    78.448481     16.32544    29.812313 
 5193400     225.6421    7.7784772    229018.04   -23353.763    1494.5089   -24848.272    446.81253    7943.1329    78.448889    16.327971    29.819415 
 5193600    227.83275    89.923458    229018.04   -23403.744    1509.0183   -24912.763    799.14834    7941.4942    78.448728    16.330123    29.827886 
 5193800    222.22669   -204.07931    229018.04   -23412.487    1471.8874   -24884.375   -371.40702     7947.849    78.447742    16.331782    29.823118 
 5194000    220.82398   -20.615684    229018.04   -23412.782    1462.5967   -24875.379    409.00179    7943.6541    78.447428    16.332265    29.820744 
 5194200    224.06872    136.91146    229018.04   -23383.124    1484.0878   -24867.212    964.98522    7942.4712    78.447677    16.334278    29.818863 
 5194400    225.73323   -183.73258    229018.04   -23384.184    1495.1125   -24879.297   -265.41343    7945.3709    78.447321    16.335556    29.812971 
 5194600    223.49418   -110.70309    229018.04   -23420.103    1480.2824   -24900.386    16.583511    7943.2588    78.447513     16.33667    29.815013 
 5194800     219.3331    81.824737    229018.04    -23434.94    1452.7221   -24887.662      757.559    7942.7047     78.44722    16.338854    29.817032 
 5195000    231.44198   -74.158347    229018.04   -23338.485    1532.9235   -24871.409    147.03447     7946.911    78.446012    16.338841    29.815576 
 5195200     221.1339   -111.22341    229018.04    -23402.65    1464.6494   -24867.299   0.51495668    7947.1804    78.444689    16.339487     29.81674 
 5195400    228.64348    35.371172    229018.04   -23328.222     1514.388    -24842.61    557.95263    7941.2063    78.444101    16.340754    29.819252 
 5195600    226.97906   -40.227003    229018.04   -23371.988     1503.364   -24875.352    263.88995    7941.2013    78.443279    16.341449    29.813009 
 5195800    230.74302    -80.71986    229018.04   -23329.884    1528.2941   -24858.178    154.49224     7947.261    78.443286    16.342432    29.816635 
 5196000    229.72645   -31.401352    229018.04   -23334.541    1521.5609   -24856.102    283.62548    7944.9005    78.442312    16.343058    29.814756 
 5196200    234.36585    13.860241    229018.04   -23305.252    1552.2894   -24857.542    497.91758    7944.7155    78.441891    16.344929    29.816106 
 5196400     229.0638   -95.061228    229018.04   -23360.284     1517.172   -24877.456    63.905657    7947.5657     78.44123    16.345711    29.822335 
 5196600    216.39021   -2.6349459    229018.04   -23462.265    1433.2302   -24895.496    421.63418    7944.5079    78.439982    16.344905    29.814395 
 5196800    230.13257    13.084391    229018.04   -23362.014    1524.2509   -24886.265    484.61196    7944.0345    78.438886    16.345209     29.81537 
 5197000    225.52555   -142.93808    229018.04   -23401.825    1493.7369   -24895.561   -96.748533    7948.3069    78.437948    16.346205    29.823924 
 5197200    229.96318    2.8010471    229018.04   -23304.746    1523.1289   -24827.875     457.7914    7942.7434    78.435617    16.346112    29.818043 
 5197400     223.3172    25.766925    229018.04   -23397.215    1479.1102   -24876.326    539.31029    7942.8567    78.435662    16.348673    29.812804 
 5197600    224.37781   -128.32739    229018.04   -23371.152     1486.135   -24857.287   -61.042818    7948.3049    78.435831    16.350539    29.806443 
 5197800    233.36209   -51.979248    229018.04   -23279.963    1545.6411   -24825.604    231.57753    7943.3228    78.435503     16.35103    29.806574 
 5198000    225.92057    63.241654    229018.04   -23277.205    1496.3533   -24773.559    672.57473    7942.1134      78.4357    16.355688     29.81379 
 5198200    230.23174   -166.43767    229018.04   -23338.956    1524.9077   -24863.864   -231.72995    7945.8186    78.435621    16.356327    29.818773 
 5198400    227.08723   -55.967665    229018.04   -23360.888    1504.0805   -24864.968    251.88802    7944.4242    78.434636    16.357441    29.820641 
 5198600    227.64462     9.919376    229018.04   -23412.527    1507.7723   -24920.299    468.56666    7943.6204    78.434016    16.358406    29.821731 
 5198800    223.88884   -128.72779    229018.04   -23409.822    1482.8964   -24892.718   -71.895334    7947.4784     78.43288    16.358788    29.820445 
 5199000     229.0977    -23.47641    229018.04   -23329.724    1517.3965    -24847.12    362.69303     7943.521    78.432155     16.35725     29.81864 
 5199200    225.84409    30.816465    229018.04   -23361.312    1495.8467   -24857.159    598.18222     7944.561    78.432654    16.358698    29.821976 
 5199400    226.74632   -107.32402    229018.04   -23396.696    1501.8225   -24898.519    4.2783667    7947.2125     78.43232    16.358231    29.819924 
 5199600    227.07288    47.235197    229018.04   -23351.089    1503.9854   -24855.074    629.30127    7948.0385    78.432557    16.358689    29.816401 
 5199800    225.44259     6.088583    229018.04   -23408.686    1493.1874   -24901.873    450.88258    7947.5636    78.433285    16.358663    29.814073 
 5200000    235.02243   -54.295971    229018.04   -23341.474    1556.6381   -24898.112    245.09903    7945.1766    78.433099    16.359619     29.81437 
Loop time of 7627 on 64 procs for 5200000 steps with 8943 atoms

Performance: 589.065 ns/day, 0.041 hours/ns, 681.789 timesteps/s
100.0% CPU use with 64 MPI tasks x no OpenMP threads

MPI task timing breakdown:
Section |  min time  |  avg time  |  max time  |%varavg| %total
---------------------------------------------------------------
Pair    | 0.28412    | 1785.2     | 5840.1     |4595.4 | 23.41
Neigh   | 0.74688    | 238.2      | 855.39     |1917.6 |  3.12
Comm    | 18.514     | 2086.7     | 6119.3     |4077.7 | 27.36
Output  | 234.79     | 234.87     | 235.09     |   0.3 |  3.08
Modify  | 149.11     | 3207.9     | 7299.9     |5270.5 | 42.06
Other   |            | 74.1       |            |       |  0.97

Nlocal:    139.734 ave 439 max 0 min
Histogram: 24 12 12 0 0 0 0 0 0 16
Nghost:    820.219 ave 1309 max 0 min
Histogram: 8 0 4 0 0 4 24 0 12 12
Neighs:    0 ave 0 max 0 min
Histogram: 64 0 0 0 0 0 0 0 0 0
FullNghs:  13991.8 ave 53690 max 0 min
Histogram: 40 8 0 0 0 0 0 0 6 10

Total # of neighbors = 895474
Ave neighs/atom = 100.131
Neighbor list builds = 549881
Dangerous builds = 0
write_data 		${DIR}/data.${NAME}_run
write_data 		run_30/data.${NAME}_run
write_data 		run_30/data.ibeam_cooling_30_run
Total wall time: 2:07:22
