
### Dimensions ###


### IMPORT ATOMS ###
read_data ../Box_Setup/data.Ibeam_240K
Reading data file ...
  orthogonal box = (0.0000000 0.0000000 0.0000000) to (68.908000 85.848302 27.975384)
  8 by 8 by 2 MPI processor grid
  reading atoms ...
  8493 atoms
  reading velocities ...
  8493 velocities
  read_data CPU = 0.019 seconds
group water type 2
1689 atoms in group water
group graphite type 1
6804 atoms in group graphite


# Define potential
#
pair_style          sw
pair_coeff * * MLC_e.sw C mW

# Add velocity/set timestep
#

fix		1 graphite setforce 0.0 0.0 0.0
velocity 	graphite set 0.0 0.0 0.0
velocity            water create ${START_TEMP} ${SEED} rot yes dist gaussian
velocity            water create 240 ${SEED} rot yes dist gaussian
velocity            water create 240 12690 rot yes dist gaussian
timestep            5.0

# Define output
#
compute 1 water msd
compute 2 water temp


thermo	            100
thermo_style custom step c_2 press vol etotal ke pe c_1[4] density

# Neighbor lists
#
neigh_modify        delay 0 every 1 check yes


# Set fixes
#
fix                 2 water momentum 10 linear 1 1 1 rescale
fix		3 water nvt temp ${START_TEMP} ${START_TEMP} $(100.0*dt)
fix		3 water nvt temp 240 ${START_TEMP} $(100.0*dt)
fix		3 water nvt temp 240 240 $(100.0*dt)
fix		3 water nvt temp 240 240 500

# Run 0.05 ns equilibration
#
dump                1 all custom 100 ${DIR}/eq.${NAME}.dump id type x y z vx vy vz
dump                1 all custom 100 run_2/eq.${NAME}.dump id type x y z vx vy vz
dump                1 all custom 100 run_2/eq.ibeam_cooling_2.dump id type x y z vx vy vz
run                 10000
Neighbor list info ...
  update every 1 steps, delay 0 steps, check yes
  max neighbors/atom: 2000, page size: 100000
  master list distance cutoff = 6.6747184
  ghost atom cutoff = 6.6747184
  binsize = 3.3373592, bins = 21 26 9
  1 neighbor lists, perpetual/occasional/extra = 1 0 0
  (1) pair sw, perpetual
      attributes: full, newton on
      pair build: full/bin/atomonly
      stencil: full/bin/3d
      bin: standard
Per MPI rank memory allocation (min/avg/max) = 3.603 | 4.507 | 4.728 Mbytes
Step c_2 Press Volume TotEng KinEng PotEng c_1[4] Density 
       0          240   -298.97748    165492.15   -16025.669    1207.5858   -17233.255            0    1.1252403 
     100    237.32324   -547.81824    165492.15   -16049.319    1194.1173   -17243.436    0.9662322    1.1252403 
     200    235.21149   -609.30423    165492.15   -16098.084    1183.4919   -17281.576    1.5133229    1.1252403 
     300    242.96543   -497.66425    165492.15   -16119.244    1222.5067   -17341.751    1.9478083    1.1252403 
     400    234.53786   -514.22695    165492.15   -16118.292    1180.1024   -17298.394    2.3521426    1.1252403 
     500    235.48024   -244.00221    165492.15    -16106.24    1184.8441   -17291.084    2.7769656    1.1252403 
     600    239.17206   -415.92885    165492.15   -16097.082    1203.4199   -17300.502    3.0374451    1.1252403 
     700     239.0727   -567.09821    165492.15    -16094.93      1202.92    -17297.85    3.3417813    1.1252403 
     800    241.38693   -536.56221    165492.15   -16085.979    1214.5643   -17300.544    3.5696263    1.1252403 
     900    243.17779   -343.54306    165492.15   -16119.482    1223.5752   -17343.058    3.9300671    1.1252403 
    1000    235.54403   -575.18717    165492.15   -16163.138    1185.1651   -17348.303    4.3290765    1.1252403 
    1100    233.53752    -773.9791    165492.15   -16158.461    1175.0691    -17333.53    4.8204437    1.1252403 
    1200    246.50191   -460.18481    165492.15   -16110.549    1240.3008    -17350.85    4.9502674    1.1252403 
    1300    238.80773    -511.4949    165492.15    -16091.36    1201.5867   -17292.947    5.2857245    1.1252403 
    1400    249.55472   -701.89133    165492.15   -16105.776    1255.6614   -17361.438    5.7616979    1.1252403 
    1500     235.1979   -497.91068    165492.15   -16123.743    1183.4235   -17307.167    6.0466829    1.1252403 
    1600    234.69124   -431.75284    165492.15    -16109.41    1180.8742   -17290.284    6.3435915    1.1252403 
    1700    235.09757   -406.27207    165492.15   -16088.079    1182.9187   -17270.998     6.533612    1.1252403 
    1800    243.04444   -429.35638    165492.15   -16033.312    1222.9042   -17256.216     6.900221    1.1252403 
    1900     246.8755   -541.09649    165492.15   -15995.494    1242.1806   -17237.674    7.3516462    1.1252403 
    2000    245.57891   -258.22654    165492.15   -16039.496    1235.6566   -17275.152    7.8194429    1.1252403 
    2100    238.61671   -452.65495    165492.15   -16081.023    1200.6256   -17281.649    8.2175142    1.1252403 
    2200    237.96048   -442.12864    165492.15   -16102.353    1197.3237   -17299.676    8.7463409    1.1252403 
    2300    237.65576   -469.30126    165492.15   -16114.264    1195.7905   -17310.054    9.1863189    1.1252403 
    2400    242.34722   -459.06519    165492.15   -16111.654     1219.396    -17331.05    9.6494818    1.1252403 
    2500    240.57681   -390.86713    165492.15   -16101.663    1210.4881   -17312.151    9.7780525    1.1252403 
    2600    243.32234   -549.93222    165492.15    -16108.05    1224.3025   -17332.352     9.966605    1.1252403 
    2700    235.41005   -546.88587    165492.15   -16138.479    1184.4909    -17322.97    10.316314    1.1252403 
    2800    237.98447    -365.7052    165492.15   -16141.046    1197.4444   -17338.491    10.402151    1.1252403 
    2900    241.60877   -516.62393    165492.15   -16103.849    1215.6805   -17319.529    10.399112    1.1252403 
    3000    240.92024   -547.47866    165492.15   -16059.309    1212.2161   -17271.525    10.756715    1.1252403 
    3100    244.20416   -534.21165    165492.15   -16068.543    1228.7395   -17297.283    11.158896    1.1252403 
    3200    238.73687   -361.20212    165492.15   -16112.524    1201.2302   -17313.754    11.548251    1.1252403 
    3300     238.5596   -229.07033    165492.15   -16118.443    1200.3383   -17318.781    11.904818    1.1252403 
    3400    239.55493   -614.52688    165492.15   -16105.186    1205.3463   -17310.532    12.211271    1.1252403 
    3500    235.06969   -630.49436    165492.15   -16065.122    1182.7784   -17247.901    12.323037    1.1252403 
    3600    246.87603   -392.70733    165492.15    -16036.39    1242.1832   -17278.573    12.602696    1.1252403 
    3700    240.12569   -444.39509    165492.15    -16051.85    1208.2182   -17260.068    13.029359    1.1252403 
    3800     232.2241   -864.07431    165492.15    -16071.59    1168.4605   -17240.051    13.405814    1.1252403 
    3900    238.10445   -446.05804    165492.15   -16066.807    1198.0481   -17264.855    13.663683    1.1252403 
    4000    242.11997   -508.56243    165492.15   -16046.513    1218.2526   -17264.765    14.085003    1.1252403 
    4100    247.05239   -573.11326    165492.15   -15989.018    1243.0706   -17232.088     14.33057    1.1252403 
    4200    246.70786   -281.16907    165492.15    -15995.72    1241.3371   -17237.057    14.517181    1.1252403 
    4300    237.32492   -527.47202    165492.15   -16055.007    1194.1258   -17249.133    14.649706    1.1252403 
    4400    238.35014   -472.36181    165492.15   -16078.501    1199.2843   -17277.786    14.810205    1.1252403 
    4500    243.77185   -462.94899    165492.15   -16090.976    1226.5642   -17317.541    15.345427    1.1252403 
    4600    236.36457   -543.15564    165492.15   -16119.611    1189.2937   -17308.904    15.935987    1.1252403 
    4700    236.51845   -684.08851    165492.15   -16140.316     1190.068   -17330.384    16.311611    1.1252403 
    4800    242.17739   -591.76127    165492.15   -16097.525    1218.5415   -17316.066    16.786802    1.1252403 
    4900    240.00388   -300.15127    165492.15   -16061.819    1207.6053   -17269.424    17.235032    1.1252403 
    5000    238.69276   -495.81286    165492.15    -16064.38    1201.0082   -17265.388    17.459803    1.1252403 
    5100    238.69927   -268.63481    165492.15   -16103.926     1201.041   -17304.967    17.767602    1.1252403 
    5200    236.81307   -478.97128    165492.15    -16152.96    1191.5504    -17344.51    18.343715    1.1252403 
    5300    238.36441   -491.68884    165492.15   -16146.377    1199.3561   -17345.734    18.753607    1.1252403 
    5400    231.93028   -490.78861    165492.15   -16123.973    1166.9821   -17290.955    18.957861    1.1252403 
    5500    239.42369   -451.65202    165492.15   -16091.757     1204.686   -17296.443    19.336258    1.1252403 
    5600    247.28737   -605.67394    165492.15   -16072.866     1244.253   -17317.119    19.586024    1.1252403 
    5700    239.41809   -480.05264    165492.15   -16064.827    1204.6578   -17269.485    20.078105    1.1252403 
    5800    244.90374    -616.4955    165492.15   -16034.862    1232.2595   -17267.122    20.303245    1.1252403 
    5900    243.78711   -513.92671    165492.15   -15976.171     1226.641   -17202.812    20.792546    1.1252403 
    6000    245.26197   -435.83691    165492.15    -15985.49    1234.0619   -17219.552    21.102401    1.1252403 
    6100    244.34902   -499.29244    165492.15    -16039.75    1229.4683   -17269.218    21.174855    1.1252403 
    6200    239.84779   -470.70228    165492.15   -16057.446    1206.8199   -17264.266    21.388807    1.1252403 
    6300    243.40905   -342.46165    165492.15   -16072.457    1224.7388   -17297.196    21.485466    1.1252403 
    6400    240.68095   -736.04728    165492.15   -16088.189     1211.012   -17299.201    21.994348    1.1252403 
    6500    236.02171    -604.5757    165492.15   -16075.602    1187.5686   -17263.171    22.472379    1.1252403 
    6600    238.81843   -234.63498    165492.15   -16022.278    1201.6405   -17223.918    23.091589    1.1252403 
    6700    248.86053   -449.69459    165492.15   -16009.516    1252.1685   -17261.684    23.949509    1.1252403 
    6800    241.99722   -532.86613    165492.15   -16053.873     1217.635   -17271.508    24.646603    1.1252403 
    6900    244.14286   -510.28702    165492.15   -16072.363     1228.431   -17300.794    25.154035    1.1252403 
    7000    229.71398   -408.77763    165492.15   -16074.104    1155.8305   -17229.935    25.325835    1.1252403 
    7100    242.35127    -485.4851    165492.15   -16055.841    1219.4165   -17275.257     25.73068    1.1252403 
    7200    240.68119   -534.84556    165492.15   -16033.295    1211.0132   -17244.308    26.244016    1.1252403 
    7300    249.78687   -607.12536    165492.15   -15966.501    1256.8294   -17223.331    26.682517    1.1252403 
    7400    245.23851   -576.09356    165492.15   -15956.269    1233.9439   -17190.213    27.115538    1.1252403 
    7500    245.65686   -464.13364    165492.15   -15991.442    1236.0489   -17227.491    27.224619    1.1252403 
    7600    241.87751   -486.22064    165492.15   -16031.229    1217.0327   -17248.262    27.752644    1.1252403 
    7700    240.87747   -485.26018    165492.15   -16053.629    1212.0009    -17265.63    28.273068    1.1252403 
    7800    238.89577    -484.8669    165492.15   -16043.584    1202.0297   -17245.614    28.755112    1.1252403 
    7900    244.97466   -532.66492    165492.15   -15990.201    1232.6163   -17222.817    29.115788    1.1252403 
    8000    250.31829   -550.44732    165492.15   -15950.956    1259.5033    -17210.46    29.685819    1.1252403 
    8100    243.92817   -403.63549    165492.15   -15969.204    1227.3508   -17196.555    29.876825    1.1252403 
    8200    243.19963   -433.55904    165492.15   -16007.195    1223.6851    -17230.88    30.124368    1.1252403 
    8300     238.3938   -669.66541    165492.15   -16045.176     1199.504    -17244.68    30.137613    1.1252403 
    8400    235.10835   -673.88916    165492.15   -16077.783    1182.9729   -17260.756    30.519639    1.1252403 
    8500     235.4187   -556.12522    165492.15   -16102.696    1184.5345   -17287.231    30.852225    1.1252403 
    8600    242.26696   -544.00021    165492.15   -16100.775    1218.9922   -17319.768    31.016748    1.1252403 
    8700    241.12461   -516.14946    165492.15    -16054.17    1213.2444   -17267.415    31.249816    1.1252403 
    8800    249.67551   -596.11932    165492.15   -16014.926    1256.2691   -17271.195    31.529346    1.1252403 
    8900    239.03385   -276.10369    165492.15    -16039.48    1202.7245   -17242.205    31.550043    1.1252403 
    9000    240.08815   -588.43514    165492.15   -16079.353    1208.0293   -17287.382    32.117183    1.1252403 
    9100    247.06337   -389.64768    165492.15   -16101.212    1243.1259   -17344.338     32.54023    1.1252403 
    9200    236.38476    -459.2387    165492.15   -16109.244    1189.3953   -17298.639    32.908356    1.1252403 
    9300    237.32172   -407.99935    165492.15   -16087.648    1194.1097   -17281.758    33.588788    1.1252403 
    9400    242.59732   -296.51134    165492.15   -16035.953    1220.6545   -17256.607    34.457222    1.1252403 
    9500    242.33676   -525.05351    165492.15   -16017.418    1219.3434   -17236.762    34.648907    1.1252403 
    9600    240.96703   -579.80233    165492.15    -16046.49    1212.4515   -17258.941    34.541722    1.1252403 
    9700    238.35112    -609.5058    165492.15    -16084.59    1199.2893   -17283.879    34.427002    1.1252403 
    9800    240.14656   -451.16642    165492.15   -16087.368    1208.3232   -17295.692    34.483334    1.1252403 
    9900    241.03426   -599.79831    165492.15   -16027.713    1212.7898   -17240.502    34.868973    1.1252403 
   10000    247.30902   -476.04098    165492.15   -15992.496    1244.3619   -17236.858    34.771263    1.1252403 
Loop time of 5.94419 on 128 procs for 10000 steps with 8493 atoms

Performance: 726.760 ns/day, 0.033 hours/ns, 1682.316 timesteps/s
96.7% CPU use with 128 MPI tasks x no OpenMP threads

MPI task timing breakdown:
Section |  min time  |  avg time  |  max time  |%varavg| %total
---------------------------------------------------------------
Pair    | 0.00073218 | 1.8359     | 4.4594     | 116.8 | 30.89
Neigh   | 0.0042114  | 0.13222    | 0.31094    |  27.8 |  2.22
Comm    | 0.19559    | 1.6773     | 4.0549     |  80.8 | 28.22
Output  | 0.15073    | 0.15078    | 0.15161    |   0.0 |  2.54
Modify  | 0.21073    | 2.0671     | 5.5111     | 134.8 | 34.78
Other   |            | 0.08092    |            |       |  1.36

Nlocal:        66.3516 ave         141 max           0 min
Histogram: 32 4 16 12 0 0 2 31 21 10
Nghost:        699.391 ave         921 max         491 min
Histogram: 16 6 16 12 17 13 13 19 1 15
Neighs:         0.00000 ave           0 max           0 min
Histogram: 128 0 0 0 0 0 0 0 0 0
FullNghs:      6943.08 ave       16696 max           0 min
Histogram: 41 23 0 0 0 0 14 29 12 9

Total # of neighbors = 888714
Ave neighs/atom = 104.64076
Neighbor list builds = 567
Dangerous builds = 0
write_data 	    ${DIR}/data.${NAME}_eq
write_data 	    run_2/data.${NAME}_eq
write_data 	    run_2/data.ibeam_cooling_2_eq
System init for write_data ...

undump              1
unfix 		3



################################################
#######         Run Simulation         #########
################################################

reset_timestep      0
timestep	    10.0
log                 ${DIR}/log.run_${NAME}
log                 run_2/log.run_${NAME}
log                 run_2/log.run_ibeam_cooling_2
