
# Set production fixes - Nose/Hoover
#
fix                 4 water temp/csvr ${START_TEMP} ${END_TEMP} 500.0 928347
fix                 4 water temp/csvr 235 ${END_TEMP} 500.0 928347
fix                 4 water temp/csvr 235 225 500.0 928347


## divide "droplet" into core and surface
#region		core_reg cylinder z 135 135 44.6 20 INF units box
#region		surface_reg cylinder z 135 135 44.6 20 INF units box side out
#group		core dynamic all region core_reg
#group		surface dynamic all region surface_reg

## compute pressure core
#compute        peratom_core core stress/atom NULL
#compute        p_core core reduce sum c_peratom_core[1] c_peratom_core[2] c_peratom_core[3]
#variable       press_core equal -(c_p_core[1]+c_p_core[2]+c_p_core[3])/(3*1249982.5)


## compute pressure surface
#compute        peratom_surf surface stress/atom NULL
#compute        p_surf surface reduce sum c_peratom_surf[1] c_peratom_surf[2] #c_peratom_surf[3]
#variable       press_surf equal -(c_p_surf[1]+c_p_surf[2]+c_p_surf[3])/(3*42395)

## compute total pressure of drop
compute        peratom water stress/atom NULL
compute        p water reduce sum c_peratom[1] c_peratom[2] c_peratom[3]
variable       press equal -(c_p[1]+c_p[2]+c_p[3])/(3*50320)


# compute order parameter
compute        3 all orientorder/atom nnn NULL cutoff 3.5

# compute center of mass of bridge
compute 	4 water com

# Run simulation
thermo_style        custom step c_2 press vol etotal ke pe v_press c_1[4] c_4[*]
thermo              200
dump		     1 water custom 400 ${DIR}/prod.${NAME}.dump id type x y z vx vy vz c_3[*] c_peratom[*]
dump		     1 water custom 400 run_1/prod.${NAME}.dump id type x y z vx vy vz c_3[*] c_peratom[*]
dump		     1 water custom 400 run_1/prod.ibeam_cooling_1.dump id type x y z vx vy vz c_3[*] c_peratom[*]
run                 ${STEPS}
run                 4000000
Neighbor list info ...
  update every 1 steps, delay 0 steps, check yes
  max neighbors/atom: 2000, page size: 100000
  master list distance cutoff = 6.67472
  ghost atom cutoff = 6.67472
  binsize = 3.33736, bins = 48 13 11
  2 neighbor lists, perpetual/occasional/extra = 1 1 0
  (1) pair sw, perpetual
      attributes: full, newton on
      pair build: full/bin/atomonly
      stencil: full/bin/3d
      bin: standard
  (2) compute orientorder/atom, occasional, copy from (1)
      attributes: full, newton on
      pair build: copy
      stencil: none
      bin: none
Per MPI rank memory allocation (min/avg/max) = 6.143 | 6.641 | 7.271 Mbytes
Step c_2 Press Volume TotEng KinEng PotEng v_press c_1[4] c_4[1] c_4[2] c_4[3] 
       0    236.09121   -436.52595    216009.12   -18806.511    1373.0027   -20179.513   -1297.5368    26.694612    78.750352    22.585859    25.544401 
     200    231.37226   -245.23793    216009.12    -18844.67    1345.5594    -20190.23    -478.8141       27.543    78.752138    22.586641    25.553249 
     400    230.37406   -301.10669    216009.12   -18827.144    1339.7543   -20166.898   -731.22615    28.299405    78.754478    22.585582    25.525657 
     600    244.01881   -303.57296    216009.12   -18710.077    1419.1061   -20129.183   -683.95263    28.956642    78.757245    22.585116    25.517653 
     800      242.392   -227.29516    216009.12   -18705.629    1409.6453   -20115.274   -407.88986    30.456167    78.758264    22.584322    25.513396 
    1000    237.66079   -331.17507    216009.12   -18839.274    1382.1307   -20221.405   -841.53487    31.147111    78.761061     22.58606    25.522451 
    1200    232.47308   -464.46784    216009.12   -18806.755    1351.9613   -20158.716   -1412.5124     32.24583     78.76072    22.585193    25.507014 
    1400    233.45152   -349.89598    216009.12   -18797.763    1357.6514   -20155.415   -918.37225    33.214611    78.758387    22.584641    25.515662 
    1600     232.8556   -139.44277    216009.12   -18809.193    1354.1858   -20163.379   -39.769715    34.227117    78.760174    22.582607    25.512243 
    1800     244.6088   -452.13714    216009.12   -18756.592    1422.5373   -20179.129   -1369.5321    35.533144    78.761453    22.583878    25.515288 
    2000    244.43685   -160.96062    216009.12   -18707.252    1421.5373   -20128.789   -157.53949    36.221781    78.763513    22.584947     25.53722 
    2200    233.77187   -240.64288    216009.12    -18816.62    1359.5144   -20176.135   -468.71573    36.411514     78.76304    22.587514    25.530352 
    2400    240.78584    -221.6859    216009.12   -18788.037    1400.3046   -20188.341   -403.10604    36.677633    78.763354    22.589206    25.543722 
    2600    232.54483   -313.82766    216009.12   -18789.368    1352.3785   -20141.746   -774.81054        37.56    78.764482    22.590919    25.513804 
    2800    235.46422   -338.26667    216009.12   -18732.527    1369.3564   -20101.883   -929.51122    38.194048    78.762742    22.591131    25.528009 
    3000    236.04449   -407.39161    216009.12   -18713.163     1372.731   -20085.894   -1127.3118    39.065317    78.759696    22.590351    25.514991 
    3200    230.63977   -202.86813    216009.12   -18776.685    1341.2995   -20117.984   -293.37518    40.364809      78.7596    22.591259    25.537497 
    3400    230.66908   -225.80594    216009.12   -18756.577      1341.47   -20098.047   -390.63755    41.907484    78.760997    22.593894    25.523235 
    3600     239.4337   -433.57633    216009.12   -18733.866    1392.4411   -20126.307   -1314.1701    43.986972     78.76111    22.595085    25.510564 
    3800    238.78557   -228.60308    216009.12   -18685.077    1388.6719   -20073.749    -416.5454    44.891311    78.761906    22.595306    25.514989 
    4000    227.87669   -239.59314    216009.12   -18765.224    1325.2306   -20090.454   -446.18673    45.793914    78.762697    22.597317    25.517853 
    4200    238.11489   -308.88973    216009.12   -18714.641    1384.7715   -20099.413   -763.41159    46.069438    78.763594    22.597527    25.563439 
    4400    234.26603   -271.81943    216009.12   -18753.796    1362.3883   -20116.184   -591.15544    47.573396    78.765314    22.596243    25.568703 
    4600    231.94911   -309.27306    216009.12   -18833.949    1348.9141   -20182.863   -726.04294    48.412381    78.765455    22.595761    25.560585 
    4800    243.59312   -128.04392    216009.12   -18728.789    1416.6305    -20145.42    2.4100956    48.872423    78.764843    22.594488    25.562061 
    5000    230.26726   -388.71423    216009.12   -18761.377    1339.1332    -20100.51   -1116.5253    49.920786    78.764981    22.595273    25.584783 
    5200    230.94631   -148.84393    216009.12   -18788.549    1343.0822   -20131.631   -65.388757    51.430247    78.768826    22.595023      25.5869 
    5400    232.94733   -224.24455    216009.12   -18800.037    1354.7193   -20154.757   -357.22778     52.02863    78.768787    22.593885    25.611177 
    5600    232.38796   -340.70115    216009.12   -18804.429    1351.4662   -20155.895   -913.89411    52.592054    78.770971    22.597393    25.622967 
    5800    238.22902   -239.78206    216009.12   -18744.755    1385.4353   -20130.191   -454.76706    53.988423    78.771061    22.600174    25.658964 
    6000     231.5349   -279.23813    216009.12   -18767.773    1346.5052   -20114.278   -627.33786    54.714337     78.77057    22.599348    25.670148 
    6200    235.40008   -233.05813    216009.12   -18750.921    1368.9834   -20119.904   -450.81791    55.587162    78.768972    22.598605    25.642336 
    6400    241.56376   -373.93353    216009.12   -18731.808    1404.8286   -20136.637   -1011.9086     56.94037    78.766311    22.596231    25.634635 
    6600    228.41523    -296.5896    216009.12   -18771.928    1328.3626    -20100.29   -672.92364    58.436454    78.763086    22.594646    25.609092 
    6800     228.8071   -347.55301    216009.12   -18768.879    1330.6415   -20099.521   -905.44625    59.362215    78.762472    22.595367    25.583207 
    7000    231.06635   -314.39238    216009.12   -18709.843    1343.7803   -20053.623   -764.09823    60.218701    78.762723    22.592729    25.602465 
    7200    233.75607   -223.81209    216009.12   -18795.061    1359.4225   -20154.484   -367.02814    61.577743    78.761255    22.589521    25.597129 
    7400    234.24782   -302.70473    216009.12   -18762.413    1362.2824   -20124.695   -697.44372    62.763443    78.759812    22.588107    25.583616 
    7600    237.61241   -266.90909    216009.12   -18686.725    1381.8493   -20068.574   -555.74332    62.898093    78.759046      22.5874    25.582454 
    7800    224.52412   -230.41842    216009.12   -18779.973    1305.7336   -20085.707   -395.57991    64.219294    78.759437    22.586794     25.58724 
    8000    244.48298   -255.60621    216009.12   -18674.781    1421.8056   -20096.587    -571.5401    64.941181    78.760692    22.586794    25.597583 
    8200    237.21472   -256.85779    216009.12   -18684.712    1379.5365   -20064.248   -527.47739     66.63731    78.759557    22.586391    25.597298 
    8400    233.22373   -342.20433    216009.12   -18633.204    1356.3267   -19989.531   -864.25109    67.712215    78.757805    22.587712    25.623355 
    8600     235.4993    -438.3356    216009.12   -18662.802    1369.5604   -20032.363   -1306.4107    67.893979    78.758383    22.589886    25.628332 
    8800    232.93398   -440.39472    216009.12   -18686.613    1354.6416   -20041.255   -1319.7412    69.241238    78.759506    22.592754    25.622863 
    9000    244.74226   -257.40255    216009.12   -18690.415    1423.3134   -20113.729   -499.90998    70.520919    78.759465     22.59058    25.634005 
    9200    232.27319   -138.67552    216009.12   -18692.976    1350.7988   -20043.775    3.7895959    71.299553    78.760767    22.588629    25.639558 
    9400    234.17383   -149.06691    216009.12   -18732.139    1361.8521   -20093.991   -61.940043    71.914634    78.762206    22.591571    25.644326 
    9600    234.17421   -320.80146    216009.12   -18765.726    1361.8543   -20127.581   -812.07544     72.47267    78.765213    22.596794    25.643701 
    9800    236.89267   -248.27513    216009.12   -18684.257    1377.6637   -20061.921    -458.0557    72.964817    78.764699    22.598018    25.655219 
   10000    227.76474    -282.5235    216009.12   -18711.196    1324.5796   -20035.776   -612.36056    74.150108    78.766522     22.59827    25.658801 
   10200    234.98523   -251.65121    216009.12   -18640.653    1366.5708   -20007.224   -488.30853    75.869577    78.765727    22.599544    25.660922 
   10400    249.11943   -79.777695    216009.12   -18657.511    1448.7691    -20106.28    220.22478    76.757893     78.76689    22.597161    25.652347 
   10600    227.23763   -388.13507    216009.12   -18714.274    1321.5142   -20035.788   -1095.4701    78.943229    78.768486    22.595996    25.663617 
   10800    238.10706   -207.03176    216009.12   -18743.378     1384.726   -20128.104   -331.49894    79.847128     78.76839     22.59572    25.673185 
   11000    231.48825   -312.26722    216009.12   -18757.066    1346.2339   -20103.299    -778.2583    81.733107    78.769541    22.595843    25.698564 
   11200    230.95075   -397.91644    216009.12   -18746.362     1343.108    -20089.47   -1131.1123     82.40027    78.770915    22.595975    25.705354 
   11400    233.54013   -277.51302    216009.12   -18733.659    1358.1667   -20091.826    -578.8397    83.003941    78.772165    22.595693    25.700853 
   11600    241.72494   -341.55212    216009.12   -18642.118     1405.766   -20047.884   -894.43452    83.700857    78.773438    22.594605    25.698849 
   11800     242.5603   -430.42998    216009.12   -18654.386    1410.6241    -20065.01   -1254.7112    85.965723    78.773924    22.594743    25.685543 
   12000    235.75715   -358.11163    216009.12   -18654.881      1371.06   -20025.941   -940.38298    87.386156    78.775418    22.593035    25.693333 
   12200    231.83479   -365.64929    216009.12   -18659.814    1348.2492   -20008.063   -923.65891    88.830647    78.776867    22.593069    25.697267 
   12400    233.93346    -359.3927    216009.12   -18691.246    1360.4542     -20051.7   -931.02436    89.715591    78.777724    22.593489    25.707259 
   12600    243.81968   -325.29513    216009.12   -18664.164    1417.9481   -20082.112   -779.05213    91.024099    78.778553    22.593095    25.710163 
   12800    227.83162   -214.92057    216009.12   -18712.525    1324.9685   -20037.494   -319.07434    91.466784    78.780772     22.59392     25.71243 
   13000     233.1284   -391.33625    216009.12   -18775.341    1355.7723   -20131.114   -1067.8494    92.364961    78.783162    22.592708    25.713652 
   13200    231.89011   -412.31868    216009.12   -18820.787     1348.571   -20169.358   -1180.9529     92.87486    78.784155    22.594039    25.699301 
   13400    232.27593   -66.071926    216009.12   -18843.893    1350.8147   -20194.708    286.00744     93.62925     78.78202    22.593349    25.706692 
   13600    232.53989   -283.76082    216009.12   -18804.731    1352.3498   -20157.081   -653.38603    94.265438    78.781863    22.592817    25.712814 
   13800    234.52237   -268.70345    216009.12   -18747.162     1363.879   -20111.041   -589.37127    94.743522    78.781242    22.592052    25.710587 
   14000    236.35268   -252.84837    216009.12   -18681.691    1374.5233   -20056.215   -509.63212    95.634549    78.782427    22.593762    25.704102 
   14200    235.95993   -192.89551    216009.12   -18705.496    1372.2393   -20077.735   -256.76438      97.1445    78.781567    22.594191    25.705374 
   14400    231.24353   -333.28092    216009.12   -18740.705    1344.8107   -20085.516   -836.34598    97.823084    78.781543    22.591851    25.681844 
   14600    241.39124   -492.65016    216009.12   -18723.047    1403.8253   -20126.872   -1522.1655     100.0943    78.783105    22.590443    25.674403 
   14800    239.81484   -272.84045    216009.12   -18740.623    1394.6577    -20135.28   -577.99355    102.07681    78.783618    22.590922    25.651627 
   15000    235.97677   -290.84792    216009.12   -18786.119    1372.3372   -20158.456   -653.45462    101.90026    78.781209    22.593793    25.653065 
   15200    234.95644   -389.31156    216009.12   -18756.109    1366.4034   -20122.512   -1059.4862    103.12046    78.780899    22.595585    25.642703 
   15400    229.02457   -211.86754    216009.12   -18830.741    1331.9062   -20162.647    -298.0738    103.06514    78.781928    22.597045    25.636276 
   15600    247.31644    -497.0854    216009.12   -18657.817    1438.2837   -20096.101   -1528.0051    103.58385    78.781554    22.597683    25.629998 
   15800    233.63038   -494.25599    216009.12   -18687.145    1358.6916   -20045.837   -1574.8631      104.723    78.781227    22.595858    25.657894 
   16000    238.34904   -227.89521    216009.12   -18707.394    1386.1332   -20093.527    -340.9057    105.08982    78.779024     22.59573    25.694345 
   16200    242.22122   -408.45191    216009.12   -18694.766    1408.6522   -20103.418   -1116.0811    106.67428    78.779511     22.59601    25.660789 
   16400    236.09299   -86.453596    216009.12    -18731.85     1373.013   -20104.863     194.5135    107.40749    78.778431    22.595703    25.660258 
   16600    236.33244   -449.06983    216009.12   -18678.456    1374.4056   -20052.862   -1344.2407    109.25922    78.780106    22.596835    25.636073 
   16800    236.27719   -228.72974    216009.12   -18705.318    1374.0842   -20079.402   -345.23148    110.00354    78.780961    22.595737    25.630899 
   17000    231.96436   -490.00154    216009.12   -18784.393    1349.0028   -20133.396   -1483.2198    110.54524     78.77955    22.594077    25.641075 
   17200    228.36958    -450.3039    216009.12    -18758.91    1328.0971   -20087.007   -1375.4407    110.89936    78.780127    22.592962    25.651407 
   17400    231.82393   -449.62523    216009.12   -18797.896    1348.1861   -20146.082   -1358.5084    111.88276    78.782043     22.59587    25.674637 
   17600    232.30525   -194.91183    216009.12   -18762.461    1350.9852   -20113.447   -326.73958    113.46286    78.781676    22.593852    25.650355 
   17800     229.7719   -428.73238    216009.12   -18752.809    1336.2524   -20089.061   -1237.9506    114.26356    78.780698    22.595964    25.626133 
   18000    236.47554   -319.03935    216009.12   -18721.073    1375.2378   -20096.311   -779.13474    115.00978    78.782422    22.596332    25.628841 
   18200    232.04737   -466.69086    216009.12   -18749.001    1349.4855   -20098.486   -1430.4689    115.77144    78.782278    22.595861    25.626851 
   18400    231.88116   -271.17605    216009.12   -18731.096    1348.5189   -20079.615   -612.49975    116.67966    78.780281    22.594802     25.61843 
   18600    231.15508   -264.44966    216009.12   -18739.598    1344.2963   -20083.895   -575.38055    117.78186    78.776764    22.594312    25.630113 
   18800    231.75166   -318.68961    216009.12   -18757.016    1347.7658   -20104.782   -773.03542    118.82381    78.777991    22.593068    25.599385 
   19000    239.03644   -70.506663    216009.12   -18716.987    1390.1308   -20107.118    238.82482    119.50182    78.777268    22.595197    25.597495 
   19200    238.04183   -474.99119    216009.12   -18723.213    1384.3466    -20107.56   -1463.5612    121.02463    78.776665    22.596717    25.593809 
   19400    238.45376    -266.6297    216009.12    -18700.75    1386.7423   -20087.492   -537.88295    121.56025    78.775934    22.601599    25.581307 
   19600    234.44526   -382.70035    216009.12   -18721.799    1363.4306   -20085.229   -1057.6427    123.46948    78.775229    22.605114    25.592558 
   19800    237.82297   -367.58157    216009.12   -18690.412    1383.0739   -20073.486   -976.21782    124.57258      78.7747    22.603913    25.608065 
   20000    234.65826   -261.48461    216009.12   -18690.416    1364.6693   -20055.085   -524.77741    125.27975    78.776278    22.603697    25.618962 
   20200    226.80679    -321.6422    216009.12   -18714.402    1319.0086   -20033.411   -807.24568     126.6843    78.777775     22.60271    25.630951 
   20400    235.22368   -214.61023    216009.12   -18625.087    1367.9575   -19993.044   -369.92352    127.20192     78.77755     22.60212    25.645919 
   20600    235.77241   -333.76545    216009.12   -18701.152    1371.1487   -20072.301   -819.46437    130.15055    78.777742    22.600163    25.661099 
   20800    228.10353   -393.07201    216009.12    -18634.34    1326.5499    -19960.89   -1065.1213    131.83221    78.775124    22.600352    25.661169 
   21000    232.02199    -288.2987    216009.12    -18668.83    1349.3379   -20018.168   -605.10712    133.12814     78.77388       22.599    25.658878 
   21200    242.89728    -353.4428    216009.12   -18639.184    1412.5838   -20051.768   -910.27773    134.35756      78.7716    22.597568    25.663803 
   21400    240.75111     -182.554    216009.12    -18648.71    1400.1026   -20048.813   -226.75117    135.36646    78.770194    22.599859    25.686854 
   21600    242.34566   -370.99786    216009.12   -18593.121    1409.3759   -20002.497   -964.24656    136.83741    78.769089    22.601196    25.672119 
   21800    236.12768   -373.40304    216009.12   -18729.127    1373.2148   -20102.341   -1000.9238     137.2632    78.771965    22.602678    25.672327 
   22000    224.38155   -332.36921    216009.12   -18741.184    1304.9045   -20046.088   -802.76619    138.16542    78.773771    22.602368     25.66312 
   22200    230.91295   -283.88878    216009.12   -18749.009    1342.8882   -20091.897   -607.23032    139.58258    78.774854     22.60105    25.671464 
   22400      236.476   -224.13078    216009.12    -18633.91    1375.2405    -20009.15   -346.06137    140.57706    78.773113    22.602025    25.690454 
   22600    241.53635   -319.65007    216009.12   -18642.309    1404.6693   -20046.978   -824.04506    140.75087    78.772496    22.602324    25.680157 
   22800    234.89703   -181.36622    216009.12    -18612.94    1366.0579   -19978.998   -203.02273    140.28579    78.773688    22.603729    25.683653 
   23000     233.7446   -397.77051    216009.12   -18680.864    1359.3559    -20040.22   -1147.2212    142.13241    78.774435     22.60465    25.687258 
   23200    240.10471   -218.38203    216009.12    -18642.59    1396.3435   -20038.933   -344.18455    142.57131    78.774598    22.605704    25.662131 
   23400    236.82831   -269.10229    216009.12   -18677.345    1377.2893   -20054.634   -553.33386    143.59466    78.776245    22.605341    25.651039 
   23600      240.624   -266.70439    216009.12   -18646.079    1399.3634   -20045.442   -543.14604    144.85107    78.777987    22.603177    25.653736 
   23800    241.45252   -460.22401    216009.12   -18673.299    1404.1817   -20077.481   -1347.8437     147.7143    78.780077    22.601976    25.657872 
   24000    239.28353    -200.7525    216009.12   -18688.696    1391.5678   -20080.264   -252.39362    148.86287    78.781484    22.601904    25.648271 
   24200    235.74357   -373.72307    216009.12   -18695.297     1370.981   -20066.278   -991.30935    150.21026     78.78187    22.602044      25.6487 
   24400    229.72969   -213.32465    216009.12    -18721.17    1336.0069   -20057.177   -305.68226    151.20804    78.780367     22.60291     25.67514 
   24600    228.33544   -382.86424    216009.12   -18758.311    1327.8986    -20086.21   -1024.4792    151.05499    78.780268    22.600997    25.663554 
   24800    236.57646   -491.82927    216009.12   -18736.433    1375.8247   -20112.258   -1532.1231    153.92452    78.780568    22.601638    25.656818 
   25000    235.08662   -239.65443    216009.12   -18738.501    1367.1604   -20105.661   -428.32938    154.43489    78.781795    22.604075    25.637868 
   25200    224.35266   -452.36716    216009.12   -18814.748    1304.7364   -20119.485   -1316.5841    155.68007    78.784959     22.60452    25.642736 
   25400    235.01204   -310.49897    216009.12   -18739.606    1366.7267   -20106.332   -720.66261     157.7931    78.787484    22.604144    25.670342 
   25600    239.60518   -236.73121    216009.12   -18617.229    1393.4384   -20010.667   -440.92772    157.67348    78.790644    22.603701    25.650752 
   25800    241.25977   -137.30036    216009.12   -18640.078    1403.0608   -20043.139    18.523692    158.82068    78.792708    22.603829    25.631661 
   26000    233.45517   -357.60029    216009.12   -18685.009    1357.6726   -20042.681    -907.7853    159.91431    78.791441     22.60236    25.625999 
   26200    234.53845   -272.54718    216009.12   -18693.302    1363.9725   -20057.275   -556.22364    161.00318    78.791821    22.603461    25.621612 
   26400    237.32156   -191.10821    216009.12   -18717.999    1380.1579   -20098.157    -278.9564    161.36961    78.790927    22.605114    25.612799 
   26600    240.80102   -270.76216    216009.12   -18621.957    1400.3929    -20022.35   -540.75462    161.97517    78.790625     22.60376    25.628649 
   26800    239.89233   -205.02728    216009.12   -18672.257    1395.1083   -20067.365    -255.3849    164.15908    78.789226    22.603337    25.630183 
   27000    235.08236   -483.39149    216009.12   -18590.894    1367.1356   -19958.029   -1469.9805    166.43444     78.78741    22.599888    25.628849 
   27200    235.70406   -176.41292    216009.12   -18666.592    1370.7512   -20037.343   -154.90196    167.36551    78.791728    22.597862    25.624659 
   27400    237.03821   -436.10308    216009.12   -18630.496      1378.51   -20009.006   -1287.8581    170.09051    78.796139    22.597384    25.645596 
   27600    227.11594   -396.85437    216009.12   -18769.374    1320.8065   -20090.181   -1113.3569    171.77668    78.797513     22.59467    25.655343 
   27800    237.52278   -293.17419    216009.12   -18644.458    1381.3281   -20025.786   -647.83299    170.58262    78.796515    22.592881    25.654258 
   28000    228.86274   -365.06696    216009.12   -18729.343    1330.9651   -20060.308   -931.47891    172.75521    78.797047    22.591234    25.610406 
   28200    234.04041   -330.28337    216009.12   -18728.173    1361.0761   -20089.249   -785.72075    174.45125    78.797537    22.589963    25.591352 
   28400    231.58359   -366.34519    216009.12    -18742.26    1346.7884   -20089.049   -975.00034    176.07346    78.796932    22.589262    25.586173 
   28600    230.30522   -415.48773    216009.12    -18747.97    1339.3539   -20087.324   -1117.4298    176.78389    78.794943    22.590286    25.592313 
   28800    232.72506   -223.37877    216009.12   -18743.621    1353.4267   -20097.047   -380.66193    176.00314    78.795661    22.590781    25.580479 
   29000    239.87889   -341.44031    216009.12   -18732.439    1395.0302   -20127.469   -907.29067    176.76976    78.795966    22.593828    25.582574 
   29200    238.54104   -212.87022    216009.12   -18708.383    1387.2498   -20095.633   -287.59381    178.17854    78.796045    22.595776    25.564296 
   29400    242.29339   -488.53577    216009.12   -18724.508    1409.0719    -20133.58   -1520.0628    179.69033    78.796352      22.5961    25.570525 
   29600    240.71517    -287.9639    216009.12   -18749.918    1399.8936   -20149.812   -646.50739    180.72451     78.79384    22.595281    25.581775 
   29800    233.20248   -316.12796    216009.12   -18831.105    1356.2031   -20187.308   -767.60439     182.6029    78.793045    22.593285    25.585667 
   30000    231.92761   -297.25845    216009.12     -18847.3     1348.789   -20196.089   -651.39671    183.04614     78.79257    22.592753    25.612289 
   30200    237.48236   -273.76997    216009.12   -18796.702     1381.093   -20177.795   -574.70186    184.51279    78.794147    22.591744    25.642187 
   30400    225.84537   -312.81403    216009.12   -18773.347    1313.4174   -20086.764   -679.15257    185.26975    78.794537    22.591034    25.668898 
   30600     230.1336    -418.9564    216009.12   -18806.204    1338.3558    -20144.56   -1188.8108    186.40734    78.794371     22.59169    25.664621 
   30800    234.27994   -308.65302    216009.12   -18786.132    1362.4691   -20148.601   -706.13914     187.1919    78.793263    22.592312    25.649727 
   31000    232.24272   -378.44511    216009.12   -18757.671    1350.6216   -20108.293   -974.65951    187.68602    78.791483    22.592155    25.622345 
   31200    235.49199   -435.00605    216009.12   -18713.084    1369.5179   -20082.602    -1240.064    188.58614    78.791502    22.592559      25.6421 
   31400    233.16571   -273.89752    216009.12   -18712.108    1355.9893   -20068.098   -622.16302     189.6139     78.79106    22.593969      25.6377 
   31600    238.14294   -384.91141    216009.12   -18783.875    1384.9347    -20168.81    -1008.001    191.79019    78.790906    22.595366    25.648104 
   31800    230.91027    -322.5718    216009.12   -18715.123    1342.8726   -20057.995   -804.05627     192.0426    78.789653    22.597012    25.625594 
   32000    227.80406   -244.94691    216009.12   -18831.949    1324.8083   -20156.757   -450.97065    192.67606    78.787238    22.599687    25.630803 
   32200    234.33192   -373.45637    216009.12   -18803.924    1362.7715   -20166.695   -966.30467    193.95939    78.787383    22.599055    25.653028 
   32400    239.89665    -234.7421    216009.12   -18801.843    1395.1334   -20196.977   -408.95427    194.98445    78.785166    22.599212    25.644289 
   32600    235.68001   -476.07489    216009.12   -18700.302    1370.6113   -20070.913   -1416.5673     195.8375    78.783115     22.59906    25.662159 
   32800       240.36   -483.79556    216009.12   -18697.956    1397.8281   -20095.784   -1483.3953    196.67522    78.784748    22.598568    25.666166 
   33000    235.85816   -137.16607    216009.12   -18701.442    1371.6474    -20073.09   -19.390452    199.00776    78.782771    22.600087     25.63654 
   33200    231.40586   -371.39539    216009.12   -18712.355    1345.7547    -20058.11   -980.69698    199.69635     78.77857    22.599734    25.634713 
   33400    236.20314   -395.44505    216009.12   -18751.392    1373.6536   -20125.046   -1065.3965    199.52187    78.778779    22.601096    25.638338 
   33600    237.57909   -201.71129    216009.12   -18751.658    1381.6556   -20133.314   -235.99989     200.6367    78.777927    22.600386    25.647803 
   33800    236.83718   -446.76081    216009.12   -18599.253    1377.3409   -19976.594   -1302.4716    203.47796    78.780259    22.598954    25.660002 
   34000    233.70208   -230.60731    216009.12   -18694.181    1359.1085   -20053.289    -411.3164    204.30571    78.780997    22.598682    25.650487 
   34200    228.91772   -357.09509    216009.12   -18678.733    1331.2848   -20010.018   -914.87021    204.69688    78.782676    22.599356    25.668683 
   34400    230.07651   -304.12438    216009.12    -18714.43    1338.0238   -20052.454   -696.65485    204.15308    78.784344    22.599567    25.665378 
   34600    234.34792   -295.26538    216009.12   -18577.739    1362.8645   -19940.603   -647.66455    206.20566    78.786759    22.599394    25.658178 
   34800    234.66017   -324.49301    216009.12   -18687.793    1364.6804   -20052.473   -819.93697    208.89542    78.785891    22.599005    25.670517 
   35000    232.76136    -377.5856    216009.12   -18705.581    1353.6377   -20059.219   -991.87986    209.08557    78.784997    22.598942    25.680385 
   35200    239.57138   -413.78902    216009.12   -18623.853    1393.2418   -20017.095   -1192.8946    210.44198    78.784758    22.598543     25.68341 
   35400    237.36172   -328.82778    216009.12   -18667.375    1380.3914   -20047.766   -806.34883    209.94445    78.786872     22.59891     25.64259 
   35600    237.52812   -383.45965    216009.12   -18696.018    1381.3592   -20077.377   -995.65841    211.26585    78.786968    22.597688    25.629318 
   35800    240.42954   -245.38307    216009.12   -18596.476    1398.2325   -19994.709   -494.83167    210.92851    78.787924    22.599051    25.597551 
   36000    232.76878   -420.61479    216009.12   -18689.763    1353.6809   -20043.444     -1187.19    211.58962    78.788619     22.59906    25.587819 
   36200    245.97018   -329.68309    216009.12   -18671.595    1430.4544   -20102.049   -873.90669    211.92035      78.7877    22.599579    25.538274 
   36400    239.90846   -228.69226    216009.12   -18661.698    1395.2021     -20056.9   -405.21513    214.11578    78.783445    22.598664    25.541369 
   36600    237.70773    -352.3229    216009.12   -18652.285    1382.4037   -20034.688   -933.79456    215.48764    78.783481    22.596721    25.508046 
   36800    228.99911   -346.09279    216009.12   -18755.386    1331.7581   -20087.144   -911.79253    218.14256    78.783855    22.597516    25.507441 
   37000    237.00799   -311.83023    216009.12   -18716.321    1378.3343   -20094.655   -704.71472    219.82326     78.78225    22.596024    25.510263 
   37200    227.68146    -198.3737    216009.12   -18743.741    1324.0953   -20067.836   -262.31181    221.88908    78.784907    22.597206    25.514104 
   37400    238.71796   -208.93627    216009.12   -18705.517    1388.2787   -20093.796   -259.16825    222.29803    78.785692    22.600693    25.515173 
   37600    232.63081   -324.00594    216009.12   -18707.694    1352.8785   -20060.572    -786.7617    224.08346    78.786255    22.601956    25.529734 
   37800     231.4191   -409.19678    216009.12   -18771.261    1345.8318   -20117.093   -1145.7676    224.87979    78.786866     22.60152    25.528853 
   38000    235.60318   -130.51159    216009.12   -18691.141    1370.1645   -20061.305    70.601957    223.85179     78.78389    22.603547    25.548874 
   38200     238.6743   -420.85449    216009.12   -18721.703    1388.0248   -20109.728   -1219.6174    225.31014    78.783607     22.60287    25.561154 
   38400    239.76999   -308.78387    216009.12   -18688.809    1394.3969   -20083.206   -778.94573    225.22946    78.781761    22.604179    25.597063 
   38600    230.07056   -364.52384    216009.12   -18689.722    1337.9893   -20027.711   -979.14372    225.76643    78.782913    22.606302    25.611378 
   38800    235.13273   -288.13847    216009.12   -18707.672    1367.4286   -20075.101   -669.25487    225.69716    78.783206     22.60461    25.596338 
   39000    237.13251   -215.68133    216009.12   -18677.931    1379.0585   -20056.989   -347.84187     226.1918    78.783909    22.603032    25.596169 
   39200    228.65641   -359.48544    216009.12   -18772.575    1329.7652    -20102.34    -936.2919    227.10219    78.782012    22.601726    25.589412 
   39400    235.63117   -347.31215    216009.12   -18707.445    1370.3273   -20077.773   -919.78649    228.10981    78.777833    22.600171    25.586648 
   39600    239.19058   -244.43481    216009.12    -18686.61    1391.0273   -20077.638   -468.74728    228.86679    78.779173    22.599178    25.588323 
   39800    233.01121   -272.18166    216009.12   -18738.461    1355.0907   -20093.551   -586.82809     231.3847    78.780212    22.600097    25.613314 
   40000    228.83588   -273.50326    216009.12   -18695.459    1330.8089   -20026.268   -600.94733    232.66946    78.781288    22.597744    25.599239 
   40200    241.36628   -308.45802    216009.12     -18712.4    1403.6802    -20116.08   -767.59731    232.58898    78.781537     22.59646    25.589281 
   40400    225.99951   -369.90231    216009.12   -18759.518    1314.3138   -20073.832   -964.74729    233.97513    78.780793    22.598979     25.58254 
   40600    238.86006    -252.0043    216009.12   -18682.316    1389.1051   -20071.421   -482.19199     234.1619    78.781366    22.600925     25.59539 
   40800    233.85356    -269.3267    216009.12   -18758.027    1359.9895   -20118.017   -594.92413    235.43819    78.781866     22.60109    25.625971 
   41000     230.9462    -175.6445    216009.12   -18716.788    1343.0816   -20059.869   -178.37336    237.90557    78.781903    22.600458    25.608084 
   41200    241.65869   -329.83329    216009.12   -18653.902    1405.3807   -20059.283   -794.89839     238.7041    78.783975    22.599923    25.620874 
   41400    233.52067   -489.89655    216009.12   -18700.537    1358.0535    -20058.59   -1500.2587    241.20521    78.784907    22.600736    25.636549 
   41600    235.51233   -471.61676    216009.12   -18704.465    1369.6362   -20074.102    -1434.641    239.96054    78.787796    22.601352    25.627278 
   41800    238.16191   -258.86747    216009.12   -18688.737    1385.0449   -20073.782   -529.70712    240.05857    78.790011    22.601528    25.617871 
   42000    230.34588    -260.1765    216009.12   -18740.479    1339.5904    -20080.07   -524.81264    242.92064    78.789001    22.602526    25.633436 
   42200    233.21747   -155.08162    216009.12   -18749.515    1356.2903   -20105.805   -79.988212    243.91952    78.788155    22.602398    25.632695 
   42400    237.81903   -301.08328    216009.12   -18722.814    1383.0509   -20105.865   -714.24475     244.1893    78.789154    22.602312    25.634199 
   42600    235.16986   -398.50533    216009.12   -18763.642    1367.6446   -20131.286   -1099.5793    244.59912     78.78828    22.602575    25.646936 
   42800    230.62615   -273.28085    216009.12   -18721.446    1341.2203   -20062.666   -579.33879    244.89406    78.786326    22.605813    25.645737 
   43000    236.51597   -305.78526    216009.12   -18704.093    1375.4729   -20079.566   -710.14397    245.26825    78.784229    22.606355     25.66884 
   43200    236.60476   -354.76391    216009.12   -18702.025    1375.9893   -20078.014   -949.03921    245.98669    78.782833    22.605261     25.67807 
   43400    235.94705    -234.9708    216009.12   -18711.933    1372.1643   -20084.097   -404.01288    247.51897    78.780563    22.604364    25.665152 
   43600    230.82476   -262.52869    216009.12   -18729.474    1342.3753   -20071.849   -525.75029    249.02506    78.781169    22.604791    25.650496 
   43800    235.93161   -370.46291    216009.12   -18779.286    1372.0745   -20151.361   -943.46863     249.2967    78.782595    22.606327    25.645504 
   44000    233.83269   -444.94039    216009.12   -18804.717    1359.8681   -20164.585    -1308.102    250.53062    78.780355    22.606511    25.633038 
   44200    233.24295   -165.34584    216009.12   -18720.239    1356.4385   -20076.678   -120.06151    250.64492    78.779697    22.606998     25.62528 
   44400    232.61055   -310.51952    216009.12   -18730.316    1352.7607   -20083.076   -719.07122    252.01389    78.779043    22.609198    25.629034 
   44600    227.19886    -262.9453    216009.12   -18725.352    1321.2887   -20046.641    -534.7729    252.97087    78.777881    22.609014    25.623238 
   44800    234.43569   -227.97602    216009.12   -18736.766    1363.3749   -20100.141   -385.45997    254.89737    78.777819    22.611977    25.615813 
   45000    232.67856   -245.62931    216009.12    -18698.44    1353.1562   -20051.596   -471.44415    254.96421    78.776411    22.611829    25.619921 
   45200    230.00753   -413.60163    216009.12   -18631.892    1337.6227   -19969.515   -1164.6504     255.1116    78.776173    22.613251    25.619037 
   45400    228.93757   -328.51047    216009.12   -18724.575    1331.4003   -20055.975   -808.18211      256.915    78.775841    22.614251    25.603646 
   45600    237.47577   -57.496885    216009.12    -18667.56    1381.0547   -20048.615    322.84733     256.4777    78.774022    22.614935    25.611589 
   45800    242.25734   -392.89315    216009.12   -18707.615    1408.8622   -20116.477   -1097.4004    257.64494    78.774812    22.616286    25.596727 
   46000     237.1556   -355.58879    216009.12   -18600.563    1379.1927   -19979.756   -993.20743    257.98171    78.772657    22.616831    25.585627 
   46200    232.20046   -267.76898    216009.12   -18577.806    1350.3758   -19928.182   -560.32532    259.47733    78.771519    22.619442    25.563201 
   46400    237.87097    -269.2856    216009.12    -18659.39     1383.353   -20042.743   -614.43117    260.71091    78.772679    22.622644    25.557126 
   46600     233.1762   -549.45551    216009.12   -18663.408    1356.0503   -20019.458   -1748.3708    263.25682    78.773403    22.626013    25.549242 
   46800    237.35161   -233.13833    216009.12   -18642.435    1380.3326   -20022.767   -445.12625    265.36133     78.77411    22.625596    25.568381 
   47000    237.79471   -174.39299    216009.12    -18630.43    1382.9095    -20013.34   -132.10935    267.92647    78.775367    22.625847    25.568892 
   47200    228.53985   -325.02758    216009.12   -18743.004    1329.0873   -20072.092   -789.89785    269.63513    78.777193    22.626263    25.563372 
   47400    231.61392   -406.83086    216009.12   -18693.724    1346.9647   -20040.688   -1110.0608    269.87442    78.776855    22.624788    25.554501 
   47600    239.50245    -385.4973    216009.12   -18743.437    1392.8409   -20136.278   -1036.4801     272.0952    78.780103    22.624376    25.556867 
   47800    230.74663   -394.62001    216009.12   -18678.077     1341.921   -20019.998   -1106.6597    274.91563    78.780192    22.622786    25.573617 
   48000    231.26326   -143.67333    216009.12    -18685.34    1344.9254   -20030.265   -49.643645    275.47467    78.780749    22.623542     25.55763 
   48200    238.49761   -251.85681    216009.12   -18705.951    1386.9972   -20092.948    -510.8812     277.4656    78.780046    22.622648    25.549712 
   48400    236.38976   -264.52365    216009.12   -18688.767    1374.7389   -20063.506   -540.37018    277.36726    78.780627    22.623418    25.525821 
   48600    229.97965    -314.0091    216009.12   -18762.139    1337.4605   -20099.599   -770.46371    279.14116    78.782583    22.624349    25.561369 
   48800    232.08136   -274.64454    216009.12   -18732.273    1349.6831   -20081.956   -573.00278    281.04951    78.783253    22.625378    25.561561 
   49000    234.29175   -385.14299    216009.12   -18703.177    1362.5378   -20065.715   -1029.7657    281.44518    78.784343    22.626224     25.57324 
   49200    240.10095   -183.99398    216009.12   -18656.082    1396.3216   -20052.404   -206.63173    282.42814    78.784873    22.624739    25.587546 
   49400    236.67813   -204.38528    216009.12   -18730.825    1376.4159   -20107.241   -294.04897    284.43758    78.784024    22.627898    25.608368 
   49600    231.16174   -339.99884    216009.12    -18716.19     1344.335   -20060.525   -866.82163    285.10448     78.78677     22.62898     25.62812 
   49800    232.87511   -319.90094    216009.12   -18715.184    1354.2993   -20069.483   -787.87072    285.15437    78.791139    22.629559    25.648756 
   50000    230.66615   -326.10123    216009.12   -18722.066    1341.4529   -20063.519   -855.89324    285.02947    78.792351    22.630523    25.627842 
   50200    240.48743   -326.40961    216009.12   -18660.572    1398.5692   -20059.141   -812.49587    286.82644    78.789709    22.630715    25.618345 
   50400    233.06095   -270.07103    216009.12   -18702.245      1355.38   -20057.625   -575.43137    287.56405     78.78942    22.632659    25.624209 
   50600    240.65757   -356.85059    216009.12   -18614.496    1399.5586   -20014.055   -948.78875    289.67535    78.789266    22.635394    25.613453 
   50800    229.93961    -259.0505    216009.12   -18767.405    1337.2277   -20104.632   -518.27689    289.19292    78.790936     22.63787    25.633514 
   51000    232.24502   -160.47335    216009.12   -18700.662     1350.635   -20051.297   -137.19041    288.50289    78.792825     22.63825    25.619173 
   51200    233.50068   -311.93485    216009.12   -18736.582    1357.9373   -20094.519   -696.37162    288.70365    78.792535    22.638887    25.630939 
   51400    232.11529   -112.61789    216009.12   -18729.903    1349.8805   -20079.784    79.963155    288.10204    78.792379    22.640299    25.623152 
   51600    239.52381   -266.32515    216009.12   -18740.793    1392.9652   -20133.758   -571.76236    289.35815    78.792011    22.639724    25.606494 
   51800    235.77449   -418.91031    216009.12   -18685.417    1371.1608   -20056.578   -1210.0714    291.11691     78.79016    22.642597    25.601081 
   52000    234.91995   -286.55342    216009.12   -18735.986    1366.1912   -20102.177   -636.21642    292.48061    78.788795    22.645466    25.627781 
   52200    226.16074   -106.24885    216009.12    -18738.95    1315.2515   -20054.202    87.343426    293.51566    78.790528    22.645964     25.64202 
   52400    226.73849    -423.3576    216009.12    -18751.53    1318.6114   -20070.141   -1223.8725    294.64313    78.796016    22.644551    25.668535 
   52600    231.85009   -320.08826    216009.12   -18694.239    1348.3382   -20042.577   -824.09167    295.40334    78.798778    22.642998    25.659521 
   52800    241.80903   -240.82878    216009.12   -18622.433     1406.255   -20028.688   -433.66547    296.66987    78.803324     22.64343    25.662293 
   53000    240.62607    -203.4739    216009.12   -18614.985    1399.3755    -20014.36   -334.02216    297.60815    78.805679    22.642101    25.662294 
   53200    229.75699   -486.43812    216009.12   -18724.909    1336.1656   -20061.074   -1458.6291    298.28842    78.807841    22.642706    25.675282 
   53400    239.42285   -191.48343    216009.12   -18702.976     1392.378   -20095.354   -239.13081    300.51293     78.80711    22.642699    25.668015 
   53600    225.02701   -152.85489    216009.12   -18731.353    1308.6582   -20040.011   -71.604946    300.11298    78.806026    22.638468     25.67523 
   53800    232.28465   -286.38756    216009.12   -18711.206    1350.8654   -20062.071   -620.01167    300.60682    78.806005    22.636692    25.676514 
   54000    235.08409   -296.76671    216009.12   -18677.656    1367.1457   -20044.801   -703.63676    302.36603    78.807561    22.636787    25.681858 
   54200    241.02394   -371.38795    216009.12   -18674.486    1401.6893   -20076.175   -1031.7467     303.7884    78.807779    22.636575    25.678922 
   54400    239.57991   -403.23149    216009.12   -18639.023    1393.2914   -20032.314   -1152.5844    305.62677    78.808084    22.639062    25.687699 
   54600    233.70271   -249.30584    216009.12   -18662.663    1359.1122   -20021.775   -520.64146    306.45442    78.807616    22.638996     25.67425 
   54800    234.18788   -356.18091    216009.12   -18631.784    1361.9337   -19993.717   -930.94957    307.70675    78.808849    22.639042    25.683042 
   55000     242.3281    -395.5758    216009.12   -18586.358    1409.2737   -19995.631   -1117.0892       308.94    78.808326    22.639137    25.687191 
   55200    231.13632   -369.23989    216009.12   -18734.596    1344.1872   -20078.784   -1027.3032     310.4337      78.8091    22.638255    25.713054 
   55400    236.63103   -79.058346    216009.12   -18716.352    1376.1421   -20092.494    213.14995    312.72019    78.808877    22.638024    25.720077 
   55600    238.65996   -176.71148    216009.12    -18713.01    1387.9414   -20100.951   -170.29176    315.37455    78.809528    22.637382    25.727471 
   55800    239.65148   -356.34166    216009.12     -18579.8    1393.7077   -19973.507    -987.1408    317.18156    78.808647    22.639014    25.714165 
   56000    235.70617   -258.36352    216009.12    -18619.98    1370.7634   -19990.744   -521.17437    316.50335    78.808013    22.640657    25.705747 
   56200    230.71996   -212.47489    216009.12   -18630.031    1341.7659   -19971.797   -318.13533     317.1354    78.807334    22.641858     25.70622 
   56400    234.99752   -407.72862    216009.12   -18772.897    1366.6423   -20139.539   -1154.6915    317.48429    78.806646    22.643659     25.71817 
   56600    227.28152   -321.81135    216009.12   -18819.519    1321.7694   -20141.288   -779.38888    318.54803    78.807411     22.64207    25.711105 
   56800    232.26179   -442.04024    216009.12   -18767.182    1350.7325   -20117.914   -1273.2979    320.03829    78.806682    22.641082    25.706444 
   57000     232.7945   -170.11199    216009.12   -18854.984    1353.8305   -20208.814   -93.520831    319.91915    78.806467    22.639194    25.715873 
   57200    234.77486   -303.34462    216009.12   -18763.456    1365.3474   -20128.803   -672.35851    320.24817    78.806094    22.636571      25.7088 
   57400     235.4425   -260.21436    216009.12   -18807.535    1369.2301   -20176.765   -508.17545    321.64646    78.805435    22.634191    25.686906 
   57600    226.42822   -385.54749    216009.12   -18853.877     1316.807   -20170.684   -1064.9271    321.53153    78.806098    22.633253    25.668997 
   57800    235.63127   -321.12626    216009.12   -18777.861    1370.3279   -20148.189   -747.24626    323.54201    78.809207    22.635847     25.66046 
   58000    232.66602   -252.77493    216009.12   -18778.182    1353.0833   -20131.266    -475.1428    321.96575     78.81126    22.637962    25.659304 
   58200    240.57776   -246.27992    216009.12    -18745.58    1399.0945   -20144.674   -481.34112    320.92597    78.810954    22.638786    25.650001 
   58400    229.58656    -323.7524    216009.12   -18761.937    1335.1745   -20097.111   -843.08571    320.51442    78.811859    22.640002     25.63502 
   58600    228.63883   -308.69403    216009.12   -18766.392     1329.663   -20096.055   -725.68243    321.01303    78.811772      22.6413    25.657815 
   58800    232.98913   -375.28736    216009.12   -18769.246    1354.9624   -20124.208   -1016.3263    323.86605    78.813189    22.642723    25.640459 
   59000    243.89257    -285.5374    216009.12   -18724.358     1418.372    -20142.73   -678.84768    324.58004    78.815478     22.64491    25.639621 
   59200    233.68444   -380.37709    216009.12   -18762.628     1359.006   -20121.634   -1009.8298    325.09364    78.816391    22.644909    25.627953 
   59400    233.81067   -295.49773    216009.12   -18764.678    1359.7401   -20124.418   -722.95881    323.71184    78.813038    22.643541    25.637984 
   59600    231.44141   -254.25837    216009.12   -18810.564    1345.9615   -20156.525   -513.43485    324.06975    78.809107    22.644551    25.652366 
   59800    235.19732   -314.63037    216009.12   -18734.171    1367.8042   -20101.976   -779.54416    326.56683    78.808994    22.643548     25.64372 
   60000    228.97353   -270.11378    216009.12   -18700.943    1331.6094   -20032.553   -567.44644    328.58925    78.808537     22.64395    25.673784 
   60200    229.65327   -304.89145    216009.12   -18719.642    1335.5625   -20055.205   -683.10471    330.07448     78.80737     22.64184    25.693342 
   60400    229.63188   -105.65988    216009.12   -18676.069    1335.4381   -20011.507     84.75001    330.19229    78.807446     22.64113    25.691335 
   60600    242.43664   -263.22962    216009.12   -18635.751    1409.9049   -20045.656   -531.14081    332.77594    78.808289    22.639566    25.715576 
   60800    238.48452   -280.03849    216009.12    -18602.74    1386.9211   -19989.662   -566.16221    332.67678    78.807678    22.641715    25.721376 
   61000    231.07104   -364.25004    216009.12   -18692.549    1343.8076   -20036.356   -988.10748    334.59523    78.807614    22.642719    25.699927 
   61200    239.85285   -351.62355    216009.12   -18631.742    1394.8787   -20026.621   -936.67463    334.56374     78.80742    22.639845    25.715766 
   61400    240.47083   -217.78571    216009.12   -18657.553    1398.4727   -20056.025   -318.76183    337.52125    78.807752    22.637845    25.714046 
   61600    229.37619   -191.69909    216009.12   -18724.756    1333.9511   -20058.707   -244.31228    337.72988    78.809585    22.639074    25.699595 
   61800    231.53856   -306.15603    216009.12   -18765.799    1346.5265   -20112.325    -723.5882    337.83513    78.810127    22.636089    25.703421 
   62000     238.9946   -315.83219    216009.12   -18720.886    1389.8875   -20110.773   -790.93701    337.33127    78.810945    22.633364    25.714708 
   62200    239.18991   -307.14372    216009.12   -18681.209    1391.0234   -20072.233   -742.00359    338.92733    78.811502    22.630839    25.672261 
   62400    243.64565   -428.07336    216009.12   -18662.781     1416.936   -20079.717   -1254.6192    339.91823    78.809857    22.630404    25.666647 
   62600    232.90167   -363.34476    216009.12   -18717.138    1354.4537   -20071.591   -986.21342    340.43332    78.809867    22.628012    25.680188 
   62800    229.63315   -317.81789    216009.12   -18794.618    1335.4455   -20130.064   -798.89046    341.01809    78.807685    22.625772    25.673716 
   63000    232.03005   -167.97693    216009.12   -18695.895    1349.3848    -20045.28    -146.0083     341.7567    78.804107    22.624848    25.680117 
   63200    231.70636   -361.05912    216009.12   -18720.099    1347.5024   -20067.601   -984.61029    343.83828    78.802393    22.623874     25.67742 
   63400    229.67894   -369.71635    216009.12   -18777.432    1335.7118   -20113.144   -1008.2567     343.7168    78.801243    22.624644    25.671336 
   63600    235.35957    -293.9207    216009.12   -18749.607    1368.7478   -20118.355   -690.51181    344.01396    78.801954    22.623971    25.667406 
   63800    230.16869   -182.63106    216009.12    -18768.87    1338.5599    -20107.43   -212.13962     344.6745    78.803068    22.623213    25.645084 
   64000    234.94545   -261.62378    216009.12    -18666.51    1366.3394   -20032.849    -580.2188    345.30312    78.803808    22.622511    25.645272 
   64200    232.75699   -371.64799    216009.12   -18718.902    1353.6123   -20072.515   -997.57436    347.54749    78.803242    22.618122    25.638121 
   64400    229.63033   -281.18808    216009.12    -18717.21    1335.4291   -20052.639   -641.38494    348.22255    78.806085    22.616174    25.612659 
   64600    232.00694   -336.91258    216009.12   -18771.803    1349.2504   -20121.054   -847.96066    348.87317     78.80645    22.615042     25.60545 
   64800    234.84504   -206.55691    216009.12   -18749.078    1365.7555   -20114.833   -265.23951    349.23612      78.8077    22.616732    25.597898 
   65000    239.19925   -231.33515    216009.12   -18688.537    1391.0777   -20079.615   -397.44806    351.33787    78.807398    22.617764     25.59764 
   65200    231.83446   -435.41875    216009.12   -18713.666    1348.2473   -20061.914   -1269.1894    350.38329    78.807208    22.620555    25.556296 
   65400    235.18746   -294.83074    216009.12   -18729.009    1367.7469   -20096.755   -680.76455    348.79245    78.807882     22.62029    25.589682 
   65600    237.29762   -281.03883    216009.12   -18690.707    1380.0187   -20070.725   -661.42958     348.8763    78.808677    22.622085    25.584038 
   65800     238.3242   -489.45111    216009.12   -18720.016    1385.9888   -20106.005   -1521.7354    350.28023    78.807108    22.623267    25.585655 
   66000    236.13694   -166.16546    216009.12   -18716.928    1373.2687   -20090.196   -128.66299    350.41126    78.809122    22.623094     25.59148 
   66200    234.66171   -330.81925    216009.12   -18743.722    1364.6894   -20108.412   -815.72381    353.86742    78.811636    22.622374    25.600738 
   66400    233.89624   -251.82602    216009.12   -18734.369    1360.2377   -20094.606   -423.30808    353.08345    78.810796    22.623775    25.604997 
   66600    229.66791   -236.95576    216009.12   -18746.354    1335.6476   -20082.001   -427.84869    353.18489    78.809573    22.622982    25.598647 
   66800    228.80177   -238.26281    216009.12   -18774.051    1330.6105   -20104.662   -444.06954    354.09336    78.810377    22.624955    25.597923 
   67000    228.56328    -375.1745    216009.12   -18838.533    1329.2235   -20167.757   -979.88771    355.09636    78.809036    22.624272    25.603449 
   67200    236.11157   -380.93488    216009.12   -18773.241    1373.1211   -20146.362   -1059.9768    354.67421    78.809882    22.624297     25.60643 
   67400    235.86058   -152.23308    216009.12   -18743.207    1371.6615   -20114.868   -65.798847    354.73277      78.8096    22.626384    25.593545 
   67600    242.35543    -381.9812    216009.12   -18687.185    1409.4327   -20096.617   -999.37056    356.53811    78.812474    22.625802    25.592605 
   67800    230.23224   -305.52727    216009.12   -18734.901    1338.9295    -20073.83   -680.38258    356.37799    78.813564     22.62594    25.607915 
   68000    230.10407   -414.55618    216009.12    -18776.36    1338.1841   -20114.544   -1179.2543    357.65199       78.815    22.627686     25.61116 
   68200    232.72193   -492.36068    216009.12   -18799.153    1353.4084   -20152.562   -1533.1178    359.45171    78.815029    22.628297    25.616044 
   68400    235.47221   -248.07616    216009.12   -18730.416    1369.4029   -20099.818   -475.65483    358.83438    78.812591    22.626582    25.612339 
   68600    232.92958   -334.53533    216009.12   -18796.152     1354.616   -20150.768   -855.46935    358.73943    78.815445    22.625755    25.614987 
   68800    239.48212   -235.40761    216009.12   -18749.785    1392.7227   -20142.508   -393.43317    361.42068    78.817662    22.624998    25.595629 
   69000    236.09816   -235.84207    216009.12   -18752.802    1373.0431   -20125.845   -431.85569    360.42764    78.817325    22.625909    25.608145 
   69200    232.84735   -340.33625    216009.12   -18796.555    1354.1379   -20150.693   -869.49151    361.26514    78.817718    22.621674    25.596852 
   69400    235.92994   -272.53168    216009.12   -18860.649    1372.0648   -20232.714   -509.01205    361.29395    78.818609    22.623816    25.577908 
   69600    240.38306   -193.33958    216009.12   -18663.326    1397.9622   -20061.288   -196.73729    363.80264    78.819502    22.624014    25.600959 
   69800    229.86621   -476.50093    216009.12   -18787.716    1336.8008   -20124.517   -1452.8195    363.27921    78.820411    22.624486    25.575001 
   70000    238.65764    -208.3222    216009.12   -18740.681    1387.9279   -20128.609   -280.87977    362.92557    78.820444    22.623079    25.573478 
   70200    234.48966   -269.20018    216009.12   -18750.591    1363.6888   -20114.279   -588.27433    363.10399    78.820701    22.622335    25.583107 
   70400    233.79137   -374.83364    216009.12    -18710.78    1359.6278   -20070.408   -1039.1171    364.71982    78.819161     22.61961    25.578834 
   70600    236.21652   -314.94851    216009.12   -18795.882    1373.7314   -20169.614   -731.79809    365.81457     78.81698    22.618991    25.571349 
   70800    234.93621   -299.86368    216009.12    -18785.64    1366.2857   -20151.926   -700.65665    367.17435    78.817077     22.61849    25.554601 
   71000    232.28956   -140.15972    216009.12   -18792.742     1350.894   -20143.636   -44.153177    368.40568    78.818871    22.618649    25.542224 
   71200    241.05434   -380.04246    216009.12   -18754.345    1401.8661   -20156.211   -1071.7602    369.60088    78.817392     22.62102    25.520388 
   71400    228.15909   -337.06312    216009.12   -18796.366     1326.873   -20123.239   -865.18027    369.89148    78.820527    22.621527    25.507645 
   71600    237.84882   -411.44995    216009.12   -18726.753    1383.2242   -20109.977   -1162.1685      372.739    78.821518    22.624337    25.522317 
   71800    225.40787   -270.26445    216009.12    -18826.47    1310.8731   -20137.343   -558.10055     371.3381    78.823581    22.625235    25.516407 
   72000    231.44932   -431.57873    216009.12   -18792.841    1346.0075   -20138.849   -1228.8621     371.0135    78.823439    22.627091    25.503331 
   72200    241.87629   -52.472311    216009.12   -18677.299    1406.6462   -20083.945    356.17854     369.7177    78.824079    22.625677    25.471753 
   72400     233.7102   -470.93104    216009.12   -18764.675    1359.1558   -20123.831   -1460.3805    370.77418    78.824291    22.625182      25.4772 
   72600    233.27641    -254.0343    216009.12   -18739.908     1356.633   -20096.541   -507.66356    369.46991    78.826568    22.624802     25.46307 
   72800    234.51957   -194.81948    216009.12   -18742.028    1363.8627   -20105.891   -269.27066    372.71929     78.82703    22.625338    25.447543 
   73000    230.34114   -333.15844    216009.12   -18762.101    1339.5628   -20101.664    -891.9697    374.95582     78.82717    22.623612    25.463359 
   73200    239.25375   -427.72541    216009.12   -18667.347    1391.3946   -20058.742   -1228.1703    375.97971    78.829072    22.623877    25.466404 
   73400    235.28928   -213.31364    216009.12     -18679.4     1368.339   -20047.739   -362.20188     375.9967    78.829991    22.623091    25.476284 
   73600    235.32738   -156.47921    216009.12    -18646.81    1368.5606   -20015.371   -87.931597    377.55416    78.829796    22.623938    25.478173 
   73800    233.47854   -207.65868    216009.12   -18772.503    1357.8086   -20130.312   -243.08049     377.3912    78.829237    22.622965    25.479234 
   74000    229.54386   -306.26764    216009.12   -18777.309    1334.9262   -20112.235   -762.93447    376.91463    78.829854    22.623578    25.466706 
   74200    238.67499   -371.88318    216009.12   -18756.556    1388.0288   -20144.585   -1000.9534    377.04963    78.827796     22.62477    25.453994 
   74400    230.84936   -393.49556    216009.12   -18742.603    1342.5184   -20085.122   -1138.3593    377.54959    78.828543    22.627787    25.481886 
   74600    230.27669   -312.92224    216009.12   -18768.307     1339.188   -20107.495   -784.83531    379.59229    78.826055    22.623811    25.511391 
   74800    225.15931   -244.79031    216009.12   -18736.861    1309.4276   -20046.289   -440.50781    379.39273    78.824998    22.622167    25.502824 
   75000    235.23375   -289.36025    216009.12   -18756.274    1368.0161    -20124.29   -672.61982    381.65795    78.827243    22.619844    25.518237 
   75200    235.66896   -167.36427    216009.12   -18699.341    1370.5471   -20069.888   -163.09647    380.89036    78.828809    22.620395    25.489207 
   75400    234.68999   -143.12742    216009.12    -18715.14    1364.8538   -20079.994   -42.726788    382.32675    78.831243    22.619766    25.489315 
   75600    242.48975   -484.43615    216009.12   -18704.012    1410.2138   -20114.225   -1510.3132    383.61907    78.830765    22.620022    25.500913 
   75800    241.60096   -301.56322    216009.12   -18675.389     1405.045   -20080.434   -737.55167    384.78624    78.831188    22.617501    25.524405 
   76000    236.23985   -367.19895    216009.12    -18670.95    1373.8671   -20044.817   -1026.8521    387.02881    78.831652    22.617485    25.530381 
   76200    238.97419   -319.33414    216009.12   -18800.224    1389.7689   -20189.993   -789.06658    385.59726    78.829327    22.617261    25.517181 
   76400    232.79759   -271.99878    216009.12   -18729.064    1353.8484   -20082.912   -577.91701    386.22644    78.827508    22.615331    25.532623 
   76600    236.81975   -257.05716    216009.12   -18721.704    1377.2396   -20098.944   -531.59681    386.93483    78.825822    22.614132    25.538169 
   76800    233.32025    -265.8476    216009.12    -18736.26     1356.888   -20093.148   -555.17336    387.42727    78.823862    22.616541    25.512695 
   77000    232.26694   -259.51932    216009.12   -18687.672    1350.7624   -20038.434   -520.73303     389.7627    78.823733    22.617158    25.504197 
   77200    233.36367   -347.24569    216009.12   -18643.437    1357.1405   -20000.578    -846.8532    390.92537     78.82397    22.617941    25.524235 
   77400     233.7087   -404.25336    216009.12   -18633.844    1359.1471   -19992.991   -1155.8944    392.63407    78.824797    22.616973     25.50838 
   77600    237.87851   -378.21022    216009.12   -18667.809    1383.3968   -20051.206   -1012.7913    395.06046    78.827037    22.615637    25.517135 
   77800    242.22982    -400.7017    216009.12   -18671.159    1408.7022   -20079.862   -1128.9198    395.68842    78.827232    22.616174     25.52057 
   78000    233.44017   -312.25281    216009.12   -18719.481    1357.5854   -20077.066   -784.70966     397.1366    78.827119    22.615178     25.51656 
   78200    233.76796   -295.15762    216009.12   -18640.423    1359.4917   -19999.915   -696.53353    399.27842      78.8267    22.617506    25.523616 
   78400    237.43462   -344.08716    216009.12     -18651.8    1380.8154   -20032.615   -885.95713    400.44464    78.828147    22.618589    25.520339 
   78600    237.69673    -328.0757    216009.12     -18650.4    1382.3397    -20032.74   -786.15252    403.72607    78.828318    22.620451    25.505293 
   78800    238.60236   -449.18875    216009.12   -18655.983    1387.6064   -20043.589   -1346.9989    405.50947    78.827385    22.620723    25.470499 
   79000    235.31163   -378.66966    216009.12   -18611.708     1368.469   -19980.177   -1022.9216    405.38156    78.824189    22.620756    25.469962 
   79200    231.34785   -211.81234    216009.12   -18595.289    1345.4174   -19940.707   -415.27864    404.88492    78.824804    22.620685    25.467186 
   79400    240.82467   -334.06653    216009.12   -18614.008    1400.5304   -20014.539   -867.87904    406.47926    78.824364    22.621484    25.469983 
   79600    232.47689   -298.48126    216009.12   -18703.866    1351.9834   -20055.849   -677.78251    407.27904    78.822515     22.62185     25.48406 
   79800    234.60846   -372.52078    216009.12   -18713.752    1364.3797   -20078.131   -1010.9173    407.93024    78.822692    22.621468    25.491976 
   80000    232.76784   -369.13128    216009.12   -18733.127    1353.6755   -20086.803   -981.50972    410.83869    78.823188    22.622162    25.475125 
   80200    233.25977   -342.63599    216009.12   -18720.503    1356.5363   -20077.039   -855.48684    412.15553    78.821792    22.622255    25.462237 
   80400    232.56903   -25.986627    216009.12    -18751.58    1352.5193   -20104.099    477.63174    412.18005     78.81984    22.623301    25.481748 
   80600    232.62151   -316.91468    216009.12   -18716.565    1352.8245   -20069.389   -787.83378     413.8376    78.818896    22.623371    25.497518 
   80800    228.69845   -373.88022    216009.12   -18704.178    1330.0097   -20034.188   -993.39835    413.77261    78.817914    22.625187    25.520662 
   81000    234.37012   -322.69917    216009.12   -18680.465    1362.9936   -20043.459   -832.15196    412.85875    78.819022    22.627839     25.54344 
   81200    238.11321   -375.39021    216009.12    -18685.52    1384.7617   -20070.282   -1039.3126    413.60592    78.818807    22.628474    25.558166 
   81400    234.22359   -247.99979    216009.12    -18710.83    1362.1415   -20072.972   -468.59299    413.26755    78.820035    22.628934    25.552534 
   81600    231.39537   -358.12555    216009.12   -18737.627    1345.6937   -20083.321   -909.85989    414.30046    78.822061     22.62739    25.552437 
   81800    226.24206   -374.50337    216009.12   -18812.414    1315.7243   -20128.138   -987.95264    415.25919    78.822656    22.625453     25.52877 
   82000    237.31802   -169.21511    216009.12   -18744.112    1380.1373   -20124.249   -114.20174    414.09753    78.822391    22.627841    25.518544 
   82200    237.72175   -419.79474    216009.12   -18664.124    1382.4852   -20046.609   -1230.2689    416.87191    78.822906    22.627472    25.503299 
   82400    234.29391    -277.5458    216009.12   -18671.624    1362.5504   -20034.174   -619.45847     417.2609    78.824374    22.628299    25.494928 
   82600    239.45543   -207.49023    216009.12   -18609.781    1392.5675   -20002.349   -311.88166    418.18637    78.823499    22.629025    25.485603 
   82800    234.05074   -455.43719    216009.12   -18708.001    1361.1362   -20069.138   -1336.6792      421.425    78.822801    22.629237    25.471191 
   83000    242.17019   -98.717332    216009.12   -18675.006    1408.3554   -20083.361    125.01203    420.67666     78.82373    22.629391    25.476187 
   83200    237.45613   -281.79815    216009.12   -18704.456    1380.9405   -20085.397   -626.03173    422.74408    78.823751    22.628556    25.458064 
   83400    230.18019   -309.30433    216009.12   -18750.874    1338.6268   -20089.501   -751.32783    423.93083    78.825268    22.627927    25.449529 
   83600    231.41186   -268.51334    216009.12   -18789.984    1345.7896   -20135.774   -579.99735    423.80833    78.822663    22.629682    25.430984 
   83800     233.7174   -250.94503    216009.12   -18756.535    1359.1977   -20115.732    -494.7844    424.82229    78.820306    22.632716    25.428994 
   84000    233.83473    -238.4622    216009.12   -18739.386      1359.88   -20099.266   -447.90945    425.69239    78.820525    22.630539    25.436153 
   84200    236.70992    -270.3626    216009.12   -18739.569    1376.6008    -20116.17   -583.59663    427.22077    78.820946    22.628665    25.429813 
   84400     231.5775   -381.50069    216009.12   -18734.122    1346.7529   -20080.875   -1048.4377    427.91033    78.817794    22.628247    25.449094 
   84600    240.11317   -302.17675    216009.12   -18698.785    1396.3927   -20095.177   -697.55038     428.0898    78.819177    22.629734    25.470845 
   84800    238.26941   -275.31347    216009.12   -18767.794    1385.6701   -20153.464   -578.24784    428.71753     78.81999    22.630454     25.45609 
   85000    234.45347   -214.87081    216009.12   -18745.871    1363.4783   -20109.349   -283.24389    429.71521    78.821782    22.630986    25.433656 
   85200    227.76962   -327.38627    216009.12    -18746.64     1324.608   -20071.248   -875.03562    430.26896    78.821689    22.630357    25.446656 
   85400     233.3971   -380.42467    216009.12   -18811.831    1357.3349   -20169.166   -1067.5761    430.48253    78.818395    22.631806    25.465091 
   85600      231.231   -246.94733    216009.12   -18748.043    1344.7378   -20092.781    -481.1332    430.40959    78.818943    22.634184    25.480354 
   85800    241.08003   -297.14466    216009.12   -18673.163    1402.0155   -20075.178   -681.66706    434.79421    78.819355     22.63328    25.483274 
   86000    228.97241   -329.08549    216009.12   -18744.628    1331.6029    -20076.23   -790.97847    434.72507     78.81875    22.633302    25.478955 
   86200    243.33768   -169.48915    216009.12   -18741.749     1415.145   -20156.894   -127.83247    435.58721     78.81974    22.632025    25.485405 
   86400    227.35742   -291.66543    216009.12   -18843.955    1322.2108   -20166.166   -673.87357    436.16116    78.819146    22.631622    25.484267 
   86600    245.00358   -236.81202    216009.12   -18728.964    1424.8331   -20153.797   -441.05061    437.13405    78.819303    22.636242    25.487703 
   86800    236.36117   -393.29436    216009.12    -18794.59    1374.5726   -20169.162   -1082.5887    437.88014    78.819282    22.637991    25.475109 
   87000    230.18446   -319.40572    216009.12   -18766.529    1338.6516   -20105.181   -789.21137    438.40145     78.81863    22.639721    25.470025 
   87200    238.46307   -207.98307    216009.12   -18723.309    1386.7964   -20110.106   -315.03533    438.76169    78.816591    22.638596    25.451572 
   87400     234.7306   -206.22977    216009.12   -18746.724      1365.09   -20111.814    -281.7113    438.55274    78.815344    22.638397    25.440979 
   87600    239.02344   -212.38387    216009.12   -18741.645    1390.0553     -20131.7   -339.54953    438.24925    78.816957    22.636829    25.441113 
   87800     231.5917   -348.91201    216009.12   -18744.997    1346.8355   -20091.832   -921.56216    440.05266    78.816182    22.638259     25.45655 
   88000    234.25904    -340.6055    216009.12   -18712.911    1362.3476   -20075.259   -854.90106    441.68126     78.81727    22.638861    25.440766 
   88200    224.73031    -291.6532    216009.12   -18736.461    1306.9327   -20043.394    -606.8312    443.20963    78.819642    22.634145    25.424233 
   88400    232.22602    -471.6253    216009.12   -18659.295    1350.5244    -20009.82   -1439.5744    442.47727    78.820739    22.633302    25.412754 
   88600    229.94256   -139.15728    216009.12   -18673.234    1337.2448   -20010.479   -19.134037    444.25576    78.821675    22.634436    25.427981 
   88800    231.78961   -330.79534    216009.12   -18764.144    1347.9865    -20112.13   -814.16591    444.65609      78.8242    22.635719    25.424527 
   89000    235.73925   -401.56395    216009.12   -18707.897    1370.9558   -20078.853   -1120.3819    446.84475    78.826855    22.637395    25.429849 
   89200    240.22005   -229.45965    216009.12   -18705.947    1397.0142   -20102.961   -364.92606    447.25553    78.828789    22.637885    25.446797 
   89400    238.83027   -212.24058    216009.12   -18732.523    1388.9319   -20121.455    -309.6373     449.6492    78.832403    22.638484    25.436487 
   89600     222.7861   -205.05599    216009.12   -18829.166     1295.626   -20124.792   -293.63049    448.99225    78.834499    22.639126    25.437254 
   89800    236.32629   -328.91048    216009.12   -18741.825    1374.3698   -20116.195   -810.24892    450.90521     78.83535    22.641955    25.436008 
   90000    237.35853    -357.5819    216009.12   -18738.676    1380.3728   -20119.048   -936.40967    450.39436    78.838014    22.644208    25.437334 
   90200    235.07805   -273.07291    216009.12   -18755.311    1367.1106   -20122.422   -597.53692    452.21243     78.83716    22.642434    25.448457 
   90400    238.87173   -293.73106    216009.12   -18693.543     1389.173   -20082.716   -620.11558    451.95185    78.839131    22.643884    25.433708 
   90600    235.74497   -497.76369    216009.12   -18709.083    1370.9891   -20080.072   -1531.1422    453.03945    78.840212    22.645553    25.448187 
   90800    234.41297    -434.5868    216009.12   -18734.891    1363.2428   -20098.133   -1253.7364    453.01576    78.841208    22.646088    25.437161 
   91000    230.28035   -341.73452    216009.12   -18750.958    1339.2093   -20090.168   -843.08386     455.5043    78.842882    22.646728    25.439766 
   91200    236.69445   -308.27375    216009.12   -18804.791    1376.5109   -20181.302   -779.49282    455.29319    78.844093    22.646278    25.425677 
   91400    229.06718   -218.32223    216009.12   -18731.057     1332.154   -20063.211   -373.67694    455.90338    78.844693    22.645282    25.403281 
   91600    230.32072    -262.9009    216009.12    -18627.95    1339.4441   -19967.394   -566.79542    457.43848    78.845463    22.644019    25.413729 
   91800    237.85832   -232.55799    216009.12   -18632.248    1383.2794   -20015.527   -422.17047    457.86042    78.847274    22.643952    25.441725 
   92000    240.83039   -374.36161    216009.12    -18679.84    1400.5637   -20080.404   -1009.6672    459.24787    78.850727    22.642784    25.449365 
   92200    228.97907   -411.00275    216009.12   -18725.759    1331.6416   -20057.401    -1154.542    459.10141    78.852694    22.644138    25.449601 
   92400    230.89524   -452.96441    216009.12    -18675.41    1342.7852   -20018.195   -1284.7659    462.25507    78.854349    22.645334    25.451254 
   92600    242.69545    -193.6128    216009.12    -18626.38      1411.41    -20037.79   -233.20411    461.70461    78.854292    22.647119    25.476874 
   92800    226.65922   -387.66905    216009.12   -18697.157    1318.1504   -20015.308   -1046.3394    462.45228    78.851481    22.648051    25.482844 
   93000    231.86331   -180.10488    216009.12   -18737.353    1348.4151   -20085.768   -223.18156    461.56043    78.850758    22.647307    25.471068 
   93200    237.71246   -325.09818    216009.12   -18742.223    1382.4312   -20124.654   -777.70795    464.22619    78.850575    22.649033    25.488016 
   93400    228.99282   -32.887456    216009.12   -18805.604    1331.7216   -20137.326    457.59717    463.96155    78.849204    22.654442    25.484749 
   93600    229.97495   -297.88287    216009.12   -18764.681    1337.4332   -20102.114   -708.95201    466.69536    78.848569    22.654852    25.485315 
   93800    233.23201   -285.19805    216009.12   -18766.639    1356.3748   -20123.014   -609.48072    467.49883     78.84791    22.655464    25.485185 
   94000    234.89592   -271.26991    216009.12   -18779.164    1366.0514   -20145.216   -565.66759    468.61825    78.846774    22.658474    25.472084 
   94200    237.70658   -152.13522    216009.12   -18734.017     1382.397   -20116.414   -78.579747    466.93932    78.847443    22.659095    25.457547 
   94400    232.97957   -291.45345    216009.12   -18745.435    1354.9067   -20100.342   -661.66586    467.27784     78.84785     22.65988    25.481494 
   94600    231.25733   -385.64628    216009.12   -18780.084     1344.891   -20124.975   -1086.9235    470.41705    78.845728    22.664585    25.474024 
   94800    232.93169   -320.80178    216009.12    -18795.14    1354.6283   -20149.769   -827.82555    470.67157    78.846134    22.667528    25.483313 
   95000    236.34636   -219.59146    216009.12   -18782.878    1374.4865   -20157.365   -376.14248    471.71987    78.846958    22.671334    25.509177 
   95200    232.56607   -205.85817    216009.12   -18771.878     1352.502   -20124.381   -282.80085    471.81687     78.84437    22.671874    25.520989 
   95400    238.02612   -241.38831    216009.12    -18770.71    1384.2553   -20154.966   -453.69879    472.90762    78.842585    22.670251    25.524152 
   95600    235.61991   -439.84142    216009.12   -18776.744    1370.2618   -20147.006   -1254.1876    473.11669    78.841277    22.668897    25.534549 
   95800    234.86409   -493.34877    216009.12   -18740.825    1365.8663   -20106.691   -1529.4576    474.97394    78.841651     22.67103     25.53531 
   96000    236.93933    -298.5558    216009.12   -18754.737     1377.935   -20132.672   -704.02913    476.04835    78.840939    22.671717    25.527329 
   96200     233.1212   -345.59443    216009.12   -18727.751    1355.7304   -20083.482   -880.57565    478.08414    78.842072    22.674366     25.51968 
   96400    236.84094   -319.92171    216009.12   -18763.465    1377.3628   -20140.828   -799.96687    480.41428    78.842222    22.673698    25.501237 
   96600    238.78042   -288.53849    216009.12   -18814.954    1388.6419   -20203.596    -648.3606     480.1477    78.841515    22.672993    25.520766 
   96800    236.24737   -422.06112    216009.12   -18783.388    1373.9109   -20157.299   -1265.5578    481.44797    78.840658    22.673979     25.51054 
   97000    232.77108   -208.50692    216009.12   -18837.668    1353.6943   -20191.363   -272.12805    481.84762    78.839256    22.674434    25.519696 
   97200    233.86728   -356.79492    216009.12   -18810.389    1360.0693   -20170.459    -953.3903      485.486    78.837978    22.674417    25.540535 
   97400    235.96079   -421.59814    216009.12   -18807.728    1372.2443   -20179.973   -1211.5698     486.5013    78.837468    22.673662    25.555398 
   97600    241.27273   -174.71216    216009.12   -18738.108    1403.1361   -20141.244   -170.26839    485.56565    78.837273    22.671151    25.559589 
   97800    238.09126   -375.29616    216009.12   -18750.737    1384.6341   -20135.371   -1014.1351    486.83222    78.837136    22.671998     25.55674 
   98000    232.46036   -267.68525    216009.12    -18817.18    1351.8873   -20169.068   -513.39019     487.7077    78.837978    22.673709    25.540407 
   98200     232.7275   -310.97574    216009.12   -18852.945    1353.4408   -20206.386   -744.78537    489.19933    78.837987    22.672607    25.520798 
   98400    229.95485   -299.42583    216009.12   -18820.547    1337.3163   -20157.863   -662.33432    490.03442    78.838502    22.671516    25.513386 
   98600    228.78106   -364.52177    216009.12   -18831.217      1330.49   -20161.707   -951.50053    492.55353    78.838393    22.670755    25.511977 
   98800    239.40531   -241.39309    216009.12   -18796.478     1392.276   -20188.754   -438.60907    489.25143    78.838587    22.670813    25.537326 
   99000    235.68551   -434.66515    216009.12   -18834.492    1370.6433   -20205.136   -1256.3426    491.73531    78.838017    22.670512    25.513417 
   99200    233.83797    -294.5691    216009.12   -18818.286    1359.8988   -20178.185   -656.96667     493.1835    78.834211    22.670224    25.509512 
   99400    228.78994   -372.28756    216009.12   -18858.565    1330.5417   -20189.107   -982.01575    493.24473    78.832228    22.669417    25.509162 
   99600    239.77568   -185.41182    216009.12    -18802.08    1394.4299    -20196.51   -197.41779    492.81006    78.833553    22.669551    25.512165 
   99800    230.49136   -230.53868    216009.12   -18814.555    1340.4365   -20154.992    -419.0115     493.3497     78.83454    22.667518    25.505707 
  100000    235.48242   -286.86201    216009.12   -18772.906    1369.4622   -20142.368   -628.50043    492.03832    78.835036     22.66745    25.484891 
  100200    233.63175   -345.71401    216009.12   -18847.439    1358.6995   -20206.138   -884.31474    494.14456    78.832419    22.667422    25.491995 
  100400    235.77147   -245.36309    216009.12   -18792.908    1371.1432   -20164.051   -460.42413    494.91886    78.829939     22.66557    25.504077 
  100600    231.96385    -327.1646    216009.12   -18799.149    1348.9998   -20148.148   -851.94524    494.59677    78.829277    22.666653    25.526656 
  100800    225.36367   -295.37335    216009.12   -18821.079    1310.6161   -20131.695   -665.99267    496.04444    78.828588    22.668927    25.522576 
[...]
 3975800    226.38223   -525.61483    216009.12   -20683.397    1316.5396   -21999.937   -1591.6557    817.82817    78.197924    22.245035    25.629862 
 3976000    221.04418   -599.38537    216009.12   -20681.389    1285.4958   -21966.885    -1898.288    818.76867    78.198844    22.245481     25.62638 
 3976200    228.93542   -673.23928    216009.12   -20688.349    1331.3878   -22019.736   -2219.2412    818.59401    78.199379     22.24454    25.623297 
 3976400    221.55715      -633.27    216009.12   -20697.448     1288.479   -21985.927   -2068.6608     818.5195     78.19902     22.24517    25.626914 
 3976600    222.33546   -671.67739    216009.12   -20699.594    1293.0053   -21992.599   -2224.6449    819.52002    78.199468    22.245507    25.624309 
 3976800    227.98686   -684.55801    216009.12   -20666.863    1325.8714   -21992.734   -2254.0915    819.17774    78.199099    22.246017    25.630112 
 3977000    219.41657   -581.33789    216009.12   -20681.706    1276.0303   -21957.736   -1846.0302    818.21286    78.199947    22.246318    25.631234 
 3977200    225.41897   -660.01353    216009.12    -20678.85    1310.9377   -21989.787   -2214.0689    818.85575    78.200499     22.24584    25.627722 
 3977400    225.17742   -682.31519    216009.12   -20660.564    1309.5329   -21970.097    -2262.242    818.71091    78.200992    22.246637    25.626988 
 3977600    224.50966   -560.03062    216009.12   -20632.309    1305.6495   -21937.959   -1761.5833    817.73638    78.201524    22.247263    25.623986 
 3977800    221.13416   -622.86165    216009.12   -20673.702    1286.0191   -21959.721   -2000.9416    818.63754    78.201353    22.247442    25.629187 
 3978000    224.11639   -612.34383    216009.12   -20656.452    1303.3624   -21959.814   -1970.3399    818.84333    78.200945     22.24688    25.630995 
 3978200    224.12147   -529.65875    216009.12   -20660.315     1303.392   -21963.707    -1625.917    818.01308    78.200915    22.248717    25.633716 
 3978400     224.0063   -615.92549    216009.12   -20634.762    1302.7222   -21937.485   -1999.5064    819.11052    78.202085    22.249117    25.629709 
 3978600    225.19158   -591.14747    216009.12   -20678.443    1309.6152   -21988.059   -1874.0195    818.86792    78.201551    22.250133    25.635486 
 3978800    223.88759   -554.16068    216009.12   -20687.335    1302.0318   -21989.366   -1733.9398    817.90932    78.202484    22.250761    25.635467 
 3979000    221.07943    -622.4917    216009.12   -20670.524    1285.7008   -21956.225   -2027.7687    819.43664    78.202598    22.251968    25.633878 
 3979200    222.67406   -681.55062    216009.12   -20684.015    1294.9744    -21978.99   -2292.8117    819.32904    78.203156    22.251683    25.631769 
 3979400    216.87967   -586.04317    216009.12   -20696.736    1261.2768   -21958.013   -1888.2091    817.93355    78.203655    22.251565    25.630643 
 3979600    224.95742     -696.564    216009.12   -20685.141    1308.2535   -21993.395   -2372.8557    819.28897    78.204098    22.251724    25.628262 
 3979800    220.60098   -645.49247    216009.12   -20755.793    1282.9183   -22038.711   -2109.6351    819.18046    78.204297    22.252215    25.630847 
 3980000    220.15797   -591.33664    216009.12   -20711.456     1280.342   -21991.798   -1894.3128    817.05431    78.204283    22.252248    25.627199 
 3980200    222.91843   -609.87295    216009.12    -20636.42    1296.3956   -21932.816   -1953.8493    819.17698    78.204668    22.252366    25.626337 
 3980400    221.03259   -626.86547    216009.12   -20668.865    1285.4284   -21954.293   -2018.4194    818.40083    78.204839    22.253258    25.628819 
 3980600    229.22894   -496.64368    216009.12   -20607.702    1333.0948   -21940.796    -1486.852    817.18114    78.205901    22.252761    25.625073 
 3980800    226.34799   -611.19845    216009.12   -20645.909    1316.3404   -21962.249   -1959.3225    819.29606    78.206483    22.252542     25.62736 
 3981000    226.84301   -593.05507    216009.12   -20657.543    1319.2192   -21976.762   -1886.6463    819.00645    78.208085    22.252609     25.62333 
 3981200    231.22388   -579.07463    216009.12   -20637.497    1344.6964   -21982.193   -1857.0644     818.0851    78.208602    22.253339    25.630915 
 3981400     226.7642   -639.14313    216009.12   -20660.872    1318.7609   -21979.633   -2096.2444    818.72031    78.209243    22.254676    25.634212 
 3981600    231.62348   -613.24883    216009.12   -20615.417    1347.0203   -21962.438   -1975.0558    818.77676    78.209235    22.255553    25.632472 
 3981800    217.56809    -540.8922    216009.12   -20656.447    1265.2804   -21921.727    -1639.443    817.98157    78.210889    22.255861    25.632052 
 3982000    218.67951   -656.72716    216009.12   -20717.787    1271.7439   -21989.531   -2127.0367    819.25585    78.210618    22.256261    25.631234 
 3982200    226.44489   -612.65652    216009.12   -20667.107    1316.9039   -21984.011   -1962.8315    818.66849    78.211896    22.257226    25.629622 
 3982400     223.2251   -582.33364    216009.12   -20701.542    1298.1791   -21999.721    -1821.993    817.83631    78.212769    22.258209    25.623627 
 3982600    222.13149   -682.99586    216009.12   -20689.635    1291.8191   -21981.454   -2255.6395    818.59614    78.213313    22.258644     25.62353 
 3982800    221.52137   -640.56226    216009.12   -20691.416    1288.2709   -21979.687   -2074.5613    818.84628    78.213294    22.258389    25.626436 
 3983000    228.59823   -583.26975    216009.12   -20583.882    1329.4268   -21913.309   -1853.7315     818.0349    78.213475    22.259039    25.631004 
 3983200    226.96322   -633.94444    216009.12   -20621.254    1319.9183   -21941.173   -2065.1766    818.83252    78.213194    22.258496    25.627643 
 3983400    225.76444   -633.12094    216009.12    -20680.14    1312.9467   -21993.087   -2035.0549    818.88016    78.213116    22.259228    25.619877 
 3983600    219.20798   -596.83935    216009.12   -20686.586    1274.8172   -21961.404   -1899.3428    818.67616    78.211666    22.260047    25.633314 
 3983800    221.35778   -621.28785    216009.12   -20635.755    1287.3196   -21923.074   -2030.1008    818.33294    78.211408    22.260126    25.631194 
 3984000    226.04736   -572.56759    216009.12   -20665.109    1314.5921   -21979.701    -1820.536    819.05613    78.211932    22.260957    25.629033 
 3984200    225.94186   -516.01406    216009.12   -20565.355    1313.9786   -21879.333    -1550.166    818.38198    78.212139    22.262363    25.628171 
 3984400    227.82641   -636.76254    216009.12   -20614.777    1324.9382   -21939.715   -2090.2062    818.43206    78.211997    22.263341    25.619661 
 3984600     224.4219   -572.43529    216009.12   -20644.802    1305.1391   -21949.941   -1767.0094    818.51123    78.212038    22.263826    25.626053 
 3984800    224.18504     -527.968    216009.12   -20668.279    1303.7617   -21972.041   -1647.3124    818.32747    78.211916     22.26491    25.624245 
 3985000    225.71723   -661.72472    216009.12   -20621.381    1312.6722   -21934.053   -2210.5501     818.8057    78.212373    22.264632    25.622138 
 3985200    227.12623   -598.66012    216009.12    -20639.87    1320.8663   -21960.736   -1918.4325    817.91402    78.213011    22.264597     25.62942 
 3985400    226.14671   -557.78383    216009.12   -20649.065    1315.1699   -21964.235   -1736.8227    818.42876    78.213624    22.265123    25.627402 
 3985600    223.52355    -658.5085    216009.12   -20666.398    1299.9147   -21966.313   -2190.0373    818.50399    78.213206    22.264996    25.626324 
 3985800    229.59979   -573.49911    216009.12   -20659.663    1335.2514   -21994.914   -1807.0002    818.19818    78.213783    22.264859    25.617288 
 3986000    227.78275   -609.37418    216009.12   -20641.639    1324.6843   -21966.323   -1968.9968    818.30187    78.214843    22.264926    25.616741 
 3986200    233.44126   -681.40553    216009.12   -20561.011    1357.5917   -21918.603   -2265.9833    819.13213     78.21532     22.26593     25.62315 
 3986400    221.85049   -590.94154    216009.12   -20714.993    1290.1849   -22005.178   -1872.3533    818.11589    78.216817    22.266399    25.621355 
 3986600    221.04152   -609.39524    216009.12   -20688.629    1285.4803   -21974.109   -1950.9459    818.68012     78.21915    22.267939    25.621184 
 3986800    223.42429   -686.26295    216009.12   -20663.785    1299.3375   -21963.123   -2299.0316    818.69549    78.219556    22.269151    25.623763 
 3987000    234.96544   -544.13585    216009.12   -20650.973    1366.4557   -22017.429    -1647.634    817.68053    78.221012    22.269429    25.627812 
 3987200    226.88225    -513.3064    216009.12   -20609.546    1319.4474   -21928.993   -1550.8326    818.52572    78.222146    22.269308    25.620882 
 3987400    227.85924   -665.19283    216009.12   -20623.658    1325.1292   -21948.787   -2183.0668    819.35065    78.223778     22.26889    25.621262 
 3987600    228.84264   -538.73039    216009.12   -20633.359    1330.8482   -21964.208    -1659.173    817.44831    78.225261    22.270012    25.620011 
 3987800    224.62147   -521.38131    216009.12   -20660.696    1306.2997   -21966.995   -1617.1116    818.33476    78.227965    22.270892     25.62782 
 3988000    218.34989   -633.85058    216009.12   -20658.362     1269.827   -21928.189   -2054.6543    819.62162    78.228742    22.271453    25.628608 
 3988200     237.6378   -555.60295    216009.12   -20583.154     1381.997    -21965.15   -1779.2277    818.07374     78.23002    22.272563    25.629429 
 3988400    226.78025   -569.16358    216009.12     -20606.6    1318.8542   -21925.454   -1815.5103    818.55435    78.231146    22.274067    25.632397 
 3988600    223.96292   -643.64175    216009.12   -20695.542    1302.4699   -21998.012   -2105.4021    819.19823    78.234032    22.272996    25.625382 
 3988800    226.89577   -549.97625    216009.12   -20651.391    1319.5261   -21970.917   -1698.2561    817.76995    78.235055    22.273134    25.619791 
 3989000    226.84622   -554.52754    216009.12   -20658.189    1319.2379   -21977.427    -1693.797    818.27816     78.23557    22.274936    25.626269 
 3989200    221.23133   -607.17878    216009.12   -20692.919    1286.5842   -21979.503   -1948.5102    819.41156    78.237169    22.275899    25.626126 
 3989400    219.31565   -564.66491    216009.12   -20682.534    1275.4434   -21957.977   -1764.7989     817.9993    78.238118    22.276436    25.627843 
 3989600    224.33702   -565.47309    216009.12   -20614.143    1304.6455   -21918.788   -1796.5221     818.2654    78.239398    22.277226    25.620628 
 3989800    225.11955   -613.88674    216009.12    -20654.16    1309.1964   -21963.356   -1979.7263    819.50906    78.239716    22.277504    25.622636 
 3990000    220.82682   -511.66885    216009.12   -20633.087    1284.2317   -21917.319   -1536.7157    819.27495    78.240633    22.277602    25.624731 
 3990200    222.60688    -531.0874    216009.12   -20664.315    1294.5837   -21958.899   -1584.2532    818.51725    78.242086    22.277443    25.631696 
 3990400     226.7945   -627.32226    216009.12   -20666.711    1318.9371   -21985.649   -2012.9823    818.49845    78.243686    22.276617    25.634078 
 3990600    222.40761    -587.9728    216009.12    -20690.92    1293.4249   -21984.345   -1889.8039     818.7926    78.243988    22.276037    25.629567 
 3990800    230.39647   -588.84495    216009.12   -20652.072    1339.8846   -21991.956   -1889.6064    818.92226    78.245356    22.275777    25.633328 
 3991000    225.03152   -660.16148    216009.12   -20631.851    1308.6844   -21940.535    -2191.117    819.23602    78.246458     22.27631    25.630944 
 3991200    228.70441   -601.11927    216009.12   -20582.946    1330.0443    -21912.99   -1932.5541    819.12407    78.246399    22.276486    25.632553 
 3991400    227.85162   -536.11421    216009.12   -20617.535    1325.0849    -21942.62   -1632.7774    818.29997    78.246586    22.276178    25.629357 
 3991600     228.8194   -663.53468    216009.12    -20617.86     1330.713   -21948.573   -2225.1742    820.27353    78.247955     22.27483    25.631197 
 3991800    221.31218   -578.64881    216009.12   -20678.302    1287.0544   -21965.356   -1823.3935    819.44362     78.24892    22.274639    25.635642 
 3992000    223.29286   -581.86497    216009.12   -20653.685    1298.5731   -21952.258   -1840.3686    819.01257    78.249634    22.275507    25.631279 
 3992200     223.1693    -642.9966    216009.12   -20632.681    1297.8545   -21930.535   -2085.1035     819.6972    78.251384    22.275699    25.631545 
 3992400    227.82424   -602.69316    216009.12    -20653.49    1324.9256   -21978.415   -1928.6624    820.38545    78.253238    22.275338    25.628111 
 3992600    222.94988   -566.02253    216009.12   -20672.254    1296.5785   -21968.833   -1774.9819    820.08176    78.253809    22.274502    25.625539 
 3992800     229.1988   -611.25409    216009.12   -20622.397    1332.9195   -21955.317   -1953.3328    819.63882     78.25512    22.274414    25.626728 
 3993000    221.14385   -585.57925    216009.12   -20723.541    1286.0754   -22009.617   -1859.8813    819.37208    78.255899     22.27443    25.628458 
 3993200    223.98428   -608.13385    216009.12   -20701.382    1302.5941   -22003.976   -1943.5993    819.36821    78.257425    22.274078    25.630384 
 3993400    226.82726   -621.71256    216009.12   -20607.766    1319.1277   -21926.894   -1998.0417    818.63241    78.255867      22.2753    25.630515 
 3993600    225.28637   -534.23509    216009.12   -20636.969    1310.1665   -21947.135   -1630.3927    818.54163    78.256795    22.275083    25.631573 
 3993800    226.51953   -548.67544    216009.12   -20681.732     1317.338    -21999.07    -1712.535    819.72509    78.257878    22.275441    25.630158 
 3994000    223.80976   -579.13873    216009.12   -20640.126    1301.5792   -21941.705   -1829.0478    818.98703    78.258943    22.276601    25.634334 
 3994200    225.56749    -486.3123    216009.12   -20666.253    1311.8014   -21978.054   -1455.8978    818.79067    78.260132     22.27763    25.623965 
 3994400    224.39702   -550.46268    216009.12   -20656.436    1304.9944    -21961.43   -1721.4741    819.79653    78.262061    22.277127    25.625846 
 3994600    223.49886   -654.74394    216009.12   -20680.906    1299.7711   -21980.678   -2171.7723    820.02266    78.262245    22.276423       25.622 
 3994800    227.27791   -499.69819    216009.12    -20626.26    1321.7484   -21948.008   -1503.8684    818.60161    78.262218    22.276879    25.620559 
 3995000    225.29795    -588.9298    216009.12   -20655.395    1310.2338   -21965.629    -1867.456    819.85986    78.261656    22.277496    25.622576 
 3995200    215.18974    -691.8064    216009.12   -20715.049    1251.4489   -21966.498   -2318.1303    820.07864    78.261569    22.277657    25.623976 
 3995400    228.79397   -507.14958    216009.12   -20636.052    1330.5651   -21966.618   -1547.4302    818.85946    78.262556    22.279148    25.628745 
 3995600    232.46044   -603.88585    216009.12   -20550.344    1351.8877   -21902.231   -1956.0339    820.17332    78.263741    22.279206    25.628704 
 3995800    226.73037    -676.1665    216009.12    -20622.35    1318.5641   -21940.914   -2235.8402    820.18291    78.264182    22.278123    25.628718 
 3996000    227.87941    -451.4713    216009.12   -20625.172    1325.2465   -21950.419   -1247.1463    817.93769    78.264734    22.278527    25.626363 
 3996200    230.44232   -617.32365    216009.12   -20573.984    1340.1512   -21914.136   -2016.6471    819.84837    78.265051    22.278555    25.626319 
 3996400    231.20728   -587.06581    216009.12   -20662.699    1344.5999   -22007.299   -1841.8088    820.33891    78.265162    22.278281    25.626766 
 3996600    221.18117   -555.72587    216009.12   -20680.532    1286.2924   -21966.824    -1757.976    818.34723    78.264612    22.278386    25.631097 
 3996800    223.07791   -614.11942    216009.12   -20692.762    1297.3231   -21990.085   -1978.6229    819.70915    78.264081    22.277578    25.632725 
 3997000    231.72456   -624.25499    216009.12   -20587.759    1347.6082   -21935.367   -2009.8394    820.34188    78.263778    22.278011     25.63022 
 3997200    226.52841   -560.32009    216009.12   -20638.346    1317.3897   -21955.735   -1802.5925    818.63652     78.26168    22.277351    25.626256 
 3997400    226.16499   -547.58828    216009.12   -20602.614    1315.2761    -21917.89   -1667.8436    819.94955    78.261837    22.277209    25.630538 
 3997600    231.53356    -637.7554    216009.12   -20602.704    1346.4974   -21949.202   -2068.0981    820.52558     78.26188    22.277166    25.630277 
 3997800     222.3725    -565.0933    216009.12   -20652.005    1293.2207   -21945.226   -1781.1168    819.14921    78.262622    22.277617    25.637248 
 3998000    224.49612   -658.44585    216009.12   -20672.101    1305.5707   -21977.672   -2161.4424    819.80812    78.262037    22.278355     25.62531 
 3998200    224.17013   -647.49559    216009.12   -20645.418    1303.6749   -21949.093   -2149.2916    819.77184    78.262728    22.278437    25.623575 
 3998400    229.64809   -542.37418    216009.12   -20612.153    1335.5323   -21947.685   -1714.6211    819.20636    78.261344    22.278831    25.625978 
 3998600    219.09455    -635.6742    216009.12   -20611.416    1274.1576   -21885.573   -2095.3174    819.65116    78.260715    22.278821    25.634074 
 3998800    225.00693   -575.43904    216009.12   -20632.314    1308.5414   -21940.856   -1785.9221    820.13063    78.259718    22.278764    25.637654 
 3999000    224.22429   -555.86256    216009.12   -20594.014    1303.9899   -21898.004   -1750.2599    818.96586    78.259193     22.27915    25.629458 
 3999200    220.17685   -584.77773    216009.12   -20669.735    1280.4518   -21950.187   -1827.3088    819.60942    78.257678    22.279502    25.626805 
 3999400    225.63528   -589.22352    216009.12   -20644.489    1312.1956   -21956.684   -1841.7367     820.0129     78.25695     22.27923    25.628916 
 3999600    221.14674   -484.83983    216009.12   -20693.108    1286.0922     -21979.2   -1466.5249    818.97144    78.256328    22.278872    25.622568 
 3999800    226.71855   -617.62762    216009.12   -20643.354    1318.4954    -21961.85   -1999.1279    819.78026    78.255671    22.278315    25.621278 
 4000000    228.69163   -617.47507    216009.12   -20612.473      1329.97   -21942.443   -2024.8026    820.30947    78.254969    22.278333    25.628146 
Loop time of 5419.87 on 100 procs for 4000000 steps with 9248 atoms

Performance: 637.654 ns/day, 0.038 hours/ns, 738.025 timesteps/s
97.9% CPU use with 100 MPI tasks x no OpenMP threads

MPI task timing breakdown:
Section |  min time  |  avg time  |  max time  |%varavg| %total
---------------------------------------------------------------
Pair    | 0.27915    | 1614       | 4450.9     |4342.8 | 29.78
Neigh   | 2.1268     | 103.56     | 233.9      | 816.6 |  1.91
Comm    | 73.101     | 1220.7     | 4275.6     |3721.2 | 22.52
Output  | 61.493     | 61.579     | 62.982     |   1.8 |  1.14
Modify  | 164.02     | 2370.3     | 5238.9     |4488.4 | 43.73
Other   |            | 49.69      |            |       |  0.92

Nlocal:    92.48 ave 186 max 0 min
Histogram: 30 0 0 20 0 0 1 14 20 15
Nghost:    682.56 ave 982 max 480 min
Histogram: 20 21 13 6 0 6 4 10 10 10
Neighs:    0 ave 0 max 0 min
Histogram: 100 0 0 0 0 0 0 0 0 0
FullNghs:  9388.44 ave 20787 max 0 min
Histogram: 30 20 0 0 0 0 1 17 17 15

Total # of neighbors = 938844
Ave neighs/atom = 101.519
Neighbor list builds = 395752
Dangerous builds = 0
write_data 		${DIR}/data.${NAME}_run
write_data 		run_1/data.${NAME}_run
write_data 		run_1/data.ibeam_cooling_1_run
Total wall time: 1:30:35
