

### IMPORT ATOMS ###
read_data ../Box_Setup/data.Ibeam_240K
  orthogonal box = (0 0 0) to (157.504 40.4305 33.9212)
  10 by 5 by 2 MPI processor grid
  reading atoms ...
  9248 atoms
  reading velocities ...
  9248 velocities
group water type 2
1952 atoms in group water
group graphite type 1
7296 atoms in group graphite


# Define potential
#
pair_style          sw
pair_coeff * * MLC_e.sw C mW

# Add velocity/set timestep
#

fix		1 graphite setforce 0.0 0.0 0.0
velocity 	graphite set 0.0 0.0 0.0
velocity            water create ${START_TEMP} ${SEED} rot yes dist gaussian
velocity            water create 235 ${SEED} rot yes dist gaussian
velocity            water create 235 10746 rot yes dist gaussian
timestep            5.0

# Define output
#
compute 1 water msd
compute 2 water temp


thermo	            100
thermo_style custom step c_2 press vol etotal ke pe c_1[4] density

# Neighbor lists
#
neigh_modify        delay 0 every 1 check yes


# Set fixes
#
fix                 2 water momentum 10 linear 1 1 1 rescale
fix                 3 all nve
fix                 4 water temp/csvr ${START_TEMP} ${START_TEMP} 500.0 928347
fix                 4 water temp/csvr 235 ${START_TEMP} 500.0 928347
fix                 4 water temp/csvr 235 235 500.0 928347

# Run 0.05 ns equilibration
#
dump                1 all custom 100 ${DIR}/eq.${NAME}.dump id type x y z vx vy vz
dump                1 all custom 100 run_1/eq.${NAME}.dump id type x y z vx vy vz
dump                1 all custom 100 run_1/eq.ibeam_cooling_1.dump id type x y z vx vy vz
run                 10000
Neighbor list info ...
  update every 1 steps, delay 0 steps, check yes
  max neighbors/atom: 2000, page size: 100000
  master list distance cutoff = 6.67472
  ghost atom cutoff = 6.67472
  binsize = 3.33736, bins = 48 13 11
  1 neighbor lists, perpetual/occasional/extra = 1 0 0
  (1) pair sw, perpetual
      attributes: full, newton on
      pair build: full/bin/atomonly
      stencil: full/bin/3d
      bin: standard
Per MPI rank memory allocation (min/avg/max) = 3.366 | 4.292 | 4.744 Mbytes
Step c_2 Press Volume TotEng KinEng PotEng c_1[4] Density 
       0          235    -305.4879    216009.12   -18733.422    1366.6567   -20100.079            0   0.94393226 
     100    236.60287    -280.6104    216009.12   -18759.928    1375.9783   -20135.907   0.81477663   0.94393226 
     200    237.49517   -397.34203    216009.12   -18826.195    1381.1675   -20207.362    1.1388581   0.94393226 
     300    238.42786   -276.87301    216009.12    -18809.71    1386.5916   -20196.302    1.5080044   0.94393226 
     400    231.23814   -216.96048    216009.12   -18827.067    1344.7794   -20171.846    1.7293198   0.94393226 
     500     231.7271   -69.746582    216009.12   -18813.695    1347.6229   -20161.318    2.0632218   0.94393226 
     600    241.55257   -325.28351    216009.12   -18737.889    1404.7635   -20142.652    2.4366108   0.94393226 
     700    237.63876   -344.53017    216009.12   -18735.508    1382.0025    -20117.51    2.7194041   0.94393226 
     800     239.0763   -376.52025    216009.12   -18704.819    1390.3627   -20095.182    2.8756802   0.94393226 
     900    232.75741   -309.96951    216009.12   -18722.722    1353.6148   -20076.337    3.2403458   0.94393226 
    1000    237.78433   -403.38235    216009.12    -18775.82    1382.8491   -20158.669    3.4441332   0.94393226 
    1100    234.50191   -100.62395    216009.12   -18754.037      1363.76   -20117.797    3.7677444   0.94393226 
    1200    238.51245   -303.48274    216009.12    -18746.53    1387.0836   -20133.613    4.0614443   0.94393226 
    1300    243.02353   -302.20536    216009.12   -18707.461     1413.318   -20120.779    4.3117234   0.94393226 
    1400    236.27682    -490.3836    216009.12   -18739.143    1374.0821   -20113.225    4.4897505   0.94393226 
    1500    235.09247   -136.15234    216009.12    -18754.07    1367.1944   -20121.264    4.8608453   0.94393226 
    1600    233.80397   -148.45223    216009.12   -18748.929    1359.7011    -20108.63       5.1921   0.94393226 
    1700    231.37873   -202.07204    216009.12   -18758.581     1345.597   -20104.178    5.2600679   0.94393226 
    1800    245.50052   -359.58458    216009.12   -18748.947    1427.7231    -20176.67    5.4897885   0.94393226 
    1900    237.43583   -356.14483    216009.12   -18717.238    1380.8224    -20098.06    6.0545194   0.94393226 
    2000    236.56791   -357.44328    216009.12   -18672.658     1375.775   -20048.433    6.4972603   0.94393226 
    2100    231.09745   -123.62824    216009.12   -18760.057    1343.9612   -20104.018    6.7310573   0.94393226 
    2200    235.21515   -247.03433    216009.12   -18735.557    1367.9079   -20103.465    7.0216823   0.94393226 
    2300     239.2616   -303.92133    216009.12   -18709.338    1391.4403   -20100.778    7.1919282   0.94393226 
    2400    234.81729   -290.76195    216009.12   -18700.736    1365.5941   -20066.331    7.4199567   0.94393226 
    2500    233.22174   -125.92336    216009.12    -18720.54    1356.3151   -20076.855      7.85427   0.94393226 
    2600    231.29536   -197.40012    216009.12   -18716.652    1345.1121   -20061.764    8.2048614   0.94393226 
    2700     234.8173   -381.23629    216009.12   -18729.121    1365.5942   -20094.715     8.625699   0.94393226 
    2800    243.06501   -274.61389    216009.12   -18679.553    1413.5592   -20093.112     8.851477   0.94393226 
    2900    234.22651   -364.73687    216009.12   -18683.937    1362.1584   -20046.096    9.3001467   0.94393226 
    3000    237.38511   -155.61936    216009.12    -18678.15    1380.5275   -20058.677    9.5263595   0.94393226 
    3100    238.45364   -216.39518    216009.12   -18673.397    1386.7415   -20060.139    9.9787867   0.94393226 
    3200    238.62565   -402.99525    216009.12   -18729.307    1387.7419   -20117.049    10.315984   0.94393226 
    3300    228.99223   -330.06853    216009.12   -18802.894    1331.7181   -20134.612    10.418505   0.94393226 
    3400    237.23156   -256.71749    216009.12   -18751.862    1379.6344   -20131.497    10.772545   0.94393226 
    3500    235.61131   -199.54758    216009.12   -18757.555    1370.2118   -20127.767    11.367061   0.94393226 
    3600    239.83857   -402.99254    216009.12   -18761.099    1394.7957   -20155.895     11.82458   0.94393226 
    3700    238.83036   -264.26289    216009.12   -18747.752    1388.9324   -20136.685    12.133328   0.94393226 
    3800    233.37518   -360.58354    216009.12   -18723.763    1357.2075    -20080.97    12.260026   0.94393226 
    3900     235.4625   -269.79487    216009.12   -18733.593    1369.3464   -20102.939    12.634752   0.94393226 
    4000    231.27884   -191.30395    216009.12   -18789.659     1345.016   -20134.675    12.992304   0.94393226 
    4100    237.05208   -426.83403    216009.12   -18779.496    1378.5907   -20158.086    13.244485   0.94393226 
    4200    235.40425   -327.47492    216009.12   -18763.946    1369.0077   -20132.954    13.638057   0.94393226 
    4300    229.42121   -227.73217    216009.12   -18798.002    1334.2129   -20132.215    13.656275   0.94393226 
    4400     230.0188    -329.2838    216009.12   -18764.695    1337.6882   -20102.383     13.72275   0.94393226 
    4500    230.04686   -324.81578    216009.12   -18797.738    1337.8514    -20135.59    13.935942   0.94393226 
    4600    230.48859    -411.6832    216009.12   -18835.033    1340.4203   -20175.453    14.289146   0.94393226 
    4700     236.5359   -158.04998    216009.12   -18758.555    1375.5888   -20134.144    14.418391   0.94393226 
    4800    240.55359   -144.05063    216009.12   -18739.208     1398.954   -20138.162    14.940991   0.94393226 
    4900    241.19269   -280.08002    216009.12   -18696.781    1402.6707   -20099.451     15.26025   0.94393226 
    5000    228.56009    -411.2304    216009.12   -18727.563     1329.205   -20056.768    15.529021   0.94393226 
    5100    236.39235   -431.61251    216009.12   -18706.082     1374.754   -20080.836    15.714109   0.94393226 
    5200    232.42021   -295.24908    216009.12   -18744.512    1351.6538   -20096.166    15.890563   0.94393226 
    5300    232.61735   -230.89766    216009.12   -18796.136    1352.8003   -20148.936    15.988051   0.94393226 
    5400    237.50327   -206.71296    216009.12   -18795.952    1381.2146   -20177.167    16.250274   0.94393226 
    5500     238.3299   -239.74098    216009.12   -18793.438    1386.0219    -20179.46     16.46839   0.94393226 
    5600    237.47323   -221.66561    216009.12   -18842.282    1381.0399   -20223.322    16.602664   0.94393226 
    5700    239.19287   -243.71147    216009.12   -18807.775    1391.0406   -20198.815    17.124564   0.94393226 
    5800     238.3746   -257.97149    216009.12   -18806.457    1386.2819   -20192.739    17.605319   0.94393226 
    5900    238.25881   -243.90385    216009.12   -18833.891    1385.6085     -20219.5     17.75919   0.94393226 
    6000    236.93952   -89.936523    216009.12   -18852.694    1377.9361    -20230.63    17.895481   0.94393226 
    6100    233.39687   -246.24664    216009.12    -18874.87    1357.3336   -20232.204    18.086475   0.94393226 
    6200    230.40353    -360.4094    216009.12   -18872.867    1339.9257   -20212.792    18.343988   0.94393226 
    6300    232.31201   -228.67073    216009.12    -18810.04    1351.0245   -20161.064     18.55363   0.94393226 
    6400    233.25252    -292.3508    216009.12   -18831.862    1356.4941   -20188.356    18.870512   0.94393226 
    6500    241.24483   -359.43052    216009.12    -18847.03    1402.9739   -20250.004    19.365995   0.94393226 
    6600     227.0726   -335.64217    216009.12   -18876.232    1320.5544   -20196.787    19.551656   0.94393226 
    6700    225.68064   -414.89262    216009.12   -18881.675    1312.4594   -20194.135    19.677388   0.94393226 
    6800    232.90784   -164.04483    216009.12   -18866.721    1354.4896    -20221.21    19.703304   0.94393226 
    6900    235.95614   -222.63944    216009.12   -18833.238    1372.2172   -20205.455    19.609548   0.94393226 
    7000    233.46011    -331.5683    216009.12   -18821.547    1357.7014   -20179.248    19.782243   0.94393226 
    7100    232.78584   -398.42848    216009.12    -18827.79    1353.7801    -20181.57    19.959869   0.94393226 
    7200    235.48782   -216.40299    216009.12   -18859.256    1369.4936    -20228.75    20.060086   0.94393226 
    7300    228.07648   -375.59146    216009.12   -18879.464    1326.3926   -20205.856     20.27307   0.94393226 
    7400    230.48721   -326.99935    216009.12   -18841.923    1340.4123   -20182.335    20.385013   0.94393226 
    7500    234.63968   -314.99157    216009.12   -18818.658    1364.5613   -20183.219    20.303132   0.94393226 
    7600    237.44222   -207.87703    216009.12   -18781.236    1380.8596   -20162.096     20.65883   0.94393226 
    7700    232.42958   -316.77524    216009.12   -18786.707    1351.7083   -20138.416    20.803678   0.94393226 
    7800    228.74627    -416.8112    216009.12   -18841.581    1330.2878   -20171.869     21.38641   0.94393226 
    7900    233.27483   -298.17447    216009.12   -18808.869    1356.6239   -20165.493    21.444184   0.94393226 
    8000    239.20781   -287.86423    216009.12   -18754.767    1391.1275   -20145.895    21.808379   0.94393226 
    8100    234.81413   -417.56447    216009.12   -18738.384    1365.5757    -20103.96    21.987593   0.94393226 
    8200    240.69229    -218.0747    216009.12   -18756.412    1399.7606   -20156.172    22.566179   0.94393226 
    8300    241.05155   -252.78905    216009.12   -18723.035    1401.8498   -20124.884    22.872746   0.94393226 
    8400      237.751   -325.44787    216009.12   -18713.922    1382.6553   -20096.577    23.232191   0.94393226 
    8500    237.06443   -241.97705    216009.12   -18743.026    1378.6625   -20121.689    23.394064   0.94393226 
    8600     240.5882   -365.22108    216009.12   -18759.309    1399.1552   -20158.464    23.541829   0.94393226 
    8700    233.31728   -275.72754    216009.12   -18783.387    1356.8707   -20140.258    23.804835   0.94393226 
    8800    239.74766   -344.73818    216009.12    -18782.12     1394.267   -20176.387    23.935118   0.94393226 
    8900    238.85928    -346.4712    216009.12    -18819.95    1389.1006   -20209.051    24.237762   0.94393226 
    9000    236.44172   -303.44934    216009.12   -18795.328    1375.0411   -20170.369    24.472309   0.94393226 
    9100    239.44457   -309.73806    216009.12   -18833.327    1392.5044   -20225.831    24.704772   0.94393226 
    9200    229.56279   -362.21594    216009.12   -18783.647    1335.0363   -20118.683    25.005067   0.94393226 
    9300    227.35801   -307.79755    216009.12   -18843.889    1322.2142   -20166.104     25.25199   0.94393226 
    9400    235.35424   -395.90877    216009.12   -18823.794    1368.7168   -20192.511    25.204752   0.94393226 
    9500    232.52759   -291.67252    216009.12   -18853.791    1352.2783    -20206.07    25.154158   0.94393226 
    9600    232.71525    -339.8971    216009.12   -18869.611    1353.3696    -20222.98    25.504107   0.94393226 
    9700    241.78099   -243.56737    216009.12   -18829.732    1406.0919   -20235.824    25.894787   0.94393226 
    9800     233.5572    -235.9912    216009.12   -18782.327     1358.266   -20140.593    26.354937   0.94393226 
    9900    231.69195   -413.87552    216009.12   -18804.583    1347.4185   -20152.002    26.545277   0.94393226 
   10000    236.09121   -436.52595    216009.12   -18806.511    1373.0027   -20179.513    26.694612   0.94393226 
Loop time of 15.603 on 100 procs for 10000 steps with 9248 atoms

Performance: 276.870 ns/day, 0.087 hours/ns, 640.903 timesteps/s
97.7% CPU use with 100 MPI tasks x no OpenMP threads

MPI task timing breakdown:
Section |  min time  |  avg time  |  max time  |%varavg| %total
---------------------------------------------------------------
Pair    | 0.0007329  | 4.7408     | 13.044     | 241.4 | 30.38
Neigh   | 0.0032632  | 0.14974    | 0.34362    |  30.8 |  0.96
Comm    | 0.17222    | 2.9738     | 12.43      | 196.2 | 19.06
Output  | 0.14166    | 0.14186    | 0.14861    |   0.2 |  0.91
Modify  | 0.37582    | 7.4835     | 15.167     | 235.4 | 47.96
Other   |            | 0.1133     |            |       |  0.73

Nlocal:    92.48 ave 187 max 0 min
Histogram: 30 0 2 14 4 0 1 16 17 16
Nghost:    681.18 ave 1003 max 480 min
Histogram: 23 22 14 1 0 10 4 6 10 10
Neighs:    0 ave 0 max 0 min
Histogram: 100 0 0 0 0 0 0 0 0 0
FullNghs:  9438.78 ave 20817 max 0 min
Histogram: 30 20 0 0 0 0 1 18 15 16

Total # of neighbors = 943878
Ave neighs/atom = 102.063
Neighbor list builds = 559
Dangerous builds = 0
write_data 	    ${DIR}/data.${NAME}_eq
write_data 	    run_1/data.${NAME}_eq
write_data 	    run_1/data.ibeam_cooling_1_eq

undump              1
unfix               4



################################################
#######         Run Simulation         #########
################################################

reset_timestep      0
timestep	    10.0
log                 ${DIR}/log.run_${NAME}
log                 run_1/log.run_${NAME}
log                 run_1/log.run_ibeam_cooling_1
