LAMMPS data file via write_data, version 16 Mar 2018, timestep = 5200000

9248 atoms
2 atom types

0.0000000000000000e+00 1.5750399999999999e+02 xlo xhi
0.0000000000000000e+00 4.0430543199995086e+01 ylo yhi
0.0000000000000000e+00 3.3921177063932738e+01 zlo zhi

Masses

1 12.01
2 18.015

Atoms # atomic

1 1 0.0000000000000000e+00 2.8417180249513345e+00 1.6770000000000000e+00 0 0 0
3 1 0.0000000000000000e+00 0.0000000000000000e+00 1.6770000000000000e+00 0 0 0
5 1 1.2304999999999999e+00 7.1042950623783474e-01 1.6770000000000000e+00 0 0 0
12 1 1.2304999999999999e+00 2.1312885187134998e+00 1.6770000000000000e+00 0 0 0
14 1 2.4609999999999999e+00 2.8417180249513345e+00 1.6770000000000000e+00 0 0 0
16 1 2.4609999999999999e+00 0.0000000000000000e+00 1.6770000000000000e+00 0 0 0
18 1 3.6915000000000000e+00 7.1042950623783474e-01 1.6770000000000000e+00 0 0 0
33 1 3.6914999999999996e+00 2.1312885187134998e+00 1.6770000000000000e+00 0 0 0
35 1 4.9219999999999997e+00 2.8417180249513341e+00 1.6770000000000000e+00 0 0 0
37 1 4.9219999999999997e+00 0.0000000000000000e+00 1.6770000000000000e+00 0 0 0
39 1 6.1524999999999999e+00 7.1042950623783430e-01 1.6770000000000000e+00 0 0 0
62 1 6.1524999999999999e+00 2.1312885187134993e+00 1.6770000000000000e+00 0 0 0
64 1 7.3829999999999991e+00 2.8417180249513345e+00 1.6770000000000000e+00 0 0 0
66 1 7.3829999999999991e+00 0.0000000000000000e+00 1.6770000000000000e+00 0 0 0
68 1 8.6134999999999984e+00 7.1042950623783430e-01 1.6770000000000000e+00 0 0 0
99 1 8.6134999999999984e+00 2.1312885187135002e+00 1.6770000000000000e+00 0 0 0
101 1 9.8439999999999994e+00 2.8417180249513336e+00 1.6770000000000000e+00 0 0 0
103 1 9.8439999999999994e+00 0.0000000000000000e+00 1.6770000000000000e+00 0 0 0
105 1 1.1074500000000000e+01 7.1042950623783341e-01 1.6770000000000000e+00 0 0 0
138 1 1.1074500000000000e+01 2.1312885187135002e+00 1.6770000000000000e+00 0 0 0
140 1 1.2305000000000000e+01 2.8417180249513336e+00 1.6770000000000000e+00 0 0 0
142 1 1.2305000000000000e+01 0.0000000000000000e+00 1.6770000000000000e+00 0 0 0
144 1 1.3535499999999999e+01 7.1042950623783518e-01 1.6770000000000000e+00 0 0 0
177 1 1.3535499999999999e+01 2.1312885187134984e+00 1.6770000000000000e+00 0 0 0
179 1 1.4765999999999998e+01 2.8417180249513354e+00 1.6770000000000000e+00 0 0 0
181 1 1.4765999999999998e+01 0.0000000000000000e+00 1.6770000000000000e+00 0 0 0
183 1 1.5996499999999999e+01 7.1042950623783518e-01 1.6770000000000000e+00 0 0 0
216 1 1.5996499999999999e+01 2.1312885187135002e+00 1.6770000000000000e+00 0 0 0
218 1 1.7226999999999997e+01 2.8417180249513336e+00 1.6770000000000000e+00 0 0 0
220 1 1.7227000000000000e+01 0.0000000000000000e+00 1.6770000000000000e+00 0 0 0
222 1 1.8457499999999996e+01 7.1042950623783341e-01 1.6770000000000000e+00 0 0 0
255 1 1.8457500000000000e+01 2.1312885187135002e+00 1.6770000000000000e+00 0 0 0
257 1 1.9687999999999999e+01 2.8417180249513372e+00 1.6770000000000000e+00 0 0 0
259 1 1.9687999999999999e+01 0.0000000000000000e+00 1.6770000000000000e+00 0 0 0
261 1 2.0918499999999998e+01 7.1042950623784051e-01 1.6770000000000000e+00 0 0 0
294 1 2.0918499999999998e+01 2.1312885187135002e+00 1.6770000000000000e+00 0 0 0
296 1 2.2149000000000001e+01 2.8417180249513407e+00 1.6770000000000000e+00 0 0 0
298 1 2.2148999999999997e+01 0.0000000000000000e+00 1.6770000000000000e+00 0 0 0
300 1 2.3379500000000000e+01 7.1042950623784051e-01 1.6770000000000000e+00 0 0 0
333 1 2.3379500000000000e+01 2.1312885187135002e+00 1.6770000000000000e+00 0 0 0
335 1 2.4609999999999999e+01 2.8417180249513372e+00 1.6770000000000000e+00 0 0 0
337 1 2.4609999999999999e+01 0.0000000000000000e+00 1.6770000000000000e+00 0 0 0
339 1 2.5840499999999999e+01 7.1042950623783696e-01 1.6770000000000000e+00 0 0 0
372 1 2.5840499999999999e+01 2.1312885187135002e+00 1.6770000000000000e+00 0 0 0
1255 1 2.7070999999999998e+01 2.8417180249513372e+00 1.6770000000000000e+00 0 0 0
1257 1 2.7070999999999998e+01 0.0000000000000000e+00 1.6770000000000000e+00 0 0 0
1259 1 2.8301499999999997e+01 7.1042950623783696e-01 1.6770000000000000e+00 0 0 0
1266 1 2.8301499999999997e+01 2.1312885187134967e+00 1.6770000000000000e+00 0 0 0
1268 1 2.9531999999999996e+01 2.8417180249513372e+00 1.6770000000000000e+00 0 0 0
1270 1 2.9531999999999996e+01 0.0000000000000000e+00 1.6770000000000000e+00 0 0 0
1272 1 3.0762499999999996e+01 7.1042950623783696e-01 1.6770000000000000e+00 0 0 0
1287 1 3.0762499999999996e+01 2.1312885187135002e+00 1.6770000000000000e+00 0 0 0
8 1 0.0000000000000000e+00 4.2625770374269996e+00 1.6770000000000000e+00 0 0 0
10 1 1.2305000000000001e+00 4.9730065436648339e+00 1.6770000000000000e+00 0 0 0
25 1 1.2304999999999999e+00 6.3938655561404989e+00 1.6770000000000000e+00 0 0 0
29 1 2.4609999999999999e+00 4.2625770374269996e+00 1.6770000000000000e+00 0 0 0
31 1 3.6914999999999996e+00 4.9730065436648339e+00 1.6770000000000000e+00 0 0 0
54 1 3.6914999999999996e+00 6.3938655561404989e+00 1.6770000000000000e+00 0 0 0
58 1 4.9219999999999997e+00 4.2625770374269987e+00 1.6770000000000000e+00 0 0 0
60 1 6.1524999999999999e+00 4.9730065436648339e+00 1.6770000000000000e+00 0 0 0
91 1 6.1524999999999999e+00 6.3938655561404989e+00 1.6770000000000000e+00 0 0 0
95 1 7.3829999999999991e+00 4.2625770374269996e+00 1.6770000000000000e+00 0 0 0
97 1 8.6135000000000002e+00 4.9730065436648339e+00 1.6770000000000000e+00 0 0 0
130 1 8.6135000000000002e+00 6.3938655561404998e+00 1.6770000000000000e+00 0 0 0
134 1 9.8439999999999994e+00 4.2625770374270004e+00 1.6770000000000000e+00 0 0 0
136 1 1.1074499999999999e+01 4.9730065436648339e+00 1.6770000000000000e+00 0 0 0
169 1 1.1074499999999999e+01 6.3938655561404989e+00 1.6770000000000000e+00 0 0 0
173 1 1.2305000000000000e+01 4.2625770374269987e+00 1.6770000000000000e+00 0 0 0
175 1 1.3535499999999999e+01 4.9730065436648339e+00 1.6770000000000000e+00 0 0 0
208 1 1.3535499999999999e+01 6.3938655561404989e+00 1.6770000000000000e+00 0 0 0
212 1 1.4766000000000000e+01 4.2625770374269987e+00 1.6770000000000000e+00 0 0 0
214 1 1.5996499999999997e+01 4.9730065436648339e+00 1.6770000000000000e+00 0 0 0
247 1 1.5996499999999999e+01 6.3938655561404989e+00 1.6770000000000000e+00 0 0 0
251 1 1.7226999999999997e+01 4.2625770374270004e+00 1.6770000000000000e+00 0 0 0
253 1 1.8457500000000000e+01 4.9730065436648374e+00 1.6770000000000000e+00 0 0 0
286 1 1.8457499999999996e+01 6.3938655561405007e+00 1.6770000000000000e+00 0 0 0
290 1 1.9687999999999999e+01 4.2625770374270004e+00 1.6770000000000000e+00 0 0 0
292 1 2.0918500000000002e+01 4.9730065436648374e+00 1.6770000000000000e+00 0 0 0
325 1 2.0918500000000002e+01 6.3938655561405007e+00 1.6770000000000000e+00 0 0 0
329 1 2.2149000000000001e+01 4.2625770374270004e+00 1.6770000000000000e+00 0 0 0
331 1 2.3379500000000000e+01 4.9730065436648374e+00 1.6770000000000000e+00 0 0 0
364 1 2.3379500000000000e+01 6.3938655561405007e+00 1.6770000000000000e+00 0 0 0
368 1 2.4609999999999999e+01 4.2625770374270004e+00 1.6770000000000000e+00 0 0 0
370 1 2.5840499999999999e+01 4.9730065436648374e+00 1.6770000000000000e+00 0 0 0
398 1 2.5840499999999999e+01 6.3938655561404971e+00 1.6770000000000000e+00 0 0 0
1262 1 2.7070999999999998e+01 4.2625770374269969e+00 1.6770000000000000e+00 0 0 0
1264 1 2.8301499999999997e+01 4.9730065436648374e+00 1.6770000000000000e+00 0 0 0
1279 1 2.8301499999999997e+01 6.3938655561404971e+00 1.6770000000000000e+00 0 0 0
1283 1 2.9531999999999996e+01 4.2625770374269969e+00 1.6770000000000000e+00 0 0 0
1285 1 3.0762499999999999e+01 4.9730065436648374e+00 1.6770000000000000e+00 0 0 0
1308 1 3.0762499999999999e+01 6.3938655561404971e+00 1.6770000000000000e+00 0 0 0
6 1 0.0000000000000000e+00 7.1042950623783341e+00 1.6770000000000000e+00 0 0 0
21 1 0.0000000000000000e+00 8.5251540748539991e+00 1.6770000000000000e+00 0 0 0
23 1 1.2304999999999997e+00 9.2355835810918343e+00 1.6770000000000000e+00 0 0 0
27 1 2.4609999999999999e+00 7.1042950623783341e+00 1.6770000000000000e+00 0 0 0
50 1 2.4609999999999994e+00 8.5251540748539991e+00 1.6770000000000000e+00 0 0 0
52 1 3.6915000000000000e+00 9.2355835810918343e+00 1.6770000000000000e+00 0 0 0
56 1 4.9219999999999997e+00 7.1042950623783341e+00 1.6770000000000000e+00 0 0 0
87 1 4.9219999999999997e+00 8.5251540748539991e+00 1.6770000000000000e+00 0 0 0
89 1 6.1524999999999999e+00 9.2355835810918343e+00 1.6770000000000000e+00 0 0 0
93 1 7.3830000000000000e+00 7.1042950623783341e+00 1.6770000000000000e+00 0 0 0
126 1 7.3830000000000000e+00 8.5251540748539991e+00 1.6770000000000000e+00 0 0 0
128 1 8.6134999999999984e+00 9.2355835810918343e+00 1.6770000000000000e+00 0 0 0
132 1 9.8439999999999994e+00 7.1042950623783341e+00 1.6770000000000000e+00 0 0 0
165 1 9.8439999999999994e+00 8.5251540748539973e+00 1.6770000000000000e+00 0 0 0
167 1 1.1074499999999999e+01 9.2355835810918343e+00 1.6770000000000000e+00 0 0 0
171 1 1.2305000000000000e+01 7.1042950623783341e+00 1.6770000000000000e+00 0 0 0
204 1 1.2305000000000000e+01 8.5251540748539991e+00 1.6770000000000000e+00 0 0 0
206 1 1.3535499999999999e+01 9.2355835810918325e+00 1.6770000000000000e+00 0 0 0
210 1 1.4765999999999998e+01 7.1042950623783323e+00 1.6770000000000000e+00 0 0 0
243 1 1.4765999999999998e+01 8.5251540748539991e+00 1.6770000000000000e+00 0 0 0
245 1 1.5996499999999999e+01 9.2355835810918361e+00 1.6770000000000000e+00 0 0 0
249 1 1.7227000000000000e+01 7.1042950623783376e+00 1.6770000000000000e+00 0 0 0
282 1 1.7226999999999997e+01 8.5251540748539991e+00 1.6770000000000000e+00 0 0 0
284 1 1.8457500000000000e+01 9.2355835810918379e+00 1.6770000000000000e+00 0 0 0
288 1 1.9688000000000002e+01 7.1042950623783376e+00 1.6770000000000000e+00 0 0 0
321 1 1.9687999999999999e+01 8.5251540748540009e+00 1.6770000000000000e+00 0 0 0
323 1 2.0918500000000002e+01 9.2355835810918343e+00 1.6770000000000000e+00 0 0 0
327 1 2.2149000000000001e+01 7.1042950623783341e+00 1.6770000000000000e+00 0 0 0
360 1 2.2149000000000001e+01 8.5251540748540009e+00 1.6770000000000000e+00 0 0 0
362 1 2.3379500000000000e+01 9.2355835810918343e+00 1.6770000000000000e+00 0 0 0
366 1 2.4609999999999999e+01 7.1042950623783376e+00 1.6770000000000000e+00 0 0 0
394 1 2.4609999999999999e+01 8.5251540748539973e+00 1.6770000000000000e+00 0 0 0
396 1 2.5840499999999999e+01 9.2355835810918379e+00 1.6770000000000000e+00 0 0 0
1260 1 2.7070999999999998e+01 7.1042950623783376e+00 1.6770000000000000e+00 0 0 0
1275 1 2.7070999999999998e+01 8.5251540748539973e+00 1.6770000000000000e+00 0 0 0
1277 1 2.8301499999999997e+01 9.2355835810918379e+00 1.6770000000000000e+00 0 0 0
1281 1 2.9532000000000000e+01 7.1042950623783376e+00 1.6770000000000000e+00 0 0 0
1304 1 2.9532000000000000e+01 8.5251540748539973e+00 1.6770000000000000e+00 0 0 0
1306 1 3.0762499999999999e+01 9.2355835810918379e+00 1.6770000000000000e+00 0 0 0
19 1 0.0000000000000000e+00 1.1366872099805333e+01 1.6770000000000000e+00 0 0 0
42 1 0.0000000000000000e+00 1.2787731112280998e+01 1.6770000000000000e+00 0 0 0
46 1 1.2304999999999997e+00 1.0656442593567498e+01 1.6770000000000000e+00 0 0 0
48 1 2.4609999999999999e+00 1.1366872099805335e+01 1.6770000000000000e+00 0 0 0
79 1 2.4609999999999999e+00 1.2787731112280998e+01 1.6770000000000000e+00 0 0 0
83 1 3.6914999999999996e+00 1.0656442593567499e+01 1.6770000000000000e+00 0 0 0
85 1 4.9219999999999997e+00 1.1366872099805333e+01 1.6770000000000000e+00 0 0 0
118 1 4.9219999999999997e+00 1.2787731112281000e+01 1.6770000000000000e+00 0 0 0
122 1 6.1524999999999999e+00 1.0656442593567499e+01 1.6770000000000000e+00 0 0 0
124 1 7.3829999999999991e+00 1.1366872099805335e+01 1.6770000000000000e+00 0 0 0
157 1 7.3829999999999991e+00 1.2787731112280998e+01 1.6770000000000000e+00 0 0 0
161 1 8.6134999999999984e+00 1.0656442593567498e+01 1.6770000000000000e+00 0 0 0
163 1 9.8439999999999994e+00 1.1366872099805335e+01 1.6770000000000000e+00 0 0 0
196 1 9.8439999999999994e+00 1.2787731112280998e+01 1.6770000000000000e+00 0 0 0
200 1 1.1074500000000000e+01 1.0656442593567498e+01 1.6770000000000000e+00 0 0 0
202 1 1.2304999999999998e+01 1.1366872099805333e+01 1.6770000000000000e+00 0 0 0
235 1 1.2305000000000000e+01 1.2787731112280998e+01 1.6770000000000000e+00 0 0 0
239 1 1.3535499999999999e+01 1.0656442593567499e+01 1.6770000000000000e+00 0 0 0
241 1 1.4765999999999998e+01 1.1366872099805336e+01 1.6770000000000000e+00 0 0 0
274 1 1.4765999999999998e+01 1.2787731112281000e+01 1.6770000000000000e+00 0 0 0
278 1 1.5996499999999997e+01 1.0656442593567499e+01 1.6770000000000000e+00 0 0 0
280 1 1.7227000000000000e+01 1.1366872099805336e+01 1.6770000000000000e+00 0 0 0
313 1 1.7227000000000000e+01 1.2787731112281000e+01 1.6770000000000000e+00 0 0 0
317 1 1.8457500000000000e+01 1.0656442593567499e+01 1.6770000000000000e+00 0 0 0
319 1 1.9687999999999999e+01 1.1366872099805335e+01 1.6770000000000000e+00 0 0 0
352 1 1.9687999999999999e+01 1.2787731112281000e+01 1.6770000000000000e+00 0 0 0
356 1 2.0918499999999998e+01 1.0656442593567501e+01 1.6770000000000000e+00 0 0 0
358 1 2.2149000000000001e+01 1.1366872099805335e+01 1.6770000000000000e+00 0 0 0
386 1 2.2148999999999997e+01 1.2787731112280998e+01 1.6770000000000000e+00 0 0 0
390 1 2.3379500000000000e+01 1.0656442593567498e+01 1.6770000000000000e+00 0 0 0
392 1 2.4609999999999999e+01 1.1366872099805335e+01 1.6770000000000000e+00 0 0 0
412 1 2.4609999999999999e+01 1.2787731112280998e+01 1.6770000000000000e+00 0 0 0
416 1 2.5840499999999999e+01 1.0656442593567498e+01 1.6770000000000000e+00 0 0 0
1273 1 2.7070999999999998e+01 1.1366872099805338e+01 1.6770000000000000e+00 0 0 0
1296 1 2.7070999999999998e+01 1.2787731112280998e+01 1.6770000000000000e+00 0 0 0
1300 1 2.8301499999999997e+01 1.0656442593567498e+01 1.6770000000000000e+00 0 0 0
1302 1 2.9531999999999996e+01 1.1366872099805338e+01 1.6770000000000000e+00 0 0 0
1333 1 2.9531999999999996e+01 1.2787731112280998e+01 1.6770000000000000e+00 0 0 0
1337 1 3.0762499999999999e+01 1.0656442593567498e+01 1.6770000000000000e+00 0 0 0
2 1 0.0000000000000000e+00 1.4208590124756650e+00 5.0310000000000006e+00 0 0 0
4 1 0.0000000000000000e+00 0.0000000000000000e+00 5.0310000000000006e+00 0 0 0
13 1 1.2304999999999999e+00 2.1312885187134998e+00 5.0310000000000006e+00 0 0 0
15 1 2.4609999999999999e+00 1.4208590124756650e+00 5.0310000000000006e+00 0 0 0
17 1 2.4609999999999999e+00 0.0000000000000000e+00 5.0310000000000006e+00 0 0 0
34 1 3.6914999999999996e+00 2.1312885187134998e+00 5.0310000000000006e+00 0 0 0
36 1 4.9219999999999997e+00 1.4208590124756650e+00 5.0310000000000006e+00 0 0 0
38 1 4.9219999999999997e+00 0.0000000000000000e+00 5.0310000000000006e+00 0 0 0
63 1 6.1524999999999999e+00 2.1312885187134993e+00 5.0310000000000006e+00 0 0 0
65 1 7.3829999999999991e+00 1.4208590124756659e+00 5.0310000000000006e+00 0 0 0
67 1 7.3829999999999991e+00 0.0000000000000000e+00 5.0310000000000006e+00 0 0 0
100 1 8.6134999999999984e+00 2.1312885187135002e+00 5.0310000000000006e+00 0 0 0
102 1 9.8439999999999994e+00 1.4208590124756659e+00 5.0310000000000006e+00 0 0 0
104 1 9.8439999999999994e+00 0.0000000000000000e+00 5.0310000000000006e+00 0 0 0
139 1 1.1074500000000000e+01 2.1312885187135002e+00 5.0310000000000006e+00 0 0 0
141 1 1.2305000000000000e+01 1.4208590124756650e+00 5.0310000000000006e+00 0 0 0
143 1 1.2305000000000000e+01 0.0000000000000000e+00 5.0310000000000006e+00 0 0 0
178 1 1.3535499999999999e+01 2.1312885187134984e+00 5.0310000000000006e+00 0 0 0
180 1 1.4765999999999998e+01 1.4208590124756650e+00 5.0310000000000006e+00 0 0 0
182 1 1.4765999999999998e+01 0.0000000000000000e+00 5.0310000000000006e+00 0 0 0
217 1 1.5996499999999999e+01 2.1312885187135002e+00 5.0310000000000006e+00 0 0 0
219 1 1.7226999999999997e+01 1.4208590124756650e+00 5.0310000000000006e+00 0 0 0
221 1 1.7227000000000000e+01 0.0000000000000000e+00 5.0310000000000006e+00 0 0 0
256 1 1.8457500000000000e+01 2.1312885187135002e+00 5.0310000000000006e+00 0 0 0
258 1 1.9687999999999995e+01 1.4208590124756633e+00 5.0310000000000006e+00 0 0 0
260 1 1.9687999999999999e+01 0.0000000000000000e+00 5.0310000000000006e+00 0 0 0
295 1 2.0918499999999998e+01 2.1312885187135002e+00 5.0310000000000006e+00 0 0 0
297 1 2.2148999999999997e+01 1.4208590124756597e+00 5.0310000000000006e+00 0 0 0
299 1 2.2148999999999997e+01 0.0000000000000000e+00 5.0310000000000006e+00 0 0 0
334 1 2.3379500000000000e+01 2.1312885187135002e+00 5.0310000000000006e+00 0 0 0
336 1 2.4609999999999999e+01 1.4208590124756597e+00 5.0310000000000006e+00 0 0 0
338 1 2.4609999999999999e+01 0.0000000000000000e+00 5.0310000000000006e+00 0 0 0
373 1 2.5840499999999999e+01 2.1312885187135002e+00 5.0310000000000006e+00 0 0 0
1256 1 2.7070999999999998e+01 1.4208590124756633e+00 5.0310000000000006e+00 0 0 0
1258 1 2.7070999999999998e+01 0.0000000000000000e+00 5.0310000000000006e+00 0 0 0
1267 1 2.8301499999999997e+01 2.1312885187134967e+00 5.0310000000000006e+00 0 0 0
1269 1 2.9531999999999996e+01 1.4208590124756633e+00 5.0310000000000006e+00 0 0 0
1271 1 2.9531999999999996e+01 0.0000000000000000e+00 5.0310000000000006e+00 0 0 0
1288 1 3.0762499999999996e+01 2.1312885187135002e+00 5.0310000000000006e+00 0 0 0
7 1 0.0000000000000000e+00 5.6834360499026646e+00 5.0310000000000006e+00 0 0 0
9 1 0.0000000000000000e+00 4.2625770374269996e+00 5.0310000000000006e+00 0 0 0
11 1 1.2304999999999999e+00 3.5521475311891648e+00 5.0310000000000006e+00 0 0 0
26 1 1.2304999999999999e+00 6.3938655561404989e+00 5.0310000000000006e+00 0 0 0
28 1 2.4609999999999999e+00 5.6834360499026646e+00 5.0310000000000006e+00 0 0 0
30 1 2.4609999999999999e+00 4.2625770374269996e+00 5.0310000000000006e+00 0 0 0
32 1 3.6914999999999996e+00 3.5521475311891648e+00 5.0310000000000006e+00 0 0 0
55 1 3.6914999999999996e+00 6.3938655561404989e+00 5.0310000000000006e+00 0 0 0
57 1 4.9219999999999997e+00 5.6834360499026655e+00 5.0310000000000006e+00 0 0 0
59 1 4.9219999999999997e+00 4.2625770374269987e+00 5.0310000000000006e+00 0 0 0
61 1 6.1524999999999999e+00 3.5521475311891653e+00 5.0310000000000006e+00 0 0 0
92 1 6.1524999999999999e+00 6.3938655561404989e+00 5.0310000000000006e+00 0 0 0
94 1 7.3829999999999991e+00 5.6834360499026655e+00 5.0310000000000006e+00 0 0 0
96 1 7.3829999999999991e+00 4.2625770374269996e+00 5.0310000000000006e+00 0 0 0
98 1 8.6134999999999984e+00 3.5521475311891662e+00 5.0310000000000006e+00 0 0 0
131 1 8.6135000000000002e+00 6.3938655561404998e+00 5.0310000000000006e+00 0 0 0
133 1 9.8439999999999994e+00 5.6834360499026646e+00 5.0310000000000006e+00 0 0 0
135 1 9.8439999999999994e+00 4.2625770374270004e+00 5.0310000000000006e+00 0 0 0
137 1 1.1074500000000000e+01 3.5521475311891644e+00 5.0310000000000006e+00 0 0 0
170 1 1.1074499999999999e+01 6.3938655561404989e+00 5.0310000000000006e+00 0 0 0
172 1 1.2305000000000000e+01 5.6834360499026646e+00 5.0310000000000006e+00 0 0 0
174 1 1.2305000000000000e+01 4.2625770374269987e+00 5.0310000000000006e+00 0 0 0
176 1 1.3535499999999999e+01 3.5521475311891653e+00 5.0310000000000006e+00 0 0 0
209 1 1.3535499999999999e+01 6.3938655561404989e+00 5.0310000000000006e+00 0 0 0
211 1 1.4765999999999998e+01 5.6834360499026655e+00 5.0310000000000006e+00 0 0 0
213 1 1.4766000000000000e+01 4.2625770374269987e+00 5.0310000000000006e+00 0 0 0
215 1 1.5996499999999997e+01 3.5521475311891653e+00 5.0310000000000006e+00 0 0 0
248 1 1.5996499999999999e+01 6.3938655561404989e+00 5.0310000000000006e+00 0 0 0
250 1 1.7226999999999997e+01 5.6834360499026619e+00 5.0310000000000006e+00 0 0 0
252 1 1.7226999999999997e+01 4.2625770374270004e+00 5.0310000000000006e+00 0 0 0
254 1 1.8457499999999996e+01 3.5521475311891617e+00 5.0310000000000006e+00 0 0 0
287 1 1.8457499999999996e+01 6.3938655561405007e+00 5.0310000000000006e+00 0 0 0
289 1 1.9687999999999995e+01 5.6834360499026619e+00 5.0310000000000006e+00 0 0 0
291 1 1.9687999999999999e+01 4.2625770374270004e+00 5.0310000000000006e+00 0 0 0
293 1 2.0918499999999995e+01 3.5521475311891635e+00 5.0310000000000006e+00 0 0 0
326 1 2.0918500000000002e+01 6.3938655561405007e+00 5.0310000000000006e+00 0 0 0
328 1 2.2148999999999997e+01 5.6834360499026637e+00 5.0310000000000006e+00 0 0 0
330 1 2.2149000000000001e+01 4.2625770374270004e+00 5.0310000000000006e+00 0 0 0
332 1 2.3379500000000000e+01 3.5521475311891599e+00 5.0310000000000006e+00 0 0 0
365 1 2.3379500000000000e+01 6.3938655561405007e+00 5.0310000000000006e+00 0 0 0
367 1 2.4609999999999999e+01 5.6834360499026602e+00 5.0310000000000006e+00 0 0 0
369 1 2.4609999999999999e+01 4.2625770374270004e+00 5.0310000000000006e+00 0 0 0
371 1 2.5840499999999999e+01 3.5521475311891599e+00 5.0310000000000006e+00 0 0 0
399 1 2.5840499999999999e+01 6.3938655561404971e+00 5.0310000000000006e+00 0 0 0
1261 1 2.7070999999999998e+01 5.6834360499026602e+00 5.0310000000000006e+00 0 0 0
1263 1 2.7070999999999998e+01 4.2625770374269969e+00 5.0310000000000006e+00 0 0 0
1265 1 2.8301499999999997e+01 3.5521475311891635e+00 5.0310000000000006e+00 0 0 0
1280 1 2.8301499999999997e+01 6.3938655561404971e+00 5.0310000000000006e+00 0 0 0
1282 1 2.9531999999999996e+01 5.6834360499026637e+00 5.0310000000000006e+00 0 0 0
1284 1 2.9531999999999996e+01 4.2625770374269969e+00 5.0310000000000006e+00 0 0 0
1286 1 3.0762499999999996e+01 3.5521475311891635e+00 5.0310000000000006e+00 0 0 0
1309 1 3.0762499999999999e+01 6.3938655561404971e+00 5.0310000000000006e+00 0 0 0
20 1 0.0000000000000000e+00 9.9460130873296642e+00 5.0310000000000006e+00 0 0 0
22 1 0.0000000000000000e+00 8.5251540748539991e+00 5.0310000000000006e+00 0 0 0
24 1 1.2304999999999997e+00 7.8147245686161639e+00 5.0310000000000006e+00 0 0 0
49 1 2.4609999999999994e+00 9.9460130873296642e+00 5.0310000000000006e+00 0 0 0
51 1 2.4609999999999994e+00 8.5251540748539991e+00 5.0310000000000006e+00 0 0 0
53 1 3.6914999999999996e+00 7.8147245686161648e+00 5.0310000000000006e+00 0 0 0
86 1 4.9219999999999997e+00 9.9460130873296659e+00 5.0310000000000006e+00 0 0 0
88 1 4.9219999999999997e+00 8.5251540748539991e+00 5.0310000000000006e+00 0 0 0
90 1 6.1524999999999999e+00 7.8147245686161657e+00 5.0310000000000006e+00 0 0 0
125 1 7.3830000000000000e+00 9.9460130873296642e+00 5.0310000000000006e+00 0 0 0
127 1 7.3830000000000000e+00 8.5251540748539991e+00 5.0310000000000006e+00 0 0 0
129 1 8.6135000000000002e+00 7.8147245686161639e+00 5.0310000000000006e+00 0 0 0
164 1 9.8439999999999994e+00 9.9460130873296642e+00 5.0310000000000006e+00 0 0 0
166 1 9.8439999999999994e+00 8.5251540748539973e+00 5.0310000000000006e+00 0 0 0
168 1 1.1074500000000000e+01 7.8147245686161648e+00 5.0310000000000006e+00 0 0 0
203 1 1.2305000000000000e+01 9.9460130873296642e+00 5.0310000000000006e+00 0 0 0
205 1 1.2305000000000000e+01 8.5251540748539991e+00 5.0310000000000006e+00 0 0 0
207 1 1.3535499999999999e+01 7.8147245686161648e+00 5.0310000000000006e+00 0 0 0
242 1 1.4765999999999998e+01 9.9460130873296606e+00 5.0310000000000006e+00 0 0 0
244 1 1.4765999999999998e+01 8.5251540748539991e+00 5.0310000000000006e+00 0 0 0
246 1 1.5996499999999997e+01 7.8147245686161622e+00 5.0310000000000006e+00 0 0 0
281 1 1.7226999999999997e+01 9.9460130873296624e+00 5.0310000000000006e+00 0 0 0
283 1 1.7226999999999997e+01 8.5251540748539991e+00 5.0310000000000006e+00 0 0 0
285 1 1.8457499999999996e+01 7.8147245686161622e+00 5.0310000000000006e+00 0 0 0
320 1 1.9687999999999999e+01 9.9460130873296624e+00 5.0310000000000006e+00 0 0 0
322 1 1.9687999999999999e+01 8.5251540748540009e+00 5.0310000000000006e+00 0 0 0
324 1 2.0918499999999998e+01 7.8147245686161622e+00 5.0310000000000006e+00 0 0 0
359 1 2.2148999999999997e+01 9.9460130873296624e+00 5.0310000000000006e+00 0 0 0
361 1 2.2149000000000001e+01 8.5251540748540009e+00 5.0310000000000006e+00 0 0 0
363 1 2.3379499999999997e+01 7.8147245686161639e+00 5.0310000000000006e+00 0 0 0
393 1 2.4609999999999996e+01 9.9460130873296642e+00 5.0310000000000006e+00 0 0 0
395 1 2.4609999999999999e+01 8.5251540748539973e+00 5.0310000000000006e+00 0 0 0
397 1 2.5840499999999999e+01 7.8147245686161604e+00 5.0310000000000006e+00 0 0 0
1274 1 2.7070999999999998e+01 9.9460130873296606e+00 5.0310000000000006e+00 0 0 0
1276 1 2.7070999999999998e+01 8.5251540748539973e+00 5.0310000000000006e+00 0 0 0
1278 1 2.8301499999999997e+01 7.8147245686161604e+00 5.0310000000000006e+00 0 0 0
1303 1 2.9532000000000000e+01 9.9460130873296571e+00 5.0310000000000006e+00 0 0 0
1305 1 2.9532000000000000e+01 8.5251540748539973e+00 5.0310000000000006e+00 0 0 0
1307 1 3.0762499999999999e+01 7.8147245686161604e+00 5.0310000000000006e+00 0 0 0
43 1 0.0000000000000000e+00 1.2787731112280998e+01 5.0310000000000006e+00 0 0 0
45 1 1.2304999999999997e+00 1.2077301606043164e+01 5.0310000000000006e+00 0 0 0
47 1 1.2304999999999997e+00 1.0656442593567498e+01 5.0310000000000006e+00 0 0 0
80 1 2.4609999999999999e+00 1.2787731112280998e+01 5.0310000000000006e+00 0 0 0
82 1 3.6914999999999996e+00 1.2077301606043164e+01 5.0310000000000006e+00 0 0 0
84 1 3.6914999999999996e+00 1.0656442593567499e+01 5.0310000000000006e+00 0 0 0
119 1 4.9219999999999997e+00 1.2787731112281000e+01 5.0310000000000006e+00 0 0 0
121 1 6.1524999999999999e+00 1.2077301606043164e+01 5.0310000000000006e+00 0 0 0
123 1 6.1524999999999999e+00 1.0656442593567499e+01 5.0310000000000006e+00 0 0 0
158 1 7.3829999999999991e+00 1.2787731112280998e+01 5.0310000000000006e+00 0 0 0
160 1 8.6135000000000002e+00 1.2077301606043164e+01 5.0310000000000006e+00 0 0 0
162 1 8.6134999999999984e+00 1.0656442593567498e+01 5.0310000000000006e+00 0 0 0
197 1 9.8439999999999994e+00 1.2787731112280998e+01 5.0310000000000006e+00 0 0 0
199 1 1.1074499999999999e+01 1.2077301606043164e+01 5.0310000000000006e+00 0 0 0
201 1 1.1074500000000000e+01 1.0656442593567498e+01 5.0310000000000006e+00 0 0 0
236 1 1.2305000000000000e+01 1.2787731112280998e+01 5.0310000000000006e+00 0 0 0
238 1 1.3535499999999999e+01 1.2077301606043161e+01 5.0310000000000006e+00 0 0 0
240 1 1.3535499999999999e+01 1.0656442593567499e+01 5.0310000000000006e+00 0 0 0
275 1 1.4765999999999998e+01 1.2787731112281000e+01 5.0310000000000006e+00 0 0 0
277 1 1.5996499999999997e+01 1.2077301606043161e+01 5.0310000000000006e+00 0 0 0
279 1 1.5996499999999997e+01 1.0656442593567499e+01 5.0310000000000006e+00 0 0 0
314 1 1.7227000000000000e+01 1.2787731112281000e+01 5.0310000000000006e+00 0 0 0
316 1 1.8457500000000000e+01 1.2077301606043163e+01 5.0310000000000006e+00 0 0 0
318 1 1.8457500000000000e+01 1.0656442593567499e+01 5.0310000000000006e+00 0 0 0
353 1 1.9687999999999999e+01 1.2787731112281000e+01 5.0310000000000006e+00 0 0 0
355 1 2.0918499999999998e+01 1.2077301606043163e+01 5.0310000000000006e+00 0 0 0
357 1 2.0918499999999998e+01 1.0656442593567501e+01 5.0310000000000006e+00 0 0 0
387 1 2.2148999999999997e+01 1.2787731112280998e+01 5.0310000000000006e+00 0 0 0
389 1 2.3379499999999997e+01 1.2077301606043163e+01 5.0310000000000006e+00 0 0 0
391 1 2.3379500000000000e+01 1.0656442593567498e+01 5.0310000000000006e+00 0 0 0
413 1 2.4609999999999999e+01 1.2787731112280998e+01 5.0310000000000006e+00 0 0 0
415 1 2.5840499999999995e+01 1.2077301606043164e+01 5.0310000000000006e+00 0 0 0
417 1 2.5840499999999999e+01 1.0656442593567498e+01 5.0310000000000006e+00 0 0 0
1297 1 2.7070999999999998e+01 1.2787731112280998e+01 5.0310000000000006e+00 0 0 0
1299 1 2.8301499999999997e+01 1.2077301606043157e+01 5.0310000000000006e+00 0 0 0
1301 1 2.8301499999999997e+01 1.0656442593567498e+01 5.0310000000000006e+00 0 0 0
1334 1 2.9531999999999996e+01 1.2787731112280998e+01 5.0310000000000006e+00 0 0 0
1336 1 3.0762499999999999e+01 1.2077301606043161e+01 5.0310000000000006e+00 0 0 0
1338 1 3.0762499999999999e+01 1.0656442593567498e+01 5.0310000000000006e+00 0 0 0
430 1 0.0000000000000000e+00 2.8417180249513345e+00 8.3849999999999998e+00 0 0 0
431 1 0.0000000000000000e+00 0.0000000000000000e+00 8.3849999999999998e+00 0 0 0
432 1 1.2304999999999999e+00 7.1042950623783474e-01 8.3849999999999998e+00 0 0 0
436 1 1.2304999999999999e+00 2.1312885187134998e+00 8.3849999999999998e+00 0 0 0
437 1 2.4609999999999999e+00 2.8417180249513345e+00 8.3849999999999998e+00 0 0 0
438 1 2.4609999999999999e+00 0.0000000000000000e+00 8.3849999999999998e+00 0 0 0
439 1 3.6915000000000000e+00 7.1042950623783474e-01 8.3849999999999998e+00 0 0 0
447 1 3.6914999999999996e+00 2.1312885187134998e+00 8.3849999999999998e+00 0 0 0
448 1 4.9219999999999997e+00 2.8417180249513341e+00 8.3849999999999998e+00 0 0 0
449 1 4.9219999999999997e+00 0.0000000000000000e+00 8.3849999999999998e+00 0 0 0
450 1 6.1524999999999999e+00 7.1042950623783430e-01 8.3849999999999998e+00 0 0 0
462 1 6.1524999999999999e+00 2.1312885187134993e+00 8.3849999999999998e+00 0 0 0
463 1 7.3829999999999991e+00 2.8417180249513345e+00 8.3849999999999998e+00 0 0 0
464 1 7.3829999999999991e+00 0.0000000000000000e+00 8.3849999999999998e+00 0 0 0
465 1 8.6134999999999984e+00 7.1042950623783430e-01 8.3849999999999998e+00 0 0 0
481 1 8.6134999999999984e+00 2.1312885187135002e+00 8.3849999999999998e+00 0 0 0
482 1 9.8439999999999994e+00 2.8417180249513336e+00 8.3849999999999998e+00 0 0 0
483 1 9.8439999999999994e+00 0.0000000000000000e+00 8.3849999999999998e+00 0 0 0
484 1 1.1074500000000000e+01 7.1042950623783341e-01 8.3849999999999998e+00 0 0 0
501 1 1.1074500000000000e+01 2.1312885187135002e+00 8.3849999999999998e+00 0 0 0
502 1 1.2305000000000000e+01 2.8417180249513336e+00 8.3849999999999998e+00 0 0 0
503 1 1.2305000000000000e+01 0.0000000000000000e+00 8.3849999999999998e+00 0 0 0
504 1 1.3535499999999999e+01 7.1042950623783518e-01 8.3849999999999998e+00 0 0 0
521 1 1.3535499999999999e+01 2.1312885187134984e+00 8.3849999999999998e+00 0 0 0
522 1 1.4765999999999998e+01 2.8417180249513354e+00 8.3849999999999998e+00 0 0 0
523 1 1.4765999999999998e+01 0.0000000000000000e+00 8.3849999999999998e+00 0 0 0
524 1 1.5996499999999999e+01 7.1042950623783518e-01 8.3849999999999998e+00 0 0 0
541 1 1.5996499999999999e+01 2.1312885187135002e+00 8.3849999999999998e+00 0 0 0
542 1 1.7226999999999997e+01 2.8417180249513336e+00 8.3849999999999998e+00 0 0 0