

### IMPORT ATOMS ###
read_data ../Box_Setup/data.Ibeam_240K
  orthogonal box = (0 0 0) to (157.504 40.4305 33.9212)
  5 by 3 by 2 MPI processor grid
  reading atoms ...
  9248 atoms
  reading velocities ...
  9248 velocities
group water type 2
1952 atoms in group water
group graphite type 1
7296 atoms in group graphite


# Define potential
#
pair_style          sw
pair_coeff * * MLC_e.sw C mW

# Add velocity/set timestep
#

fix		1 graphite setforce 0.0 0.0 0.0
velocity 	graphite set 0.0 0.0 0.0
velocity            water create ${START_TEMP} ${SEED} rot yes dist gaussian
velocity            water create 240 ${SEED} rot yes dist gaussian
velocity            water create 240 15424 rot yes dist gaussian
timestep            5.0

# Define output
#
compute 1 water msd
compute 2 water temp


thermo	            100
thermo_style custom step c_2 press vol etotal ke pe c_1[4] density

# Neighbor lists
#
neigh_modify        delay 0 every 1 check yes


# Set fixes
#
fix                 2 water momentum 10 linear 1 1 1 rescale
fix                 3 all nve
fix                 4 water temp/csvr ${START_TEMP} ${START_TEMP} 500.0 928347
fix                 4 water temp/csvr 240 ${START_TEMP} 500.0 928347
fix                 4 water temp/csvr 240 240 500.0 928347

# Run 0.05 ns equilibration
#
dump                1 all custom 100 ${DIR}/eq.${NAME}.dump id type x y z vx vy vz
dump                1 all custom 100 run_17/eq.${NAME}.dump id type x y z vx vy vz
dump                1 all custom 100 run_17/eq.ibeam_cooling_17.dump id type x y z vx vy vz
run                 10000
Neighbor list info ...
  update every 1 steps, delay 0 steps, check yes
  max neighbors/atom: 2000, page size: 100000
  master list distance cutoff = 6.67472
  ghost atom cutoff = 6.67472
  binsize = 3.33736, bins = 48 13 11
  1 neighbor lists, perpetual/occasional/extra = 1 0 0
  (1) pair sw, perpetual
      attributes: full, newton on
      pair build: full/bin/atomonly
      stencil: full/bin/3d
      bin: standard
Per MPI rank memory allocation (min/avg/max) = 3.464 | 4.433 | 4.822 Mbytes
Step c_2 Press Volume TotEng KinEng PotEng c_1[4] Density 
       0          240   -299.33439    216009.12   -18704.344    1395.7345   -20100.079            0   0.94393226 
     100    238.50745   -285.60172    216009.12     -18709.1    1387.0545   -20096.155   0.82914865   0.94393226 
     200    232.32925    -174.8092    216009.12   -18765.468    1351.1248   -20116.592    1.1616849   0.94393226 
     300    235.13156   -383.62426    216009.12    -18740.61    1367.4218   -20108.031    1.4871355   0.94393226 
     400    236.91892   -287.09593    216009.12   -18755.661    1377.8163   -20133.477    1.9256692   0.94393226 
     500    238.14876   -506.93617    216009.12    -18734.93    1384.9685   -20119.898    2.1578698   0.94393226 
     600    248.73263    -426.9569    216009.12   -18658.798    1446.5196   -20105.318    2.4887241   0.94393226 
     700    247.02463   -261.11899    216009.12   -18673.245    1436.5867   -20109.832    2.8499165   0.94393226 
     800    243.81746   -238.45227    216009.12   -18659.974    1417.9351   -20077.909    3.0953977   0.94393226 
     900    245.64147   -171.84445    216009.12   -18709.973    1428.5428   -20138.515     3.519706   0.94393226 
    1000    237.88973   -343.80189    216009.12    -18756.87    1383.4621   -20140.332    3.8646463   0.94393226 
    1100    247.79935   -339.82095    216009.12   -18730.428    1441.0921    -20171.52     4.017098   0.94393226 
    1200    241.33372   -313.24742    216009.12   -18731.469    1403.4908    -20134.96    4.2039486   0.94393226 
    1300    249.47742   -184.10969    216009.12   -18699.033     1450.851   -20149.884    4.5799259   0.94393226 
    1400    241.21838   -291.85191    216009.12   -18734.446      1402.82   -20137.266    4.7868909   0.94393226 
    1500    234.69876    -454.5483    216009.12   -18741.727    1364.9048   -20106.632    5.1088291   0.94393226 
    1600    238.55912   -364.41575    216009.12   -18719.911     1387.355   -20107.266    5.4271079   0.94393226 
    1700    240.75456   -319.15469    216009.12     -18710.5    1400.1227   -20110.623    5.7520936   0.94393226 
    1800    242.81341   -255.62578    216009.12   -18687.112     1412.096   -20099.208     6.035354   0.94393226 
    1900    245.56277     -303.765    216009.12   -18648.779    1428.0851   -20076.864    6.1867373   0.94393226 
    2000    248.85088   -277.46475    216009.12   -18619.591    1447.2073   -20066.798    6.4229331   0.94393226 
    2100    238.50717   -247.38324    216009.12   -18713.111    1387.0528   -20100.164    6.8789162   0.94393226 
    2200    234.47409   -265.94858    216009.12   -18685.529    1363.5982   -20049.127    7.1810413   0.94393226 
    2300    237.41446   -307.76279    216009.12   -18654.512    1380.6982    -20035.21    7.5416413   0.94393226 
    2400    241.32571   -365.10413    216009.12    -18648.77    1403.4443   -20052.214    7.9628497   0.94393226 
    2500    231.64328   -364.99945    216009.12   -18665.924    1347.1355   -20013.059    8.1753703   0.94393226 
    2600    235.86468   -243.12604    216009.12   -18642.366    1371.6853   -20014.051     8.600284   0.94393226 
    2700    240.55199   -366.52087    216009.12    -18640.52    1398.9446   -20039.465    9.1909156   0.94393226 
    2800    239.79495   -176.29552    216009.12   -18596.259     1394.542   -19990.801    9.7079599   0.94393226 
    2900    245.95304   -131.28533    216009.12   -18590.403    1430.3547   -20020.758    10.015628   0.94393226 
    3000    245.62749   -348.26847    216009.12    -18590.06    1428.4615   -20018.521     10.22138   0.94393226 
    3100    248.62374   -294.79182    216009.12   -18597.923    1445.8864   -20043.809    10.653646   0.94393226 
    3200    241.63797   -368.10204    216009.12   -18660.325    1405.2602   -20065.585     10.88582   0.94393226 
    3300    230.32435   -297.96688    216009.12   -18723.818    1339.4652   -20063.283    11.198118   0.94393226 
    3400    236.61459   -431.79485    216009.12   -18657.093    1376.0465   -20033.139    11.470356   0.94393226 
    3500    240.94242   -271.95273    216009.12   -18648.253    1401.2152   -20049.468    11.707257   0.94393226 
    3600    240.06028   -293.70641    216009.12   -18649.151    1396.0851   -20045.236    11.975371   0.94393226 
    3700     245.9765   -150.91539    216009.12   -18639.355    1430.4912   -20069.846    12.128427   0.94393226 
    3800    240.53524   -293.90898    216009.12   -18629.419    1398.8472   -20028.266    12.272514   0.94393226 
    3900    237.34583   -354.78416    216009.12   -18636.526     1380.299   -20016.825    12.539991   0.94393226 
    4000    234.71755   -240.92645    216009.12   -18689.695    1365.0141   -20054.709    12.761413   0.94393226 
    4100    232.13152   -61.825404    216009.12   -18682.016    1349.9749   -20031.991    13.168218   0.94393226 
    4200    243.65291   -332.28789    216009.12   -18663.784    1416.9782   -20080.763    13.459879   0.94393226 
    4300    237.85135   -345.59333    216009.12   -18717.106    1383.2389   -20100.345    13.842178   0.94393226 
    4400    239.50763   -411.02936    216009.12   -18680.385    1392.8711   -20073.256     14.56791   0.94393226 
    4500    239.91351   -294.66429    216009.12   -18714.614    1395.2315   -20109.845     14.91645   0.94393226 
    4600     236.8878   -316.00768    216009.12   -18771.919    1377.6353   -20149.554    14.917673   0.94393226 
    4700    242.05162   -135.89831    216009.12   -18699.933    1407.6658   -20107.599    15.097951   0.94393226 
    4800    246.91285   -325.81516    216009.12   -18682.631    1435.9366   -20118.568    15.438261   0.94393226 
    4900    246.66453   -292.92207    216009.12    -18633.53    1434.4925   -20068.023    15.870621   0.94393226 
    5000    241.87169   -232.27643    216009.12   -18681.292    1406.6194   -20087.912    15.976172   0.94393226 
    5100    247.44593   -407.32436    216009.12   -18667.579    1439.0367   -20106.616    16.402255   0.94393226 
    5200    239.62171   -256.23426    216009.12   -18677.565    1393.5345     -20071.1    16.662083   0.94393226 
    5300    233.98784   -296.46437    216009.12   -18743.294    1360.7704   -20104.065    16.843985   0.94393226 
    5400     237.1849   -335.89348    216009.12   -18729.103    1379.3631   -20108.466    16.726019   0.94393226 
    5500    238.72139    -290.7671    216009.12   -18711.079    1388.2987   -20099.378    16.602212   0.94393226 
    5600    235.29058    -249.1125    216009.12   -18734.238    1368.3466   -20102.585    16.653319   0.94393226 
    5700    241.32051   -312.66858    216009.12   -18680.832     1403.414   -20084.246    17.011305   0.94393226 
    5800    243.10184   -294.65515    216009.12   -18668.691    1413.7734   -20082.464    17.399234   0.94393226 
    5900    237.47967   -219.92551    216009.12    -18694.89    1381.0774   -20075.968    18.052391   0.94393226 
    6000    244.39592   -169.88311    216009.12   -18705.315    1421.2992   -20126.615    18.457424   0.94393226 
    6100    233.18205   -297.56626    216009.12   -18728.766    1356.0843    -20084.85    18.872747   0.94393226 
    6200    239.49606   -381.47247    216009.12   -18724.779    1392.8038   -20117.583     19.43116   0.94393226 
    6300    248.54716   -346.46086    216009.12   -18667.587     1445.441   -20113.028    19.830934   0.94393226 
    6400    234.98458   -231.72937    216009.12   -18692.439     1366.567   -20059.006    20.201398   0.94393226 
    6500    237.88117   -274.38182    216009.12   -18689.402    1383.4123   -20072.815    20.613193   0.94393226 
    6600    239.19505      -305.69    216009.12   -18718.159    1391.0532   -20109.212    20.987445   0.94393226 
    6700    233.52435   -323.88856    216009.12   -18732.346     1358.075   -20090.421    21.283283   0.94393226 
    6800    236.74906   -413.98281    216009.12   -18710.238    1376.8285   -20087.067    21.902166   0.94393226 
    6900    234.53628   -269.94905    216009.12   -18660.639    1363.9599   -20024.599    22.355435   0.94393226 
    7000     244.8145   -143.96781    216009.12   -18660.617    1423.7335    -20084.35    22.811375   0.94393226 
    7100    238.54794   -237.78993    216009.12   -18682.119      1387.29   -20069.409    23.179101   0.94393226 
    7200    237.86399   -236.52533    216009.12    -18733.68    1383.3124   -20116.992    23.495139   0.94393226 
    7300    230.01641   -262.09197    216009.12    -18761.04    1337.6743   -20098.714    23.968606   0.94393226 
    7400    233.22567   -112.70302    216009.12   -18729.377     1356.338   -20085.715    24.268348   0.94393226 
    7500    236.04929   -332.45841    216009.12   -18713.138    1372.7589   -20085.897    24.557957   0.94393226 
    7600    245.59877   -348.30168    216009.12   -18674.988    1428.2945   -20103.283    24.668582   0.94393226 
    7700    241.01728   -365.88299    216009.12   -18688.902    1401.6505   -20090.553    25.128604   0.94393226 
    7800    233.61644   -202.64197    216009.12    -18758.66    1358.6105    -20117.27    25.419527   0.94393226 
    7900    240.88685   -285.30165    216009.12   -18726.946     1400.892   -20127.838    25.705169   0.94393226 
    8000    246.41094   -283.03319    216009.12   -18676.421    1433.0177   -20109.439    26.254653   0.94393226 
    8100    239.93842   -308.99968    216009.12   -18657.238    1395.3764   -20052.615    26.742931   0.94393226 
    8200    240.99447   -403.39357    216009.12   -18669.882    1401.5179     -20071.4    26.926688   0.94393226 
    8300    244.25233   -325.76171    216009.12   -18630.174    1420.4642   -20050.638    26.934014   0.94393226 
    8400    249.93277   -271.76498    216009.12    -18609.11    1453.4991   -20062.609    27.476387   0.94393226 
    8500     244.9479   -350.78791    216009.12   -18642.655    1424.5093   -20067.165    27.878917   0.94393226 
    8600    246.25175    -277.3339    216009.12   -18663.887    1432.0919   -20095.979    28.271251   0.94393226 
    8700    236.72095   -282.49201    216009.12   -18683.615     1376.665    -20060.28    28.419286   0.94393226 
    8800    237.52083   -180.75287    216009.12   -18671.678    1381.3167   -20052.995    28.609913   0.94393226 
    8900    237.26337   -189.60366    216009.12   -18706.989    1379.8195   -20086.809    28.783089   0.94393226 
    9000    232.54213   -226.95046    216009.12   -18675.095    1352.3628   -20027.458    29.325317   0.94393226 
    9100    231.75488   -263.11012    216009.12   -18690.237    1347.7845   -20038.022    29.956859   0.94393226 
    9200    243.12495    -346.5764    216009.12   -18622.072    1413.9078    -20035.98    30.272782   0.94393226 
    9300    232.24072   -572.37794    216009.12   -18674.865    1350.6099   -20025.475    30.713033   0.94393226 
    9400    240.89356   -208.13722    216009.12   -18640.117    1400.9311   -20041.048    30.974977   0.94393226 
    9500    235.39456   -227.45204    216009.12    -18671.42    1368.9513   -20040.371    31.220059   0.94393226 
    9600    241.90147    -318.9321    216009.12   -18695.648    1406.7926   -20102.441     31.22712   0.94393226 
    9700    238.61675   -210.57738    216009.12   -18663.176    1387.6902   -20050.866    31.934461   0.94393226 
    9800    241.45826   -237.55408    216009.12   -18608.193    1404.2151   -20012.408    32.485362   0.94393226 
    9900    238.53766   -397.05188    216009.12   -18614.822    1387.2302   -20002.053    32.786193   0.94393226 
   10000    239.92486   -472.24444    216009.12   -18613.947    1395.2975   -20009.244    32.843014   0.94393226 
Loop time of 22.5027 on 30 procs for 10000 steps with 9248 atoms

Performance: 191.977 ns/day, 0.125 hours/ns, 444.392 timesteps/s
99.9% CPU use with 30 MPI tasks x no OpenMP threads

MPI task timing breakdown:
Section |  min time  |  avg time  |  max time  |%varavg| %total
---------------------------------------------------------------
Pair    | 0.0010962  | 7.6557     | 19.421     | 221.6 | 34.02
Neigh   | 0.0082136  | 0.49692    | 1.0856     |  54.7 |  2.21
Comm    | 0.38063    | 7.5413     | 15.287     | 185.5 | 33.51
Output  | 0.20805    | 0.20842    | 0.21357    |   0.2 |  0.93
Modify  | 0.35012    | 6.4604     | 21.752     | 328.5 | 28.71
Other   |            | 0.1399     |            |       |  0.62

Nlocal:    308.267 ave 592 max 0 min
Histogram: 6 5 1 0 3 0 0 1 7 7
Nghost:    1200.37 ave 1686 max 893 min
Histogram: 12 0 0 1 11 0 0 0 0 6
Neighs:    0 ave 0 max 0 min
Histogram: 30 0 0 0 0 0 0 0 0 0
FullNghs:  31466.3 ave 66163 max 0 min
Histogram: 12 3 0 0 0 0 0 2 6 7

Total # of neighbors = 943990
Ave neighs/atom = 102.075
Neighbor list builds = 565
Dangerous builds = 0
write_data 	    ${DIR}/data.${NAME}_eq
write_data 	    run_17/data.${NAME}_eq
write_data 	    run_17/data.ibeam_cooling_17_eq

undump              1
unfix               4



################################################
#######         Run Simulation         #########
################################################

reset_timestep      0
timestep	    10.0
log                 ${DIR}/log.run_${NAME}
log                 run_17/log.run_${NAME}
log                 run_17/log.run_ibeam_cooling_17
