
# Set production fixes - Nose/Hoover
#
fix                 4 water temp/csvr ${START_TEMP} ${END_TEMP} 500.0 928347
fix                 4 water temp/csvr 240 ${END_TEMP} 500.0 928347
fix                 4 water temp/csvr 240 227 500.0 928347


## divide "droplet" into core and surface
#region		core_reg cylinder z 135 135 44.6 20 INF units box
#region		surface_reg cylinder z 135 135 44.6 20 INF units box side out
#group		core dynamic all region core_reg
#group		surface dynamic all region surface_reg

## compute pressure core
#compute        peratom_core core stress/atom NULL
#compute        p_core core reduce sum c_peratom_core[1] c_peratom_core[2] c_peratom_core[3]
#variable       press_core equal -(c_p_core[1]+c_p_core[2]+c_p_core[3])/(3*1249982.5)


## compute pressure surface
#compute        peratom_surf surface stress/atom NULL
#compute        p_surf surface reduce sum c_peratom_surf[1] c_peratom_surf[2] #c_peratom_surf[3]
#variable       press_surf equal -(c_p_surf[1]+c_p_surf[2]+c_p_surf[3])/(3*42395)

## compute total pressure of drop
compute        peratom water stress/atom NULL
compute        p water reduce sum c_peratom[1] c_peratom[2] c_peratom[3]
variable       press equal -(c_p[1]+c_p[2]+c_p[3])/(3*50320)


# compute order parameter
compute        3 all orientorder/atom nnn NULL cutoff 3.5

# compute center of mass of bridge
compute 	4 water com

# Run simulation
thermo_style        custom step c_2 press vol etotal ke pe v_press c_1[4] c_4[*]
thermo              200
dump		     1 water custom 400 ${DIR}/prod.${NAME}.dump id type x y z vx vy vz c_3[*] c_peratom[*]
dump		     1 water custom 400 run_17/prod.${NAME}.dump id type x y z vx vy vz c_3[*] c_peratom[*]
dump		     1 water custom 400 run_17/prod.ibeam_cooling_17.dump id type x y z vx vy vz c_3[*] c_peratom[*]
run                 ${STEPS}
run                 5200000
Neighbor list info ...
  update every 1 steps, delay 0 steps, check yes
  max neighbors/atom: 2000, page size: 100000
  master list distance cutoff = 6.67472
  ghost atom cutoff = 6.67472
  binsize = 3.33736, bins = 48 13 11
  2 neighbor lists, perpetual/occasional/extra = 1 1 0
  (1) pair sw, perpetual
      attributes: full, newton on
      pair build: full/bin/atomonly
      stencil: full/bin/3d
      bin: standard
  (2) compute orientorder/atom, occasional, copy from (1)
      attributes: full, newton on
      pair build: copy
      stencil: none
      bin: none
Per MPI rank memory allocation (min/avg/max) = 6.263 | 6.912 | 7.369 Mbytes
Step c_2 Press Volume TotEng KinEng PotEng v_press c_1[4] c_4[1] c_4[2] c_4[3] 
       0    239.92486   -472.24444    216009.12   -18613.947    1395.2975   -20009.244   -1406.5493    32.843014    78.750401    22.596345    25.537435 
     200    239.34036    -305.0083    216009.12   -18668.712    1391.8983    -20060.61   -740.41901    34.469321    78.748966    22.594539    25.544981 
     400    231.40461   -91.649784    216009.12   -18675.145    1345.7475   -20020.893    146.25112    35.567683    78.749352    22.593869    25.531217 
     600    250.17501   -260.72105    216009.12   -18554.363    1454.9079   -20009.271   -542.32699    37.607353    78.747559    22.594552    25.549312 
     800    244.43723   -327.84742    216009.12   -18532.174    1421.5395   -19953.714   -769.12424    38.151609    78.747428    22.594533     25.54758 
    1000    237.03826   -274.17492    216009.12   -18620.993    1378.5103   -19999.503   -615.80226    38.945284    78.746431    22.595757    25.540891 
    1200    236.20184   -276.64024    216009.12   -18583.208    1373.6461   -19956.854   -620.32318    41.352096    78.742781    22.593184    25.513934 
    1400    242.37895   -235.79199    216009.12   -18587.915    1409.5695   -19997.484    -408.0476    42.865331      78.7427     22.59332    25.511068 
    1600    237.52235   -399.83711    216009.12   -18602.421    1381.3255   -19983.747   -1113.9467    45.015821    78.743179    22.593705     25.52981 
    1800    240.44933   -306.47513    216009.12   -18567.682    1398.3476    -19966.03   -689.95308    46.646084    78.743889    22.594926    25.512014 
    2000    252.33871   -241.53946    216009.12   -18498.853     1467.491   -19966.344    -448.5061    48.315292    78.743627    22.597102    25.518622 
    2200    242.81643   -322.82045    216009.12   -18549.556    1412.1136   -19961.669   -799.48942    49.365169    78.743076     22.59726    25.505505 
    2400    244.98637   -291.45969    216009.12    -18517.24     1424.733   -19941.973   -697.66678    51.179997    78.743674    22.596485    25.504558 
    2600    242.08921   -395.47838    216009.12   -18566.081    1407.8844   -19973.966   -1161.3592    53.163505    78.744359    22.596673    25.537478 
    2800    246.76608   -331.75806    216009.12   -18521.879     1435.083   -19956.963   -849.54162     55.14245    78.745036    22.596932    25.570895 
    3000    242.86986   -207.58566    216009.12    -18573.36    1412.4243   -19985.784   -298.49075    56.563163    78.747374    22.598148    25.609319 
    3200     243.5972   -245.25053    216009.12   -18621.416    1416.6542   -20038.071   -437.84717    58.467099    78.746448    22.598877    25.589189 
    3400    240.88581   -357.44568    216009.12   -18605.528     1400.886   -20006.414   -976.13663    59.557896    78.744632    22.601645    25.601433 
    3600    239.68397   -322.67624    216009.12    -18588.99    1393.8966   -19982.886   -820.58425    62.174308    78.742872    22.598651    25.590142 
    3800    236.80215   -326.25448    216009.12   -18527.201    1377.1372   -19904.338   -844.22479    64.174151     78.74035    22.596814    25.591127 
    4000    241.40424   -194.79159    216009.12   -18627.875     1403.901   -20031.776   -232.80908    65.770665    78.738221    22.596175    25.611546 
    4200    238.95296    -580.0521    216009.12   -18592.268    1389.6454   -19981.913   -1873.1765    67.392828    78.736774    22.592144    25.619328 
    4400    242.80748   -431.50671    216009.12   -18565.199    1412.0616   -19977.261   -1271.6374    68.700017     78.73819    22.589717    25.644885 
    4600    237.46983   -439.51236    216009.12   -18650.417    1381.0202   -20031.437   -1233.0414    70.720285    78.736461    22.588752    25.645817 
    4800    247.78262   -176.56821    216009.12   -18543.504    1440.9948   -19984.499   -176.58317    70.942604    78.737328    22.588857    25.614516 
    5000    241.63789   -258.60151    216009.12   -18563.906    1405.2597   -19969.166   -491.44742    73.094769    78.735896    22.591529    25.650856 
    5200    235.61123   -385.54621    216009.12   -18575.435    1370.2114   -19945.647   -1046.5538    74.761741    78.735157    22.591231    25.664878 
    5400    235.03919   -230.50074    216009.12   -18596.411    1366.8846   -19963.296   -374.48708    75.788848    78.734911    22.590757    25.677402 
    5600    240.00689   -452.08428    216009.12   -18625.663    1395.7746   -20021.437   -1325.5921    77.180617    78.735559    22.590303    25.686024 
    5800    239.86275   -199.41739    216009.12   -18562.283    1394.9363   -19957.219   -317.69105    78.928667    78.736771    22.589946    25.687325 
    6000    240.29459   -320.95869    216009.12    -18605.81    1397.4477   -20003.258   -781.58385    79.719301    78.735691    22.593586    25.688836 
    6200    234.52945   -525.08159    216009.12    -18600.99    1363.9202    -19964.91   -1641.7924    80.428181    78.735081    22.595231    25.676866 
    6400    243.53487   -423.60711    216009.12   -18564.362    1416.2918   -19980.654   -1210.1611    81.810785    78.734017    22.595642    25.680625 
    6600    237.42838   -371.93394    216009.12   -18568.146    1380.7791   -19948.925    -1009.246    83.064541    78.733777    22.594403    25.682117 
    6800    237.06604   -244.34224    216009.12    -18565.39    1378.6719   -19944.062   -452.62078     84.52094    78.733291    22.592573    25.690481 
    7000    236.23361   -463.67305    216009.12   -18513.233    1373.8309   -19887.064   -1388.7261    86.521508    78.733717    22.592113    25.696993 
    7200    234.68623   -370.10259    216009.12   -18599.389     1364.832   -19964.221   -1031.3907     87.93742    78.735195    22.592163    25.692534 
    7400    238.42905   -280.74862    216009.12   -18622.855    1386.5985   -20009.453   -598.46817     90.69117    78.735979    22.590794    25.670651 
    7600    241.96492   -275.43954    216009.12   -18561.314    1407.1616   -19968.476    -565.5957    91.862427    78.737846    22.590174    25.658389 
    7800    236.61056   -362.70951    216009.12   -18677.766     1376.023   -20053.789   -932.15216    93.389821    78.738595    22.589035    25.626264 
    8000     247.0336   -198.05086    216009.12   -18583.008    1436.6388   -20019.647   -271.05178    95.165059    78.738843    22.589702    25.623735 
    8200    241.78411   -279.79293    216009.12   -18596.105    1406.1101   -20002.215   -587.29591    97.850722    78.739925    22.589097    25.625648 
    8400    241.17278   -259.19494    216009.12    -18541.98    1402.5549   -19944.535   -492.65008    99.829673    78.739122     22.58751    25.624675 
    8600      243.835   -213.29721    216009.12   -18595.528    1418.0372   -20013.565   -300.09418    99.057146    78.739116    22.587679    25.626325 
    8800    234.38367   -564.26177    216009.12   -18627.078    1363.0724    -19990.15   -1791.3819    100.76724    78.738908    22.587983    25.622113 
    9000     241.2922   -207.96491    216009.12   -18597.868    1403.2494   -20001.118   -295.01782    101.39547     78.73969    22.587758    25.619587 
    9200    242.28518   -364.03441    216009.12   -18564.148    1409.0241   -19973.172   -982.12466    103.61396    78.743236    22.586546    25.641548 
    9400    237.74098   -334.91871    216009.12   -18592.559     1382.597   -19975.156   -849.94825    105.80947    78.744683    22.586576    25.616882 
    9600    235.24354   -392.14675    216009.12   -18619.136     1368.073   -19987.209   -1080.6296    107.68364    78.747894    22.585681    25.593135 
    9800    247.21871   -303.00335    216009.12   -18513.215    1437.7153    -19950.93    -708.9846    107.90243    78.747474    22.585346    25.570953 
   10000    238.18739   -339.63064    216009.12    -18553.75    1385.1932   -19938.943   -859.33979    108.80914    78.745158    22.586396    25.570618 
   10200    242.96855   -353.38073    216009.12   -18476.339    1412.9983   -19889.338   -946.95907    111.92597     78.74301    22.584646    25.561365 
   10400    245.71939    -314.4176    216009.12   -18457.192     1428.996   -19886.188   -736.75224    113.38033    78.741504    22.583601    25.555245 
   10600    233.70301   -169.23622    216009.12   -18560.158     1359.114   -19919.272   -111.02016    114.45004    78.740732    22.581242    25.558242 
   10800    240.49368   -284.58068    216009.12   -18605.361    1398.6055   -20003.967   -609.90461    115.18934    78.741674    22.581989    25.541289 
   11000    234.21745   -217.47528    216009.12   -18604.053    1362.1057   -19966.158   -363.47287    113.79498    78.742343    22.580235    25.532032 
   11200    236.34884   -163.67452    216009.12   -18594.913     1374.501   -19969.414   -83.639604    116.64595    78.742517    22.579146    25.526113 
   11400    233.79872   -296.50733    216009.12   -18576.565    1359.6706   -19936.235   -692.94372    116.64213    78.742889     22.57899    25.497893 
   11600    240.81953   -237.20294    216009.12   -18491.598    1400.5005   -19892.098   -385.55991    117.24862    78.742436     22.57935    25.482615 
   11800    245.86249   -244.86302    216009.12    -18504.77    1429.8282   -19934.598   -500.44076    118.44178    78.742712     22.57731    25.490984 
   12000    240.41053   -381.02241    216009.12   -18498.096    1398.1219   -19896.218    -1041.212    120.08829    78.743189     22.57703    25.505136 
   12200    244.16505   -425.51179    216009.12   -18524.933    1419.9566   -19944.889   -1245.5921    122.32465    78.744025    22.575848     25.51033 
   12400    241.45093   -247.01965    216009.12   -18553.539    1404.1724   -19957.711   -470.01425    123.61621    78.742858    22.574076    25.510834 
   12600    242.37463   -166.58444    216009.12   -18516.956    1409.5443   -19926.501   -156.07183    125.91275    78.744671    22.574391    25.532121 
   12800    247.79683   -307.77318    216009.12   -18555.911    1441.0774   -19996.988   -738.07413    128.21844     78.74242    22.573883    25.523429 
   13000    237.49695   -296.64737    216009.12   -18583.123    1381.1778   -19964.301   -704.32296    129.42934    78.741805    22.573669    25.522866 
   13200    236.99961   -334.34086    216009.12   -18593.657    1378.2856   -19971.942   -824.61075     130.9632    78.741809    22.573555    25.519819 
   13400    239.07875   -279.45067    216009.12   -18662.344    1390.3769    -20052.72   -620.13563    130.73318    78.739753    22.572715    25.524918 
   13600    236.59803     -91.9898    216009.12   -18659.766    1375.9502   -20035.716    131.24152    131.79219    78.739274    22.573512    25.531745 
   13800    242.34756   -281.41087    216009.12   -18599.522    1409.3869   -20008.909   -616.45999    133.89447    78.738525    22.576075    25.511576 
   14000    246.21609   -368.95098    216009.12   -18528.112    1431.8845   -19959.996   -1034.7017    136.40536    78.739944    22.576789    25.527251 
   14200    242.52879   -173.00479    216009.12   -18581.556    1410.4408   -19991.996    -155.0737     138.8889    78.739157    22.575642    25.518868 
   14400    234.26902   -158.26718    216009.12   -18628.621    1362.4057   -19991.026   -81.759473    139.14742    78.738474    22.574725    25.511448 
   14600    238.68877   -420.78341    216009.12   -18607.032    1388.1089   -19995.141   -1170.1913    140.76783    78.736153    22.574993    25.484263 
   14800    237.40074   -379.70385    216009.12   -18575.467    1380.6184   -19956.085   -1055.8255    142.83823    78.733609    22.575617    25.487667 
   15000    239.47625   -307.26618    216009.12   -18596.488    1392.6886   -19989.177   -690.45933    145.17064     78.73464    22.575992    25.479109 
   15200    245.76228    -370.7939    216009.12   -18584.113    1429.2454   -20013.359   -981.24569    146.58946    78.738179     22.57531    25.472546 
   15400    235.31254   -235.36352    216009.12   -18640.233    1368.4743   -20008.707   -396.58009    147.05587    78.739587    22.575621    25.475007 
   15600     239.6446   -384.19237    216009.12   -18502.854    1393.6677   -19896.522   -1072.7626    148.78019    78.738935    22.577493    25.479833 
   15800    246.47773   -230.41669    216009.12   -18551.873    1433.4062   -19985.279   -425.10155    149.68181    78.738344     22.57972    25.475046 
   16000    240.47357   -393.88151    216009.12    -18561.18    1398.4886   -19959.668   -1094.1266    151.70153    78.737979    22.579227    25.448323 
   16200    238.52752   -361.80375    216009.12    -18524.32    1387.1712   -19911.492   -967.34361     152.9169    78.739827    22.579941    25.455675 
   16400    246.29698   -309.74534    216009.12   -18571.378     1432.355   -20003.733   -774.93543    153.64691    78.741991    22.578916    25.461764 
   16600    244.23945   -249.20334    216009.12   -18490.107    1420.3893   -19910.496   -464.06839    155.39463    78.742502    22.579987    25.447057 
   16800    242.29437   -336.94881    216009.12   -18536.205    1409.0775   -19945.282    -859.9383    157.18834     78.74374    22.581049    25.447739 
   17000    237.76154   -124.01734    216009.12   -18585.351    1382.7166   -19968.068     51.12783    159.54975    78.743573    22.578622    25.443269 
   17200    239.35949   -347.31984    216009.12   -18638.941    1392.0096    -20030.95   -969.11393    161.27129    78.744375    22.580449    25.430327 
   17400    230.87333   -222.77511    216009.12   -18682.628    1342.6578   -20025.285   -389.48789    162.65395    78.745176    22.581487     25.43035 
   17600    234.01658   -427.25041    216009.12   -18611.046    1360.9375   -19971.984   -1301.2468    164.71807    78.748177     22.58391    25.430177 
   17800    236.36277   -108.53185    216009.12   -18598.973     1374.582   -19973.555    74.415279    165.58478    78.749263    22.582758    25.426047 
   18000    240.69257   -439.20831    216009.12   -18566.826    1399.7622   -19966.588   -1288.5311    165.13353    78.747175    22.583503    25.419481 
   18200    238.44602   -368.42814    216009.12   -18579.649    1386.6972   -19966.346   -995.01537    165.64009    78.747735    22.582316    25.415034 
   18400    238.61293   -253.06815    216009.12   -18541.014    1387.6679   -19928.682   -533.13248    167.51831    78.747657    22.580204    25.432475 
   18600    242.67787   -321.16544    216009.12   -18531.071    1411.3078   -19942.379   -800.52166    168.24214    78.747326    22.580294    25.420838 
   18800    237.56417    -250.9277    216009.12   -18600.233    1381.5688   -19981.801   -495.05607    169.65455    78.746965    22.583077    25.442086 
   19000    241.23194   -350.30381    216009.12    -18522.45    1402.8989   -19925.349   -905.98018    171.57105    78.749067    22.584221      25.4335 
   19200    242.39345   -332.28432    216009.12   -18556.378    1409.6538   -19966.031   -829.20266    172.62965    78.750434    22.583617    25.436178 
   19400    240.72374   -271.98838    216009.12   -18508.614    1399.9434   -19908.557   -586.39112    173.07357     78.75448    22.582645    25.443662 
   19600     243.1275   -236.80318    216009.12   -18523.089    1413.9226   -19937.012    -455.7689    172.23715    78.754303     22.58215    25.429457 
   19800     245.3261   -323.10632    216009.12   -18527.782    1426.7088   -19954.491   -803.08558    172.77744    78.756262    22.582554    25.422311 
   20000     241.7639   -400.28585    216009.12   -18581.375    1405.9926   -19987.367   -1129.8405    174.04821    78.755567    22.581479    25.408385 
   20200      239.938   -314.12206    216009.12   -18614.884    1395.3739   -20010.258   -824.75281    175.32731    78.755336    22.582249    25.442638 
   20400    247.07593   -206.08266    216009.12   -18528.134     1436.885   -19965.019    -339.5115    177.57651    78.755082    22.583984    25.443165 
   20600    234.52707   -236.72717    216009.12    -18648.95    1363.9064   -20012.857   -425.15664    177.64241     78.75371    22.584442     25.44877 
   20800    243.06807   -404.27453    216009.12   -18582.012    1413.5771   -19995.589   -1116.6168    178.20525    78.751321    22.587603    25.443131 
   21000    240.87741   -115.68161    216009.12   -18617.062    1400.8371   -20017.899    94.862014    177.52515    78.751366     22.58912    25.437605 
   21200    240.43244   -243.72294    216009.12   -18548.314    1398.2494   -19946.563   -529.12065    178.11227    78.750765    22.591126    25.437401 
   21400    236.63439   -312.43148    216009.12    -18574.59    1376.1616   -19950.751   -732.93154     180.0347    78.748888      22.5934    25.441715 
   21600    247.32883   -307.86654    216009.12   -18496.671    1438.3557   -19935.026   -738.61632    180.56325    78.746926    22.596813    25.451869 
   21800     240.2123   -350.27544    216009.12     -18615.8    1396.9692   -20012.769   -867.87077    181.89044    78.746475    22.595366    25.449405 
   22000    237.39264   -420.25174    216009.12   -18670.693    1380.5713   -20051.264    -1236.174    182.40804    78.746162    22.595377    25.423469 
   22200    237.66259   -168.93267    216009.12   -18687.828    1382.1412   -20069.969   -124.74725    184.05175    78.746657    22.597233    25.425031 
   22400    247.75268   -394.21547    216009.12    -18590.12    1440.8207   -20030.941   -1089.8888    185.76863    78.750328    22.602001    25.432701 
   22600    246.23621   -289.04241    216009.12   -18565.992    1432.0016   -19997.993   -609.30715    186.87759    78.750058    22.605164    25.446641 
   22800    244.96553   -158.13427    216009.12   -18542.207    1424.6118   -19966.819   -110.26502    187.91461    78.751707    22.606838    25.436475 
   23000    232.87524   -202.87929    216009.12   -18603.467       1354.3   -19957.767   -311.75552    189.85869    78.752343    22.608642    25.437116 
   23200    245.01809   -242.35859    216009.12   -18572.315    1424.9175   -19997.232   -439.99865    190.40603    78.749907    22.606951    25.456452 
   23400    240.92715   -249.57112    216009.12    -18576.53    1401.1264   -19977.656   -520.39285    191.08081    78.748575    22.606941    25.484737 
   23600    243.23295   -466.89239    216009.12   -18535.653    1414.5359   -19950.189   -1414.4109    193.49033    78.747547     22.60778    25.504379 
   23800    242.52694   -354.61344    216009.12   -18549.267    1410.4301   -19959.697   -924.88233    194.43336    78.748114    22.608456    25.520882 
   24000    243.29157   -295.06039    216009.12   -18581.475    1414.8768   -19996.352   -657.60235    195.48061    78.748703    22.611003    25.530379 
   24200    237.20664   -263.98044    216009.12   -18573.682    1379.4895   -19953.172   -587.19474    195.43162    78.748324    22.609211    25.510373 
   24400    238.09899   -347.21493    216009.12   -18588.978     1384.679   -19973.657   -929.32672    197.24166    78.750281    22.609328    25.479974 
   24600    239.05732    -207.8937    216009.12   -18638.168    1390.2523   -20028.421   -339.50853    198.60456    78.750634    22.608735    25.482486 
   24800    234.99344   -202.55714    216009.12   -18592.213    1366.6185   -19958.832   -288.22657    200.12534    78.749151    22.608626    25.488558 
   25000    236.13052   -269.09918    216009.12   -18597.614    1373.2313   -19970.845   -619.73401    201.28756    78.750075    22.606145     25.48985 
   25200    234.84936   -316.43701    216009.12   -18717.385    1365.7807   -20083.165   -765.43729    203.54633    78.750233    22.603304    25.488438 
   25400    241.69368   -363.38907    216009.12    -18645.46    1405.5842   -20051.044   -942.78672    205.25758    78.750296    22.601688    25.479027 
   25600    253.24255   -355.08067    216009.12   -18474.529    1472.7474   -19947.276   -962.65321    206.37897    78.752384    22.600927    25.478305 
   25800    246.17317   -329.70766    216009.12    -18516.28    1431.6349   -19947.915   -836.63162    207.34983     78.75322    22.598385    25.503566 
   26000    240.01336   -308.59187    216009.12   -18548.688    1395.8122   -19944.501   -766.75008    208.54018    78.753306    22.597206    25.503069 
   26200    237.62076   -142.65714    216009.12   -18599.171    1381.8979   -19981.069   -41.221262    210.07681    78.751682    22.596657    25.529042 
   26400    232.35763   -532.87169    216009.12   -18637.585    1351.2898   -19988.875   -1743.9295    211.46232    78.749388    22.597403    25.537315 
   26600    248.61052   -140.40487    216009.12   -18556.246    1445.8095   -20002.056   -24.737741    211.68913    78.748721    22.598071    25.547433 
   26800    242.98711   -416.23503    216009.12   -18582.109    1413.1062   -19995.215   -1223.3494    213.65746    78.746116    22.597971    25.559132 
   27000    241.45038   -348.87487    216009.12    -18504.87    1404.1693   -19909.039    -924.4182     215.3182    78.746705     22.59698    25.534583 
   27200    244.24165   -437.84401    216009.12   -18553.712     1420.402   -19974.114   -1298.9086       217.95    78.746593    22.595412     25.51873 
   27400    244.88489   -225.49701    216009.12   -18489.555    1424.1428   -19913.698   -384.32581    220.04155    78.748341    22.596268    25.541293 
   27600    236.76336   -289.98691    216009.12   -18613.446    1376.9116   -19990.358   -650.12502     224.5416    78.751008    22.596745    25.556211 
   27800    239.99332   -231.72644    216009.12   -18563.528    1395.6957   -19959.223   -450.22453    225.23514    78.751569    22.596566    25.556132 
   28000    236.25912   -318.02325    216009.12   -18644.948    1373.9792   -20018.927    -756.2631    226.01072    78.750927    22.593605     25.53372 
   28200    234.40072   -199.69887    216009.12    -18625.52    1363.1716   -19988.692   -272.46001    224.03256    78.751159    22.591657    25.545299 
   28400    240.58826   -333.83822    216009.12   -18633.698    1399.1555   -20032.854   -885.83447    224.36624    78.749208    22.592341    25.548793 
   28600    237.77478   -365.38582    216009.12   -18629.116    1382.7936    -20011.91    -983.1012    228.28558    78.748766    22.590498    25.563017 
   28800    239.21128   -300.75001    216009.12    -18625.93    1391.1477   -20017.077   -757.76407    228.07967    78.746123    22.589377     25.53308 
   29000     241.2965    -188.3046    216009.12   -18596.253    1403.2744   -19999.527   -246.18136    228.04231    78.743737    22.588766    25.532109 
   29200    243.78513   -478.41161    216009.12    -18559.08    1417.7472   -19976.827   -1436.9525    230.30685    78.743797    22.589976    25.533179 
   29400    244.90549   -280.14095    216009.12   -18574.743    1424.2627   -19999.006   -644.58366    230.62222    78.742278    22.591832    25.530299 
   29600    238.21016   -250.30897    216009.12   -18580.158    1385.3256   -19965.483   -475.82365    232.50093    78.739879    22.590596    25.506345 
   29800    235.48569   -343.99717    216009.12   -18637.345    1369.4813   -20006.826   -909.96523    232.86074    78.739776     22.59012    25.509741 
   30000    234.47171   -186.00535    216009.12   -18684.857    1363.5844   -20048.441   -175.62804    232.66309    78.738442    22.589755    25.519123 
   30200    234.70705   -410.71931    216009.12   -18626.687     1364.953    -19991.64   -1249.1455    233.61267    78.738152    22.590926    25.529068 
   30400    242.92293   -217.44992    216009.12   -18616.914     1412.733   -20029.647   -372.69458     235.9266    78.738797    22.591045    25.558172 
   30600    238.43941   -467.15388    216009.12   -18667.858    1386.6588   -20054.517   -1384.8467    239.03871    78.740016    22.592424     25.56293 
   30800    246.61657   -256.99169    216009.12   -18635.609    1434.2136   -20069.822   -500.08887    240.56961    78.743284    22.591997    25.602451 
   31000    240.11053   -403.29694    216009.12   -18623.242    1396.3773   -20019.619   -1139.2845    242.12523    78.745053    22.588825    25.571819 
   31200    243.35699   -315.54176    216009.12   -18630.358    1415.2573   -20045.616   -714.59649    242.77459    78.747351    22.585635    25.576249 
   31400    244.03097   -405.70632    216009.12   -18608.933    1419.1768   -20028.109   -1131.4217    244.12161    78.749154    22.585973    25.569109 
   31600    234.12526    -463.4494    216009.12   -18668.157    1361.5696   -20029.726   -1401.6662    245.43805    78.749328    22.586496    25.560907 
   31800    238.56335   -369.51528    216009.12   -18569.462    1387.3796   -19956.841   -991.88841    246.65443    78.749781    22.583562    25.552554 
   32000    233.69382   -209.17838    216009.12   -18663.752    1359.0606   -20022.812   -283.09076    247.39328    78.749776     22.58471    25.534448 
   32200    235.68572   -376.89284    216009.12   -18691.962    1370.6446   -20062.606   -1017.9898    248.76444    78.749489    22.584724    25.528356 
   32400    239.07599   -273.70539    216009.12   -18679.479    1390.3608    -20069.84   -573.87467    248.13191    78.749887    22.582296    25.550271 
   32600    246.99047   -262.10478    216009.12   -18606.235     1436.388   -20042.623   -549.58203     248.1575    78.751248    22.581682    25.561747 
   32800    246.91316   -430.07406    216009.12   -18605.309    1435.9384   -20041.248   -1199.8962    248.03431    78.752692    22.579034    25.557781 
   33000    245.23228   -246.21625    216009.12   -18609.612    1426.1632   -20035.775   -432.53218    249.57849     78.75516    22.579358    25.537574 
   33200    234.33929    -372.8963    216009.12   -18629.833    1362.8143   -19992.647   -1019.5675    252.06154    78.753695    22.575614    25.525626 
   33400    233.04945   -348.84734    216009.12   -18674.958    1355.3131   -20030.272   -892.74851    253.70831    78.755017     22.57188    25.519308 
   33600    232.01949   -278.95874    216009.12    -18651.22    1349.3234   -20000.543   -609.12502    251.36383    78.754768    22.572041    25.496444 
   33800    250.09501   -340.90108    216009.12   -18512.044    1454.4426   -19966.487   -863.64452    253.81444    78.754214    22.572403    25.506259 
   34000    240.52249   -409.97585    216009.12   -18627.712    1398.7731   -20026.485   -1150.2265    254.25095    78.754188    22.574511    25.506965 
   34200    235.28955   -262.49725    216009.12   -18586.101    1368.3406   -19954.441   -503.03805    255.80015    78.755036    22.572692     25.51185 
   34400    241.09503   -314.37008    216009.12   -18642.347    1402.1027    -20044.45   -749.44446     259.1755     78.75753    22.572578     25.50706 
   34600    246.45138   -360.59918    216009.12    -18503.94    1433.2529   -19937.193   -962.40069    259.37846    78.758483    22.572205    25.487657 
   34800    239.15287   -395.56718    216009.12   -18586.158     1390.808   -19976.966   -1130.3445    259.95955    78.757477    22.567926    25.466107 
   35000    239.16522   -252.34164    216009.12   -18607.362    1390.8798   -19998.241   -456.09603    260.93614    78.759246    22.567087    25.456523 
   35200    249.02385   -429.16408    216009.12   -18538.835    1448.2133   -19987.049   -1229.7375    261.88301    78.761508    22.567649      25.4594 
   35400    240.44582   -372.44548    216009.12   -18562.059    1398.3272   -19960.386   -993.65733    264.41157    78.761524    22.567887    25.487301 
   35600    240.55081   -200.32288    216009.12   -18578.226    1398.9378   -19977.163   -278.70764    264.19547    78.762033    22.567619    25.502855 
   35800    240.76678   -507.57877    216009.12   -18504.018    1400.1937   -19904.212   -1615.4427    266.58132    78.760484     22.56506    25.500026 
   36000    231.80959   -255.15061    216009.12   -18631.906    1348.1027   -19980.009   -503.85736    266.63493    78.758836     22.56538    25.493668 
   36200    244.99418   -290.59047    216009.12   -18634.186    1424.7785   -20058.964   -596.86571    266.76088    78.758979     22.56413    25.496613 
   36400    242.29868   -267.55517    216009.12   -18607.633    1409.1026   -20016.736   -576.69071    267.46489    78.755466    22.565366    25.481187 
   36600    243.87239   -378.87241    216009.12   -18602.855    1418.2546   -20021.109   -1019.9152    268.58151    78.754522    22.565853    25.481994 
   36800    233.00164   -382.41064    216009.12   -18676.966    1355.0351   -20032.001    -1043.458    268.09768    78.751868    22.567961    25.515085 
   37000    236.02105   -162.94576    216009.12   -18630.619    1372.5947   -20003.214   -61.517416    270.17326    78.752545     22.56617    25.536037 
   37200    236.64651   -363.05348    216009.12   -18664.397    1376.2321   -20040.629   -948.36573    271.50438    78.752936    22.565408     25.52554 
   37400     239.5277   -295.61935    216009.12   -18633.604    1392.9878   -20026.592   -661.80293    271.09344    78.752065    22.564049    25.539627 
   37600     239.3286   -207.64499    216009.12   -18681.578    1391.8299   -20073.408   -376.23532    273.00064     78.75061     22.56162    25.519326 
   37800    232.62889   -257.81546    216009.12   -18737.399    1352.8674   -20090.267         -479    273.68637    78.749549    22.558981    25.529751 
   38000    239.42445   -393.12653    216009.12    -18655.99    1392.3873   -20048.378     -1115.18    275.29579    78.749715     22.55992    25.519196 
   38200    242.86199   -422.68069    216009.12   -18685.739    1412.3785   -20098.118   -1196.7669    277.34848    78.751794    22.561476    25.497453 
   38400    242.43365    -336.6245    216009.12   -18642.242    1409.8875    -20052.13   -830.99984    279.16181    78.749601    22.564654    25.467328 
   38600    243.80758   -247.67938    216009.12   -18672.125    1417.8777   -20090.003   -474.70567    281.24681    78.747379    22.567835    25.465463 
   38800    240.71903   -387.66913    216009.12   -18689.569    1399.9161   -20089.485   -1070.1443    281.92413    78.746101    22.567143    25.477242 
   39000    238.80888   -310.76129    216009.12   -18626.202    1388.8075    -20015.01   -730.93279    282.98124    78.745297    22.569908    25.461239 
   39200    238.99438   -397.42784    216009.12   -18701.988    1389.8863   -20091.874   -1076.6302    282.85326    78.745515    22.571903    25.464965 
   39400     237.4894   -452.88673    216009.12   -18654.504    1381.1339   -20035.638    -1330.439    283.12892     78.74647    22.574594    25.474883 
   39600    244.37446   -265.25876    216009.12    -18623.86    1421.1744   -20045.034   -513.31158    283.77071    78.746141    22.574679    25.452806 
   39800    239.10718   -434.34086    216009.12   -18699.025    1390.5422   -20089.567   -1255.9383    287.90568    78.746649    22.572303    25.447542 
   40000    238.08871   -471.54621    216009.12   -18690.205    1384.6193   -20074.824   -1425.4008    289.29745    78.747148    22.570442    25.451483 
   40200    240.98011    -361.1138    216009.12   -18679.829    1401.4344   -20081.264   -968.94423    290.86011    78.747091    22.569714     25.47661 
   40400    238.10925   -308.88274    216009.12   -18683.855    1384.7387   -20068.594   -686.13433    290.52829    78.747332    22.569555     25.43554 
   40600    244.74622   -242.45867    216009.12    -18602.06    1423.3364   -20025.396   -415.92242    291.16152    78.745626    22.565676    25.431694 
   40800    236.31732   -233.97575    216009.12   -18682.383    1374.3177     -20056.7   -419.85992    291.00744    78.747479    22.563386    25.413976 
   41000    239.06459   -166.88694    216009.12   -18628.379    1390.2946   -20018.673   -139.06653    293.67049    78.747171    22.562011    25.411119 
   41200    249.97855    -375.0777    216009.12   -18597.298    1453.7654   -20051.064   -1003.1354    296.32887    78.748531    22.562091     25.43692 
   41400    241.52362   -224.93972    216009.12   -18631.152    1404.5952   -20035.747   -362.17927    297.61913    78.751357    22.560838    25.450201 
   41600    247.96014   -301.24935    216009.12   -18608.186    1442.0272   -20050.214   -687.42282    298.17688    78.752626    22.558398    25.436295 
   41800    242.78391   -343.10911    216009.12   -18619.833    1411.9245   -20031.758   -844.45929     301.2477    78.756419    22.558184    25.428589 
   42000    237.42808   -302.88417    216009.12   -18673.283    1380.7773    -20054.06   -731.14307    305.14515    78.758947    22.558046    25.414644 
   42200    234.89428   -356.85464    216009.12   -18720.118    1366.0419    -20086.16   -952.12811    304.46001    78.757648    22.556352    25.410605 
   42400    236.56974   -374.18166    216009.12   -18641.464    1375.7856    -20017.25   -1022.4365    306.33923    78.758916    22.554737    25.417259 
   42600    240.01253   -290.35844    216009.12   -18689.705    1395.8074   -20085.512   -600.73164    307.01495    78.759913    22.555432    25.388727 
   42800    240.93973   -338.02464    216009.12   -18662.338    1401.1995   -20063.537   -873.44155    306.76765     78.76042     22.55479    25.368074 
   43000     238.7747   -553.80948    216009.12   -18649.277    1388.6087   -20037.885    -1759.599    307.21735    78.759683    22.554686    25.357367 
   43200    236.18615   -243.60951    216009.12   -18613.001    1373.5548   -19986.556   -402.18807    307.86453     78.75848     22.55464    25.365918 
   43400    242.44613    -400.5907    216009.12    -18609.99    1409.9601    -20019.95   -1155.8403    308.15265    78.758474     22.55333    25.358533 
   43600    235.64547   -355.06464    216009.12   -18588.248    1370.4105   -19958.659   -885.31707    310.19289    78.756982    22.553538    25.368563 
   43800    241.35388   -387.01325    216009.12    -18634.51    1403.6081   -20038.118   -1091.2694    311.04459    78.758509    22.554351    25.364365 
   44000    230.90679   -404.23132    216009.12   -18639.994    1342.8524   -19982.846   -1126.9963    312.09892    78.759605    22.556241    25.345982 
   44200    235.64784    -446.6685    216009.12   -18582.516    1370.4242    -19952.94   -1346.8793    312.56222    78.760409    22.553944    25.331845 
   44400    245.23081   -276.58254    216009.12   -18608.717    1426.1546   -20034.872   -597.71541    312.69036    78.758353    22.552197    25.314366 
   44600    235.73881   -164.59898    216009.12   -18621.861    1370.9533   -19992.815   -100.28313    312.10977    78.757462    22.549839    25.310681 
   44800    244.40533   -180.82328    216009.12   -18613.767    1421.3539    -20035.12   -136.18794    314.79122    78.757698    22.548238     25.31957 
   45000    231.89436   -368.93216    216009.12   -18599.604    1348.5957     -19948.2   -981.40737    318.56453    78.757411    22.547319    25.336524 
   45200     241.7479   -303.17588    216009.12   -18566.553    1405.8995   -19972.452   -666.46103    319.66321    78.756845     22.55012    25.338788 
   45400    234.97822    -186.6772    216009.12   -18642.934      1366.53   -20009.464   -195.34765    320.19161    78.758576    22.549906    25.329973 
   45600    236.41429   -444.92862    216009.12    -18564.62    1374.8816   -19939.502   -1361.7073    321.29654    78.758935    22.549707    25.318935 
   45800    242.36963   -195.87181    216009.12   -18600.502    1409.5152   -20010.017   -271.00999    320.29196    78.758591    22.550905    25.306215 
   46000    249.03236   -402.39436    216009.12   -18539.645    1448.2627   -19987.907   -1134.8871    322.67568    78.758669    22.551902    25.345081 
   46200    238.59842   -411.69844    216009.12   -18546.553    1387.5835   -19934.136   -1169.6257    323.00982    78.758855    22.551134    25.352278 
   46400     236.6507   -213.59359    216009.12   -18656.498    1376.2564   -20032.754   -296.79563    323.56159    78.760334    22.552704    25.367711 
   46600     240.5367   -195.44774    216009.12   -18632.152    1398.8557   -20031.008   -312.22201    325.88209    78.762819    22.552281    25.359979 
   46800    245.60244   -130.28173    216009.12   -18587.976    1428.3158   -20016.291    59.449476    329.33487    78.763286    22.552518    25.352139 
   47000    244.74777   -328.06167    216009.12    -18566.51    1423.3454   -19989.855   -832.47214    331.36836    78.762087    22.552817     25.34639 
   47200    233.95331    -156.2859    216009.12   -18660.622    1360.5696   -20021.192   -84.517577    333.26756    78.762839    22.550065    25.355512 
   47400    238.64991   -241.03238    216009.12    -18612.79     1387.883   -20000.673   -418.27948    332.86812     78.76301    22.552897    25.364186 
   47600    239.05737    -374.4402    216009.12   -18629.732    1390.2526   -20019.985   -997.30399    334.55156    78.765179    22.554502    25.366569 
   47800    234.99048   -298.68651    216009.12   -18622.839    1366.6013    -19989.44   -685.75176    334.08742    78.768336     22.55323    25.370433 
   48000    238.01394   -310.01144    216009.12   -18620.712    1384.1844   -20004.896   -758.82036    335.07561    78.769534      22.5525    25.329931 
   48200    233.25545    -298.7834    216009.12   -18620.537    1356.5112   -19977.048   -731.68427    336.38232    78.771985    22.553166    25.317875 
   48400    241.77447   -252.34091    216009.12   -18590.779     1406.054   -19996.833    -465.2793    335.62416    78.771785    22.554998    25.314914 
   48600    233.64653   -472.20312    216009.12   -18639.215    1358.7855   -19998.001   -1425.1433    338.81827    78.771084    22.552974    25.306181 
   48800    242.60572   -165.82446    216009.12   -18593.155    1410.8882   -20004.043   -127.75648    339.55986    78.772742    22.552844    25.286052 
   49000    234.23825   -331.28165    216009.12   -18551.389    1362.2267   -19913.615   -824.83167    342.01413    78.772646    22.554065    25.289934 
   49200    241.79994   -293.87085    216009.12   -18509.782    1406.2021   -19915.984   -663.96018    345.91249    78.773251    22.553671    25.300763 
   49400    241.97978   -322.69046    216009.12   -18565.816     1407.248   -19973.064   -762.72817    347.60859    78.774937    22.553176    25.333344 
   49600    234.47538   -409.72209    216009.12   -18593.982    1363.6058   -19957.587   -1152.1081     346.8091    78.775744     22.55128     25.33692 
   49800    244.41372   -222.27011    216009.12   -18598.087    1421.4027    -20019.49   -374.38898    346.29997     78.77364    22.552406     25.35194 
   50000    236.93562   -355.34452    216009.12   -18591.277    1377.9134   -19969.191   -933.68218    346.72091    78.773911    22.555515    25.365818 
   50200    240.92313    -157.5471    216009.12   -18541.297     1401.103     -19942.4   -51.823953    347.07468    78.773913    22.555582    25.383557 
   50400    237.31622   -223.39957    216009.12   -18539.401    1380.1268   -19919.528   -360.85371    348.44999    78.774519      22.5564    25.384398 
   50600     245.7646   -333.05501    216009.12   -18453.309    1429.2589   -19882.568   -839.49468    350.74946    78.775678    22.557032    25.402442 
   50800    239.58486   -431.17882    216009.12    -18628.72    1393.3202   -20022.041   -1271.8506    351.58927    78.776447    22.557249    25.427879 
   51000    243.78236   -303.85503    216009.12   -18574.669     1417.731     -19992.4   -755.65952    352.22155    78.778755    22.553887    25.437728 
   51200    235.23579   -250.27754    216009.12   -18601.237     1368.028   -19969.265   -493.47644    352.87622    78.780785    22.553533    25.426738 
   51400    238.19239   -214.75747    216009.12   -18573.242    1385.2222   -19958.465   -345.33673    354.23086    78.782149     22.55376    25.437063 
   51600    239.15644   -174.00542    216009.12    -18602.26    1390.8287   -19993.089   -146.75005    355.97841    78.783027     22.55516    25.437823 
   51800    242.37505   -340.32439    216009.12   -18543.588    1409.5467   -19953.135    -896.7483    355.92655    78.784075    22.552851    25.443262 
   52000    237.42247   -290.37517    216009.12   -18601.866    1380.7447   -19982.611   -630.39776    356.93479    78.784846    22.552079    25.461137 
   52200    235.24919   -259.81734    216009.12   -18632.545    1368.1059   -20000.651   -533.73581    357.48611     78.78474     22.55123    25.451853 
   52400    237.96467   -390.87667    216009.12   -18681.104    1383.8979   -20065.002   -1067.4752    358.67093    78.786094    22.551611    25.469046 
   52600     237.7739    -149.7812    216009.12   -18625.378    1382.7885   -20008.166   -78.236041    359.28341    78.787082    22.553111    25.467638 
   52800    248.49934     -522.503    216009.12   -18563.072    1445.1629   -20008.235   -1631.5753    361.27465    78.787163    22.551911    25.474601 
   53000    242.66965   -264.62855    216009.12   -18546.247      1411.26   -19957.507    -541.4736    363.88068    78.784747    22.553538     25.47893 
   53200    232.86618   -402.69658    216009.12   -18646.678    1354.2473   -20000.926   -1137.3976    366.34005    78.783677    22.551927     25.47311 
   53400    240.82905   -130.23894    216009.12   -18601.406    1400.5559   -20001.962     28.23763    368.09425    78.784441    22.549136    25.455482 
   53600    232.26333   -387.55286    216009.12   -18664.475    1350.7415   -20015.217    -1052.745    370.34482    78.783461     22.54928    25.444106 
   53800    239.38789   -294.65661    216009.12   -18621.982    1392.1747   -20014.157   -637.16968    371.31599    78.783749    22.549469    25.458777 
   54000    241.35138   -340.39625    216009.12   -18594.573    1403.5935   -19998.167   -879.47677    373.55785    78.785373    22.547664    25.494481 
   54200    239.25777   -368.36036    216009.12    -18567.17     1391.418   -19958.588   -978.08569    374.56474    78.786895    22.545391    25.485433 
   54400    244.78442   -168.87133    216009.12   -18496.427    1423.5586   -19919.986   -159.66088     376.0584    78.786689    22.544563    25.487385 
   54600     244.7031   -283.06476    216009.12   -18536.488    1423.0857   -19959.574   -626.52244    378.45478    78.785869     22.54302     25.49498 
   54800    243.96637   -463.08449    216009.12   -18550.674    1418.8012   -19969.475   -1437.9078    379.22356    78.786495     22.54333    25.518242 
   55000    236.23017   -288.43942    216009.12   -18489.569    1373.8108    -19863.38   -626.28846    379.26993    78.785241    22.543706    25.537835 
   55200    233.84545   -307.46614    216009.12   -18638.055    1359.9423   -19997.997    -788.7788    377.67439    78.783767    22.545137    25.548833 
   55400     244.3908   -229.51018    216009.12    -18580.62    1421.2695   -20001.889   -388.94955    380.63114    78.784787    22.547252    25.537735 
   55600    240.78055   -390.78254    216009.12   -18574.345    1400.2739   -19974.619   -1069.3152    383.08574    78.785921    22.550396    25.519084 
   55800    244.88138   -239.72945    216009.12   -18471.756    1424.1224   -19895.879   -443.44852    384.08241    78.784184    22.550512    25.527936 
   56000    246.62227   -310.62273    216009.12   -18550.072    1434.2467   -19984.318   -711.35243    386.53565    78.780496    22.550281    25.560667 
   56200    249.11627   -362.44281    216009.12   -18554.835    1448.7507   -20003.586   -932.40638    387.33465    78.780995     22.55157    25.559791 
   56400    237.76025   -451.20914    216009.12     -18659.8    1382.7091   -20042.509   -1316.6621    387.56948    78.781169    22.552578    25.533029 
   56600    228.16119     -323.132    216009.12   -18711.241    1326.8852   -20038.126   -758.36094    388.91963    78.784639    22.552589    25.535748 
   56800    241.23448   -289.27425    216009.12   -18618.684    1402.9137   -20021.598   -671.92716    391.30572    78.783681     22.55293    25.546526 
   57000    236.48902   -252.52022    216009.12   -18667.685    1375.3162   -20043.001   -478.69954    392.24925    78.785003    22.554079    25.542845 
   57200     240.4135   -322.60251    216009.12   -18575.605    1398.1393   -19973.744   -770.52689     395.2987    78.785717    22.554278    25.541862 
   57400    240.16168   -190.72374    216009.12   -18621.116    1396.6748    -20017.79   -189.31853    396.92484     78.78469    22.555653    25.533369 
   57600    240.31791   -333.01251    216009.12   -18655.241    1397.5833   -20052.824   -846.45158    399.99659    78.782692    22.553596    25.516954 
   57800    246.00924   -166.88833    216009.12   -18582.411    1430.6816   -20013.093   -106.93461    400.28481    78.782856    22.553623    25.503727 
   58000     244.0544   -284.06213    216009.12   -18589.575    1419.3131   -20008.888   -637.28612    402.45553    78.781241    22.554174    25.518851 
   58200    247.73342    -101.1356    216009.12   -18602.404    1440.7087   -20043.112    194.76464    401.36386    78.779262    22.553858    25.516273 
   58400    240.84623   -269.80304    216009.12   -18645.425    1400.6558    -20046.08   -553.86226    404.85154    78.780608    22.551784    25.502442 
   58600    240.31972   -578.77496    216009.12   -18666.024    1397.5938   -20063.618   -1882.9968    408.65687    78.781539    22.554005    25.498353 
   58800    237.25599    -136.7985    216009.12   -18616.057    1379.7765   -19995.834    19.670819    411.12875    78.781541     22.55558    25.488487 
   59000     238.7997   -432.55004    216009.12   -18565.647    1388.7541   -19954.401   -1226.4161    414.22029      78.7808    22.558098    25.470579 
   59200    241.18669   -169.12369    216009.12   -18626.083    1402.6358   -20028.719   -107.06222    415.27641    78.781673    22.559401    25.467839 
   59400     236.8506   -319.35267    216009.12   -18624.682     1377.419   -20002.101   -727.76003    418.42963    78.781166    22.559537     25.46509 
   59600    240.82589   -322.64167    216009.12   -18670.983    1400.5375   -20071.521   -818.34242    420.11811    78.781058    22.559154     25.47755 
   59800    242.09401   -215.15886    216009.12   -18623.207    1407.9124   -20031.119   -322.31585    420.67255    78.783713    22.559767    25.492302 
   60000    243.90981    -275.3036    216009.12   -18577.235    1418.4723   -19995.707   -628.38943    419.30799    78.782625    22.559407    25.490508 
   60200    238.85409    -282.1381    216009.12   -18614.177    1389.0704   -20003.247   -662.68511    419.05349    78.781869    22.559563    25.477384 
   60400    243.19254   -359.33696    216009.12   -18582.238    1414.3009   -19996.539   -932.59022    421.19776    78.782753    22.558991     25.48133 
   60600    246.89953   -229.32295    216009.12   -18523.906    1435.8591   -19959.765   -399.90796    422.00801    78.783957    22.557297    25.477059 
   60800    249.28812   -229.47265    216009.12   -18544.304    1449.7501   -19994.054   -403.93482    423.66263    78.787665    22.556432    25.490518 
   61000    238.93814   -265.04325    216009.12   -18636.497    1389.5592   -20026.056   -564.58036    421.85869    78.789465    22.561626    25.498707 
   61200    245.99096   -307.62394    216009.12   -18544.504    1430.5753   -19975.079   -733.16263    423.32938    78.789891    22.561774    25.497258 
   61400    243.65852   -327.77915    216009.12   -18564.755    1417.0108   -19981.766   -822.34524    424.88109    78.791383    22.560479    25.481321 
   61600    244.32506   -211.58955    216009.12   -18624.273    1420.8872    -20045.16   -349.64388    423.27282    78.792454    22.561094    25.494187 
   61800      233.965    -195.5432    216009.12   -18681.287    1360.6376   -20041.924   -227.24377    422.49416    78.791686    22.558234    25.468048 
   62000    241.90543   -326.80656    216009.12    -18631.41    1406.8156   -20038.226   -798.81152    423.37976     78.79133    22.554537    25.463845 
   62200    243.97683   -255.63312    216009.12   -18596.728     1418.862    -20015.59   -519.84418    424.11372    78.793626     22.55307    25.474971 
   62400    238.26476   -318.62258    216009.12    -18550.72    1385.6431   -19936.363   -762.25147    423.56849    78.793252    22.553209    25.504909 
   62600    238.47644   -143.83829    216009.12   -18565.673    1386.8742   -19952.547   -33.573589    424.43141    78.793985    22.556426    25.503629 
   62800    236.85082   -259.92897    216009.12   -18633.831    1377.4203   -20011.252   -542.10747     426.2009    78.794881    22.554631    25.512267 
   63000    238.86867   -307.77809    216009.12   -18564.152    1389.1552   -19953.307   -764.94688    425.88616    78.796625    22.552415    25.531441 
   63200    246.83061   -285.34862    216009.12   -18583.321    1435.4583    -20018.78   -653.18677    427.35076    78.800018    22.551872    25.553638 
   63400    231.07612   -255.67989    216009.12   -18634.068    1343.8372   -19977.905   -542.58276    430.14617     78.79855    22.552055    25.561277 
   63600    230.67744   -420.01652    216009.12   -18623.081    1341.5186     -19964.6   -1172.9721    433.90584    78.795715    22.553636    25.595588 
   63800    233.33435   -403.97805    216009.12   -18629.649      1356.97   -19986.619   -1210.8258    433.69514     78.79787    22.553314    25.598402 
   64000     236.0602   -454.76736    216009.12   -18533.576    1372.8223   -19906.398   -1380.6192    433.60895    78.799521    22.553785    25.604903 
   64200    241.85994   -391.37617    216009.12   -18568.095    1406.5511   -19974.647   -1123.8301    434.87885    78.799985     22.55207    25.612816 
   64400    234.62769   -351.22395    216009.12   -18580.226    1364.4915   -19944.718   -912.62433    437.08202    78.800019    22.551241     25.60001 
   64600    234.91867    -325.4563    216009.12   -18630.953    1366.1837   -19997.137   -824.01947    439.52959    78.800352    22.552945     25.59497 
   64800    236.85622   -297.29543    216009.12   -18613.958    1377.4517   -19991.409   -703.05095    444.42044    78.798631    22.554306    25.579759 
   65000    242.57914   -270.91978    216009.12   -18539.998    1410.7337   -19950.732   -569.62056    445.86832    78.796053    22.554396    25.590216 
   65200    240.57554   -225.79075    216009.12   -18595.143    1399.0816   -19994.224   -389.71213    448.36751    78.796067    22.551989     25.58844 
   65400    241.14474   -255.89645    216009.12   -18612.513    1402.3918   -20014.904   -509.58425     450.2307     78.79497    22.552674    25.591814 
   65600    239.78144   -400.74962    216009.12   -18576.676    1394.4634   -19971.139    -1077.134    452.88165    78.794918    22.552276    25.591728 
   65800     235.4615   -225.08592    216009.12   -18593.508    1369.3406   -19962.849   -358.35384    452.94673    78.793033    22.553666    25.593444 
   66000    238.16257   -342.28152    216009.12   -18601.113    1385.0488   -19986.162   -875.80017    453.66132    78.793761    22.551537    25.588255 
   66200    231.89475   -497.82445    216009.12   -18640.002    1348.5979     -19988.6   -1532.7667    458.88841    78.796737    22.548368    25.589312 
   66400    246.53299   -324.22892    216009.12   -18608.288    1433.7275   -20042.015   -834.35789    460.17465    78.795282    22.546612    25.569228 
   66600    236.49356   -249.95943    216009.12   -18638.868    1375.3426   -20014.211   -487.41206    463.24734    78.798054    22.543391    25.567689 
   66800    234.47041   -295.32785    216009.12   -18670.982    1363.5768   -20034.558   -726.69628    464.35441    78.797521    22.543716    25.582319 
   67000    229.66194   -295.88223    216009.12    -18726.81    1335.6129   -20062.423   -710.01001    467.36924    78.795578    22.542356    25.589633 
   67200    240.14534   -483.98039    216009.12   -18667.403    1396.5797   -20063.983    -1484.138    469.51538    78.793314    22.539945    25.593916 
   67400    235.10442   -366.88455    216009.12   -18621.568     1367.264   -19988.832   -991.40689    469.69208    78.792663    22.537891    25.620593 
   67600    241.51343    -345.8497    216009.12   -18556.411    1404.5359   -19960.947   -902.49465    473.25507    78.791465    22.536018     25.62336 
   67800    241.36894   -356.41075    216009.12   -18610.638    1403.6957   -20014.334   -993.76566    474.32397    78.793023    22.534043    25.602223 
   68000    237.62011    -545.9724    216009.12   -18636.986    1381.8941   -20018.881   -1750.4012    475.07182     78.79428    22.533163    25.604455 
   68200    236.33935    -459.5196    216009.12   -18649.339    1374.4458   -20023.785   -1379.4222    477.93635    78.793721    22.532027    25.586796 
   68400     239.8425   -373.56266    216009.12   -18585.217    1394.8186   -19980.035   -1045.1018    479.92164    78.793336    22.534629    25.579103 
   68600    236.24896   -492.33201    216009.12    -18649.88    1373.9201     -20023.8   -1492.5305    481.95377    78.791911    22.532384    25.573874 
   68800    240.41041   -246.49871    216009.12   -18607.613    1398.1213   -20005.734   -419.24918    479.50079    78.790927    22.527923    25.546057 
   69000    239.41518   -231.58593    216009.12   -18618.208    1392.3334   -20010.541   -450.40053    480.34559    78.791128    22.528144    25.526196 
   69200    238.22219   -134.75486    216009.12   -18682.117    1385.3955   -20067.512   -15.631371    480.94806    78.791431    22.527319     25.52567 
   69400    230.59214   -369.52781    216009.12   -18703.409    1341.0225   -20044.431   -978.78874    485.55109    78.793028    22.528187    25.509933 
   69600    249.72478   -427.97132    216009.12   -18523.725    1452.2895   -19976.014   -1215.5919     489.6586    78.792054    22.527159    25.512246 
   69800    240.85692   -419.21736    216009.12   -18691.369     1400.718   -20092.087   -1193.1479     489.3745     78.79198    22.526146    25.510722 
   70000    238.63882   -420.59985    216009.12    -18653.28    1387.8185   -20041.098   -1229.7863    491.27956     78.79531    22.526793    25.512023 
   70200    241.04332   -243.58476    216009.12   -18631.128     1401.802    -20032.93   -517.55393    494.59174    78.794922    22.525629    25.495968 
   70400     241.2971   -332.46548    216009.12   -18584.419    1403.2779   -19987.697   -824.59024    493.10905    78.794614    22.524441    25.508618 
   70600    238.37884   -299.60682    216009.12   -18647.833    1386.3066   -20034.139    -677.7889    491.70903    78.792967    22.524418    25.506022 
   70800    234.45043   -272.03897    216009.12   -18651.907    1363.4606   -20015.368   -634.94555    492.06152    78.793295    22.524373    25.506285 
   71000    235.33363   -387.01321    216009.12   -18641.116    1368.5969   -20009.713   -1070.2329    493.50882    78.791383    22.524207    25.503423 
   71200    243.00863   -208.73721    216009.12   -18601.503    1413.2313   -20014.734   -341.42377    491.88644    78.792321    22.523847    25.503106 
   71400    239.59765    -353.8932    216009.12   -18605.133    1393.3946   -19998.528   -961.55451    493.06866    78.792019    22.523507    25.519994 
   71600     241.3301   -228.87674    216009.12   -18534.368    1403.4698   -19937.838   -419.30612    493.37888      78.7914    22.521496    25.507966 
   71800    235.66927   -256.04573    216009.12   -18631.989    1370.5489   -20002.538   -561.28487    496.57954    78.791034    22.521896    25.492149 
   72000    236.70578   -335.38809    216009.12   -18607.221    1376.5768   -19983.798   -874.93976     500.4116    78.790752    22.523814     25.49707 
   72200    250.85907   -301.54824    216009.12   -18510.768    1458.8861   -19969.654   -705.19719    504.99528    78.789897    22.523444    25.491308 
   72400    236.22217   -321.34641    216009.12   -18579.799    1373.7643   -19953.563   -816.43651    509.34091    78.788719    22.522909    25.483756 
   72600    240.15635   -199.42086    216009.12   -18574.574    1396.6438   -19971.218   -319.25141    514.15067    78.789925    22.524333     25.48757 
   72800    241.17857   -470.07614    216009.12   -18601.417    1402.5885   -20004.005    -1452.479    516.83045    78.790287    22.524759     25.47339 
   73000    237.98736   -493.10584    216009.12   -18617.695    1384.0299   -20001.725   -1538.9908    516.33992    78.790609    22.525744    25.474557 
   73200    243.35244   -167.54195    216009.12   -18525.791    1415.2308   -19941.021   -86.411262    516.59918    78.789681    22.527931    25.459604 
   73400    247.04624   -424.43828    216009.12   -18565.627    1436.7123   -20002.339   -1265.3129    516.18367    78.787114     22.52988    25.439637 
   73600    244.09552   -260.03422    216009.12   -18552.932    1419.5522   -19972.484   -541.86259    516.35796     78.78336    22.530715    25.466261 
   73800    234.96725   -457.34993    216009.12   -18666.852    1366.4662   -20033.318   -1393.9364    516.04387    78.781072    22.530842    25.485019 
   74000    227.71496   -260.58373    216009.12   -18640.426    1324.2901   -19964.716   -566.83503    517.24076    78.781515    22.529916    25.472756 
   74200    234.66675   -296.78613    216009.12   -18580.725    1364.7187   -19945.444    -702.2182     515.6488    78.782687    22.528741    25.480219 
   74400    238.33453   -257.95521    216009.12   -18580.389    1386.0488   -19966.438   -552.41878    515.41551    78.780683    22.529798     25.48792 
   74600    235.63001   -347.53848    216009.12    -18620.53    1370.3206   -19990.851   -936.69461    516.18795    78.781565    22.531175    25.515634 
   74800    240.47802   -513.93162    216009.12   -18622.749    1398.5145   -20021.263   -1592.2198    517.76142    78.781315    22.532155    25.520269 
   75000    239.30927   -199.50324    216009.12   -18620.956    1391.7175   -20012.673   -262.55136    518.33789    78.779269    22.531961    25.529148 
   75200    241.05245    -336.7407    216009.12   -18531.803    1401.8551   -19933.659   -850.33464    518.14825    78.778135    22.532756    25.541214 
   75400    243.26038   -322.85341    216009.12   -18576.479    1414.6954   -19991.174   -771.87133    518.38777    78.778588    22.532538    25.527386 
   75600    242.70345   -385.79189    216009.12   -18575.519    1411.4566   -19986.976   -1041.3258    518.22086    78.779042    22.531422    25.511513 
   75800     239.8868   -384.12227    216009.12   -18522.903    1395.0762   -19917.979   -1038.6612     519.4342    78.776689    22.530582    25.510326 
   76000    243.72273   -327.02447    216009.12   -18536.777    1417.3843   -19954.161   -752.54824    520.70709    78.775267    22.528811    25.512584 
   76200    240.35047   -222.68646    216009.12   -18674.866    1397.7727   -20072.639   -368.48468    521.93577    78.775139     22.52524    25.506079 
   76400    247.23787   -365.89135    216009.12   -18645.984    1437.8268    -20083.81   -901.15279    523.72646    78.778056    22.522991    25.501392 
   76600    239.23886   -288.67988    216009.12   -18640.871     1391.308   -20032.179   -590.53465    523.34599    78.779711    22.524856     25.52655 
   76800    233.69226   -350.57351    216009.12   -18678.291    1359.0515   -20037.342   -888.32626    527.47926     78.78139    22.521672    25.548939 
   77000    233.68857   -264.22867    216009.12   -18633.445      1359.03   -19992.475   -502.52903    531.60078    78.779799    22.525606    25.552394 
   77200    238.75485   -436.84349    216009.12   -18591.214    1388.4933   -19979.707   -1230.4873    532.96717    78.781405    22.526402    25.575875 
   77400    236.40594   -452.18073    216009.12     -18578.2     1374.833   -19953.033   -1367.0604    533.55061     78.77944    22.528076    25.605053 
   77600    238.75243   -170.38844    216009.12   -18624.257    1388.4792   -20012.736   -127.96622    533.78418    78.779767    22.527734    25.594503 
   77800    235.50879   -126.23549    216009.12   -18563.783    1369.6156   -19933.399    13.074822    535.04054    78.778168     22.52495    25.593966 
   78000    235.51389   -214.80712    216009.12   -18586.226    1369.6452   -19955.872   -359.54464    535.39283      78.7778    22.523391    25.574018 
   78200    243.04435   -460.64274    216009.12   -18544.803    1413.4391   -19958.242   -1361.7215      536.157    78.780152    22.523772    25.557027 
   78400    235.03021   -53.565352    216009.12   -18604.888    1366.8324    -19971.72    346.64432    534.01454    78.780942    22.524459    25.530956 
   78600      240.909   -351.38823    216009.12   -18588.867    1401.0208   -19989.888   -909.61485    537.35941    78.778759    22.524744    25.503169 
   78800    240.25482   -401.40886    216009.12   -18577.404    1397.2164    -19974.62   -1121.9738    541.45089    78.778565    22.527178    25.488318 
   79000    240.65489   -316.25232    216009.12   -18544.311    1399.5431   -19943.854   -724.91044      543.999    78.777382    22.527614    25.479527 
   79200      245.348    -175.6766    216009.12   -18545.964    1426.8361     -19972.8   -200.63924    543.05656    78.775757    22.526899    25.493619 
   79400    242.55083   -353.04694    216009.12   -18513.814     1410.569   -19924.383   -892.00448    542.75383    78.776383    22.525092    25.514486 
   79600    233.14218     -201.938    216009.12   -18608.215    1355.8524   -19964.068   -319.28286    540.70934    78.776248    22.524854    25.496999 
   79800    235.45417   -406.51609    216009.12   -18601.861     1369.298   -19971.159   -1131.7411     540.8504    78.776018    22.523716    25.477114 
   80000    241.33814   -331.57176    216009.12   -18604.582    1403.5165   -20008.098   -832.15174    539.09568    78.776257     22.52208    25.480094 
   80200    241.45317   -246.45626    216009.12   -18610.306    1404.1855   -20014.491   -455.34299    538.52238    78.777934    22.522016    25.469863 
   80400    235.47086   -169.43694    216009.12   -18611.722     1369.395   -19981.117   -117.25846    536.76106    78.777112    22.521615    25.472674 
   80600    241.22109   -292.69726    216009.12   -18567.453    1402.8358   -19970.289   -662.48626    536.70468    78.778317    22.523944     25.49432 
   80800    240.76905   -295.35657    216009.12    -18556.11     1400.207   -19956.317   -636.89373    538.38636    78.778403    22.524341    25.477778 
   81000    238.88483   -324.96273    216009.12   -18543.153    1389.2491   -19932.402   -829.66078    540.24663    78.778873    22.521988    25.476395 
   81200    238.06719    -288.6093    216009.12   -18583.482    1384.4942   -19967.976   -650.32158    542.05429     78.77967    22.521748     25.50051 
   81400    239.05987   -362.16913    216009.12   -18591.461    1390.2671   -19981.728    -973.1672    542.68723    78.780019    22.520695    25.522768 
   81600    235.19977   -380.41019    216009.12   -18647.607    1367.8185   -20015.426   -1073.4819     542.4085    78.781175    22.518845    25.535864 
   81800    227.90849    -381.8432    216009.12   -18744.801    1325.4156   -20070.216   -1068.7271    542.03385    78.781518    22.517846    25.532695 
   82000    242.58524   -196.05539    216009.12   -18644.184    1410.7691   -20054.953   -249.57796    542.78571     78.78147    22.516168    25.548839 
   82200    239.42439   -383.31371    216009.12   -18594.239     1392.387   -19986.626   -1044.1969    543.04171    78.782941    22.515537     25.51887 
   82400    242.27611   -430.35038    216009.12   -18609.964    1408.9713   -20018.935   -1236.7368    548.16232    78.783229    22.512746    25.495717 
   82600    245.40181   -227.91374    216009.12   -18533.732     1427.149   -19960.881   -359.72623     549.6891    78.783344    22.512497    25.522106 
   82800      243.118   -454.92868    216009.12    -18657.65    1413.8674   -20071.518   -1318.5665    553.81516    78.781374    22.510713    25.556083 
   83000    246.06486   -125.16581    216009.12   -18604.425    1431.0051    -20035.43    51.404408    553.64651    78.781903    22.513019    25.550163 
   83200    243.44055   -346.25595    216009.12   -18592.821    1415.7432   -20008.564   -876.97337    553.38223    78.783566    22.516865    25.555747 
   83400    243.41396   -175.93746    216009.12   -18622.714    1415.5886   -20038.303   -157.06643    556.23404    78.784255    22.518363    25.545318 
   83600    231.87478   -229.90777    216009.12   -18652.743    1348.4818   -20001.224   -398.66075    555.81777    78.784185     22.52086    25.533516 
   83800    239.35802   -409.41128    216009.12   -18632.591     1392.001   -20024.592   -1151.6375    557.28603    78.783846    22.521126    25.528945 
   84000    239.94394   -182.38483    216009.12    -18609.37    1395.4085   -20004.779   -206.33165      557.452    78.783771    22.519767    25.520819 
   84200    245.41878   -464.80804    216009.12   -18601.317    1427.2477   -20028.564   -1398.4976    558.77211     78.78485    22.520087    25.535065 
   84400    242.16281   -345.75802    216009.12   -18645.401    1408.3125   -20053.713   -881.86557     560.5909    78.785873    22.522033    25.517147 
   84600    240.22461   -250.84758    216009.12   -18565.421    1397.0407   -19962.462   -514.92035    564.73754    78.784892    22.524391    25.516898 
   84800    238.51288   -187.90775    216009.12    -18604.59     1387.086   -19991.676    -257.4382    560.86212    78.783798    22.523702    25.534032 
   85000    240.77689   -406.43578    216009.12   -18590.131    1400.2525   -19990.383   -1163.0761    561.62199    78.784015     22.52407    25.526685 
   85200    240.44648    -466.6781    216009.12   -18626.974     1398.331   -20025.305   -1381.5404    566.06104    78.784194    22.523047    25.528952 
   85400    236.22069   -284.84994    216009.12    -18681.28    1373.7557   -20055.036   -627.82101    565.46665    78.783763    22.520299    25.535021 
   85600    238.51863   -301.71234    216009.12   -18657.752    1387.1195   -20044.871   -719.99136    566.30696    78.783543    22.521601    25.516539 
   85800    240.91483   -367.79533    216009.12   -18564.349    1401.0548   -19965.404   -981.60165    567.19076    78.783723    22.522461    25.523801 
   86000    236.86853   -198.25899    216009.12   -18607.894    1377.5232   -19985.417   -293.00168    569.62895    78.779768     22.52308    25.537578 
   86200    242.19443   -208.22518    216009.12    -18595.22    1408.4963   -20003.716   -306.55804    567.61568    78.780211    22.520385    25.516622 
   86400    239.23257    -428.6803    216009.12   -18655.209    1391.2715   -20046.481   -1295.6713     565.4858    78.781433    22.522982    25.540024 
   86600    241.68019   -498.90977    216009.12     -18569.5    1405.5058   -19975.006   -1544.1541    565.43334    78.779213    22.525789     25.52976 
   86800    234.67664   -248.31289    216009.12   -18627.352    1364.7762   -19992.128   -452.18729    567.33829    78.779615    22.527655    25.505069 
   87000    239.89166   -319.16991    216009.12   -18631.658    1395.1044   -20026.763   -816.87526    570.83281    78.780575    22.525765    25.487319 
   87200    239.38708    -230.7843    216009.12   -18622.427      1392.17   -20014.597   -419.73052    573.17948     78.77775    22.528799    25.468486 
   87400    236.33998   -404.27255    216009.12   -18614.876    1374.4494   -19989.325   -1164.1531    575.35516    78.778667     22.52847    25.472009 
   87600    239.90222   -208.29578    216009.12   -18626.975    1395.1659   -20022.141   -299.08973    575.03003     78.77945    22.528173    25.488359 
   87800    233.00416   -219.89094    216009.12   -18628.183    1355.0498   -19983.232   -389.13825    574.10455    78.778219    22.526293    25.475535 
   88000    242.88517   -377.01715    216009.12   -18568.878    1412.5134   -19981.391   -1044.1523    572.16981    78.777865     22.52481      25.4835 
   88200    238.14578   -385.85522    216009.12   -18646.019    1384.9512    -20030.97   -1112.1827    574.33202    78.778064    22.521714    25.507431 
   88400    239.26138   -383.30384    216009.12   -18590.346     1391.439   -19981.785   -1075.2056    574.50044    78.776843    22.518086    25.534749 
   88600    237.52207   -226.28666    216009.12   -18596.701     1381.324   -19978.025   -397.68688    573.94114    78.777251    22.520714    25.510545 
   88800     233.9184   -258.58723    216009.12   -18672.462    1360.3666   -20032.829   -486.46654    573.26174    78.778208    22.524141    25.533463 
   89000    241.21176   -313.25734    216009.12    -18581.08    1402.7816   -19983.861   -753.25821    580.06297     78.77718    22.525469     25.51927 
   89200    241.48694   -387.01755    216009.12   -18575.503    1404.3819   -19979.885   -1057.7231     580.5663    78.774501    22.525482     25.52298 
   89400    238.45519   -320.52931    216009.12   -18579.456    1386.7505   -19966.207   -767.89625    582.80791    78.775993    22.524379    25.548295 
   89600    237.27276   -239.28158    216009.12   -18690.502     1379.874   -20070.376   -460.18819    584.46733    78.774847    22.525518    25.561284 
   89800    240.60829   -303.33401    216009.12   -18566.897     1399.272   -19966.169   -719.36965    583.48939    78.772659    22.525646    25.568349 
   90000    234.99588   -310.90399    216009.12   -18541.931    1366.6327   -19908.564   -716.55848    581.56601    78.770271    22.525134    25.585642 
   90200    240.47972   -360.54537    216009.12   -18544.658    1398.5244   -19943.182   -932.43798    581.07209    78.770259    22.523819     25.62197 
   90400    246.29817   -163.31329    216009.12   -18519.117    1432.3619   -19951.479   -150.14193    580.10522    78.771935     22.52447    25.637606 
   90600    240.88901   -262.51807    216009.12   -18540.499    1400.9046   -19941.404   -532.19983    579.10499    78.773344     22.52417    25.643538 
   90800    240.61535   -189.11492    216009.12   -18568.851    1399.3131   -19968.165   -190.02263    578.04777    78.775772      22.5242      25.6229 
   91000    228.08863   -335.97097    216009.12    -18595.86    1326.4632   -19922.323   -851.68941    580.12402     78.77503      22.5239    25.630289 
   91200    238.94213    -247.1066    216009.12   -18665.973    1389.5824   -20055.555   -458.73796    579.50754    78.775191    22.523984    25.611746 
   91400    242.38906   -417.16408    216009.12   -18607.018    1409.6282   -20016.647    -1185.848    582.26376     78.77533    22.524012    25.615897 
   91600    243.23699   -401.01063    216009.12   -18512.794    1414.5594   -19927.353   -1116.5977    582.82587    78.774385    22.523983    25.642092 
   91800    247.35947   -209.01523    216009.12   -18514.969    1438.5339   -19953.503   -327.79598    585.34185    78.776289    22.523587    25.631599 
   92000    235.83396   -255.10302    216009.12   -18563.049    1371.5067   -19934.555   -462.29383    585.16007    78.776139    22.523738    25.630262 
   92200    240.12072   -381.26133    216009.12   -18593.032    1396.4366   -19989.469   -1048.1043    587.53871    78.775087    22.523821    25.615993 
   92400    248.08261    -238.2191    216009.12   -18567.284    1442.7394   -20010.023   -438.35859    591.68239    78.773735     22.52607    25.627944 
   92600    242.02469   -322.23751    216009.12   -18534.367    1407.5092   -19941.876   -768.98347    595.41904     78.77356    22.525406    25.638916 
   92800    239.62394   -141.12425    216009.12   -18624.321    1393.5475   -20017.869      17.9138    595.14686    78.771817    22.525899    25.668582 
   93000    240.67656    -258.0235    216009.12   -18632.989     1399.669   -20032.658   -494.17239    595.53592     78.77401    22.526291      25.6641 
   93200    234.19114   -358.78291    216009.12   -18597.754    1361.9527   -19959.706   -941.66918    596.32361    78.773838    22.528045    25.656565 
   93400    241.12317   -294.52367    216009.12   -18657.974    1402.2664   -20060.241   -657.20415     595.5529    78.772041    22.526535    25.659683 
   93600    238.67079   -433.89724    216009.12   -18600.914    1388.0044   -19988.919   -1324.5142    597.57988    78.772916    22.527246    25.645068 
   93800    239.49937    -334.0788    216009.12   -18625.552     1392.823   -20018.375   -845.27718    598.29962    78.772955    22.526078    25.644163 
   94000    232.86249   -204.11842    216009.12   -18613.774    1354.2259       -19968   -285.64779    598.63588    78.772205    22.525439    25.640859 
   94200    253.37133   -280.98365    216009.12   -18539.171    1473.4963   -20012.667   -608.76013    598.02052    78.773054    22.526123     25.63135 
   94400    240.24752   -359.94028    216009.12   -18589.263    1397.1739   -19986.437   -979.81558    598.81178     78.77225    22.528358    25.595419 
   94600    232.66697   -369.15419    216009.12   -18642.894    1353.0888   -19995.982   -990.82442     602.2977    78.771051    22.529974    25.595087 
   94800    236.39137   -505.88973    216009.12   -18645.933    1374.7483   -20020.681   -1590.9604    603.94035    78.769773    22.531573    25.601784 
   95000    239.45582   -317.19118    216009.12    -18625.86    1392.5698    -20018.43   -759.28066    602.78248     78.77089    22.532498    25.597912 
   95200    238.29901   -311.81853    216009.12   -18627.583    1385.8423   -20013.425   -735.58711    604.94858    78.772221    22.533443    25.605119 
   95400    245.91437   -302.03378    216009.12   -18628.292    1430.1299   -20058.422   -694.72478    606.11764    78.773133     22.53269     25.62789 
   95600    241.63815   -401.03887    216009.12   -18592.331    1405.2612   -19997.592   -1131.1721     608.2281    78.772669    22.531713    25.647319 
   95800     239.1371     -201.491    216009.12   -18566.812    1390.7162   -19957.528   -250.50061    609.47569    78.773092    22.533245    25.662749 
   96000    237.11176    -399.9271    216009.12   -18545.951    1378.9378   -19924.889   -1104.8982    611.39105    78.769056    22.536095    25.683653 
   96200    246.26915   -355.93774    216009.12   -18511.408    1432.1931   -19943.601   -932.11551    611.82966     78.76943    22.539127    25.691125 
   96400    246.22848   -245.07042    216009.12   -18559.605    1431.9566   -19991.561   -485.68354    613.43076      78.7709    22.539503     25.68269 
   96600     239.3463   -278.57384    216009.12   -18605.654    1391.9328   -19997.587   -619.39827    615.43495    78.772542    22.540061    25.659611 
   96800    237.70495   -368.62008    216009.12   -18601.994    1382.3875   -19984.382   -947.49755    615.06557    78.772022    22.538378    25.668285 
   97000    233.62989   -379.51768    216009.12    -18664.02    1358.6887   -20022.709   -1024.2924    614.55338    78.772924    22.539934    25.632419 
   97200     237.2013   -335.04279    216009.12   -18621.039    1379.4585   -20000.498   -823.68814    614.42118    78.772894    22.542403    25.634691 
   97400    237.99829   -365.35597    216009.12   -18617.089    1384.0934   -20001.183   -961.64867    614.54947    78.774508    22.544058    25.615265 
   97600    244.38001   -340.29309    216009.12   -18571.823    1421.2067   -19993.029   -923.41899    615.33442     78.77327    22.541473    25.621101 
   97800    241.55857   -264.52771    216009.12   -18589.286    1404.7985   -19994.084   -499.10344    618.13382    78.772357     22.54379     25.61017 
   98000     234.0586   -327.71927    216009.12   -18615.819    1361.1819   -19977.001   -848.55876    618.28725    78.772335    22.544811    25.613847 
   98200    243.16055   -317.86826    216009.12   -18652.776    1414.1149   -20066.891   -751.18109    621.46542    78.772276    22.544883     25.60202 
   98400    241.47044   -218.25455    216009.12   -18625.764    1404.2859    -20030.05   -382.58016    621.43523    78.772929     22.54354    25.597083 
   98600    235.68855   -287.12845    216009.12   -18618.702     1370.661   -19989.363   -626.04186    624.13885    78.772385    22.542635    25.598114 
   98800    238.02587   -234.16569    216009.12   -18568.716    1384.2538    -19952.97   -398.44713    626.85954    78.774233    22.545231    25.597334 
   99000    233.37963   -186.27786    216009.12    -18632.49    1357.2333   -19989.723    -225.3613    627.07395     78.77739    22.548772    25.586125 
   99200    243.65477   -235.22338    216009.12   -18622.629     1416.989   -20039.618   -428.63058    626.94472    78.777168    22.548771    25.592803 
   99400     234.1637   -418.52765    216009.12   -18613.758    1361.7931   -19975.552   -1160.7407    628.87674     78.77797    22.547142     25.56525 
   99600    240.19471   -314.61816    216009.12   -18567.298    1396.8669   -19964.165   -758.62644    628.42891    78.778047    22.546483    25.564096 
   99800    238.22397   -410.39806    216009.12   -18616.452    1385.4059   -20001.857   -1134.7387    627.35046    78.780744    22.545334    25.563607 
  100000    241.55516    -345.3266    216009.12   -18601.428    1404.7786   -20006.207   -880.68842    625.33636     78.77928    22.544901    25.578978 
  100200    232.41349   -549.31606    216009.12   -18639.477    1351.6147   -19991.092   -1773.4634    624.23102    78.779123    22.542363    25.581459 
  100400     241.3413   -287.37991    216009.12   -18595.196    1403.5349   -19998.731   -641.66601    625.46795    78.779174      22.5416    25.579056 
  100600    236.53408   -292.90211    216009.12   -18622.039    1375.5783   -19997.617   -708.26629    625.04985    78.778862    22.540055    25.564202 
  100800     235.7404   -141.70224    216009.12    -18653.63    1370.9626   -20024.593   -27.026947    624.73319     78.77951    22.541099    25.553416 
[...]
 5175800    222.41154   -621.51544    216009.12   -20510.654    1293.4477   -21804.102   -2010.5391    9485.2003    77.345246    21.753701    25.677144 
 5176000    221.70626   -696.20957    216009.12   -20494.754    1289.3461     -21784.1   -2318.3969    9484.6561    77.345024    21.754184    25.675766 
 5176200    222.89014   -686.39142    216009.12   -20507.177    1296.2311   -21803.408   -2305.8844    9486.3242    77.345512    21.754218    25.674612 
 5176400    226.40101   -719.08186    216009.12   -20527.943    1316.6488   -21844.592   -2419.7587    9484.5064    77.346869    21.755173    25.683751 
 5176600    223.59797   -754.68467    216009.12   -20489.568    1300.3475   -21789.915   -2607.9713    9487.1465    77.347744    21.756131    25.683647 
 5176800    234.41481   -709.97155    216009.12   -20468.387    1363.2535    -21831.64   -2381.7422    9486.1126     77.34751    21.756524    25.675917 
 5177000    230.10644   -660.00803    216009.12   -20458.514    1338.1979   -21796.712   -2223.4432    9484.1006    77.347462    21.756827    25.675132 
 5177200    232.47552   -713.58939    216009.12   -20476.603    1351.9754   -21828.578    -2392.611    9486.0025    77.346651    21.757442    25.679846 
 5177400    226.51994   -705.75532    216009.12   -20501.934    1317.3404   -21819.274    -2443.714    9485.3271    77.346615    21.757891    25.680388 
 5177600    228.77292   -782.76923    216009.12   -20445.249    1330.4427   -21775.692   -2722.1402    9488.4313    77.346491    21.757799    25.676547 
 5177800    230.58563   -679.74355    216009.12   -20481.642    1340.9847   -21822.627   -2221.7471    9485.4093    77.346574    21.758321    25.682681 
 5178000    220.20357   -652.64566    216009.12    -20500.88    1280.6072   -21781.488   -2111.7793    9486.6272    77.346966    21.758376    25.684464 
 5178200    221.95525   -744.09191    216009.12   -20493.019    1290.7942   -21783.814   -2511.5634    9486.2833    77.346386    21.759029    25.695314 
 5178400    225.25917   -722.88028    216009.12   -20509.446    1310.0083   -21819.455   -2454.3388    9485.2943    77.346793    21.759467    25.686721 
 5178600    225.58615   -693.67255    216009.12   -20503.064    1311.9099   -21814.974   -2321.7877     9483.338    77.345796    21.759137    25.684572 
 5178800    229.71668   -836.58006    216009.12   -20460.096    1335.9312   -21796.027   -2968.0395    9487.2527    77.345976      21.7588    25.686697 
 5179000    228.54224   -683.39204    216009.12   -20489.243    1329.1012   -21818.344   -2268.9083    9486.5193    77.346533    21.759071    25.686071 
 5179200     231.1651   -756.42926    216009.12   -20469.228    1344.3546   -21813.582   -2596.2712    9482.7911    77.346843    21.758909    25.688821 
 5179400    231.37243   -759.41214    216009.12   -20529.782    1345.5603   -21875.343   -2573.0632    9486.8369    77.346165    21.758969    25.690599 
 5179600    231.02698   -681.22199    216009.12   -20432.342    1343.5513   -21775.894   -2290.3075    9487.8104    77.345958    21.758835    25.680779 
 5179800    228.71645   -674.00387    216009.12   -20492.958    1330.1144   -21823.073   -2240.0995    9485.8307    77.345537    21.760425    25.675722 
 5180000    223.80257   -772.01654    216009.12   -20519.582    1301.5374    -21821.12   -2610.3709    9486.0826    77.345163    21.761408    25.679861 
 5180200    219.97955   -643.16285    216009.12   -20588.032    1279.3044   -21867.336   -2096.5387    9485.2242    77.345021    21.762026     25.67892 
 5180400    222.66941   -695.76853    216009.12   -20557.954    1294.9474   -21852.901   -2361.0351     9484.903    77.345368    21.762841    25.691308 
 5180600    225.33245   -779.79554    216009.12   -20490.924    1310.4344   -21801.358   -2706.3212    9487.1095    77.345068    21.763489    25.676833 
 5180800    230.18424    -682.0424    216009.12   -20478.196    1338.6503   -21816.846   -2280.7355    9485.3686    77.345729    21.764227    25.677211 
 5181000    224.10382    -776.7697    216009.12   -20517.582    1303.2893   -21820.871   -2655.5587    9487.9864    77.344714    21.764804     25.67937 
 5181200    223.32384   -828.09869    216009.12   -20520.678    1298.7533   -21819.432   -2910.0895    9485.2132    77.344709    21.765993    25.675929 
 5181400     225.3336   -719.58309    216009.12   -20556.872    1310.4412   -21867.314   -2434.4146    9485.7183     77.34523     21.76741    25.682051 
 5181600    231.71534   -738.43182    216009.12    -20497.45    1347.5545   -21845.005   -2536.5341    9486.9288    77.344014    21.768113    25.686829 
 5181800    216.88554   -804.53737    216009.12   -20575.528     1261.311   -21836.839   -2780.3123    9484.0379    77.343329     21.76831     25.68008 
 5182000    227.48478   -667.87277    216009.12   -20483.203    1322.9515   -21806.154    -2218.883    9484.4665    77.342505    21.767533    25.691086 
 5182200    229.89149    -754.5829    216009.12   -20481.838    1336.9478   -21818.786   -2625.9708    9485.0944    77.342051    21.766702    25.684671 
 5182400    232.21861   -745.54067    216009.12   -20476.801    1350.4813   -21827.283   -2565.9187    9486.1847    77.341299     21.76748    25.685836 
 5182600    222.38477   -630.66553    216009.12   -20563.023    1293.2921   -21856.315   -2060.8937    9484.7367    77.340806     21.76827    25.685533 
 5182800    225.92171   -730.74103    216009.12   -20501.977    1313.8614   -21815.839   -2430.2652    9486.7697    77.340376    21.768634     25.68483 
 5183000     227.3867   -791.72795    216009.12   -20504.037    1322.3811   -21826.418   -2727.6382    9485.4109     77.33939    21.768976    25.684361 
 5183200    230.81273   -637.77961    216009.12   -20453.324    1342.3054   -21795.629   -2055.1827    9482.8299    77.338647    21.769212    25.685411 
 5183400    227.67213   -854.69376    216009.12   -20462.999     1324.041    -21787.04   -3010.6978    9488.3231    77.338396    21.769423    25.682316 
 5183600    225.24099   -664.74406    216009.12   -20542.273    1309.9026   -21852.176   -2206.9708    9483.0203    77.338814    21.769983    25.678548 
 5183800    224.30167   -722.32249    216009.12     -20566.1    1304.4399    -21870.54   -2452.7016    9484.1858     77.33818    21.770707    25.685542 
 5184000    219.94881   -801.97684    216009.12   -20567.946    1279.1256   -21847.071   -2747.6894     9488.735    77.337994    21.769939    25.686011 
 5184200    234.68321   -657.47325    216009.12   -20459.496    1364.8144   -21824.311   -2186.8007    9484.5565    77.337585    21.769542    25.676505 
 5184400    224.41349   -730.75723    216009.12   -20522.438    1305.0902   -21827.528   -2499.3975    9485.6352    77.337419    21.770204    25.684797 
 5184600    233.86867   -739.78125    216009.12   -20465.863    1360.0774    -21825.94   -2504.5659    9486.4691    77.337153    21.770654    25.686227 
 5184800    223.63406   -628.52599    216009.12   -20512.445    1300.5574   -21813.002   -2057.0212    9482.4683    77.335752    21.771433    25.685051 
 5185000    229.95617   -753.28946    216009.12   -20525.484     1337.324   -21862.808    -2560.904    9486.1296    77.335502    21.771884    25.690145 
 5185200    226.22118   -789.96986    216009.12   -20502.782    1315.6029   -21818.385   -2730.9597    9486.0669     77.33612    21.771745    25.682607 
 5185400    222.95084   -708.74664    216009.12    -20531.13    1296.5841   -21827.714     -2370.12    9482.4411    77.336614     21.77208    25.687603 
 5185600    229.77361   -866.28522    216009.12   -20504.786    1336.2623   -21841.048    -3020.816    9485.4833    77.336414    21.772344    25.694387 
 5185800    224.13459   -669.30169    216009.12     -20522.1    1303.4682   -21825.568   -2238.0684    9485.5285    77.335606    21.774066    25.679378 
 5186000    232.90645   -688.88351    216009.12   -20471.016    1354.4815   -21825.498   -2334.5208    9484.4738    77.336022    21.773968    25.686003 
 5186200    225.69286   -824.17308    216009.12    -20481.45    1312.5304    -21793.98   -2871.2968      9487.66    77.336319    21.775274    25.692274 
 5186400    232.28946   -545.42046    216009.12   -20482.512    1350.8934   -21833.405   -1679.0239    9483.5412    77.336512     21.77664    25.676335 
 5186600    228.69727   -656.23154    216009.12   -20474.058    1330.0028    -21804.06    -2125.441    9485.0428    77.336497    21.777529    25.675309 
 5186800     228.3621   -757.14524    216009.12   -20466.767    1328.0536    -21794.82   -2580.1218    9485.1494     77.33678    21.778261    25.679461 
 5187000     231.5667   -618.81532    216009.12   -20489.295    1346.6901   -21835.985   -2009.8643    9482.3287    77.336351     21.77908    25.680107 
 5187200    225.19243   -754.12446    216009.12   -20446.281    1309.6202   -21755.901   -2544.7357     9486.499    77.336376    21.779958    25.684723 
 5187400     223.8114     -684.704    216009.12   -20464.085    1301.5887   -21765.673   -2279.4314    9485.3101    77.336285    21.780909    25.684361 
 5187600    220.95644   -631.03755    216009.12   -20512.759    1284.9855   -21797.745   -2084.4987    9482.9265    77.336747    21.781496    25.679426 
 5187800    227.02633   -718.63683    216009.12   -20465.684    1320.2853    -21785.97   -2397.1384    9487.5619    77.337451    21.782006    25.678335 
 5188000    225.80508   -661.48588    216009.12   -20487.802    1313.1831   -21800.986   -2188.5481    9482.5173    77.338124    21.782539    25.681537 
 5188200    235.29005   -692.07475    216009.12   -20453.953    1368.3435   -21822.296   -2315.5472    9483.5584    77.337583    21.784153    25.680394 
 5188400     230.3597   -793.40688    216009.12   -20482.118    1339.6707   -21821.788   -2754.4724    9485.7798    77.337869    21.784895    25.678585 
 5188600    230.90866   -667.09784    216009.12   -20488.478    1342.8633   -21831.341   -2247.7481    9483.7072    77.339038    21.784614    25.687453 
 5188800    223.15493   -733.18498    216009.12   -20538.957     1297.771   -21836.728   -2458.5316    9485.6822    77.338537    21.784159    25.688179 
 5189000    222.81454   -700.01147    216009.12   -20528.918    1295.7914   -21824.709   -2300.3478    9486.5506    77.338579    21.784422    25.681829 
 5189200    225.69668   -685.07527    216009.12   -20518.482    1312.5527   -21831.035   -2309.8114    9484.3456    77.338037    21.784569    25.681949 
 5189400    222.29969   -704.21942    216009.12   -20579.138    1292.7973   -21871.936    -2353.028    9484.8231    77.338014    21.784725    25.682881 
 5189600    225.40025   -684.35082    216009.12   -20535.409    1310.8288   -21846.238   -2298.0248    9485.0349    77.338546    21.785809    25.687361 
 5189800    229.57861   -698.53529    216009.12   -20484.553    1335.1283   -21819.681   -2349.4971    9485.8601     77.33881    21.786015    25.686011 
 5190000    223.25921   -739.64927    216009.12   -20521.089    1298.3774   -21819.466   -2524.5708     9483.916    77.339153    21.786547    25.686397 
 5190200    224.75313   -671.78096    216009.12   -20495.715    1307.0654    -21802.78   -2218.2483    9484.3498     77.34054     21.78752    25.691585 
 5190400    220.11502   -707.05379    216009.12   -20511.169    1280.0922   -21791.261   -2369.3703    9484.4466    77.341594    21.787673    25.694291 
 5190600    232.19932   -653.03977    216009.12   -20445.286    1350.3692   -21795.655   -2153.9059    9485.5158    77.341911    21.787406    25.690742 
 5190800    222.90637   -636.29171    216009.12   -20513.038    1296.3255   -21809.363   -2092.3636    9484.0924    77.341355    21.787797    25.686517 
 5191000    229.84164   -739.68262    216009.12    -20490.07    1336.6579   -21826.728   -2515.4614     9483.524    77.341427    21.789367    25.683801 
 5191200    228.34139   -697.63081    216009.12   -20473.946    1327.9331   -21801.879   -2331.2422    9483.7837     77.34195    21.789216    25.692136 
 5191400    221.52277   -707.19236    216009.12   -20496.406    1288.2791   -21784.685   -2332.4012     9484.563    77.341799    21.789034    25.692583 
 5191600    224.52733   -739.95379    216009.12   -20520.176    1305.7523   -21825.929   -2530.1963    9485.6196    77.342339    21.788864    25.689639 
 5191800    221.08708   -601.84842    216009.12   -20514.109    1285.7453   -21799.854   -1914.6474    9484.3656    77.342467    21.789475    25.689357 
 5192000    231.96837   -684.17441    216009.12   -20466.321    1349.0261   -21815.347   -2263.5874    9485.7362    77.342766    21.789335     25.68357 
 5192200    228.26358   -714.80003    216009.12    -20438.11    1327.4806   -21765.591   -2445.6057    9484.7127    77.343087    21.790093    25.685754 
 5192400    220.72335    -637.3757    216009.12   -20505.303      1283.63   -21788.933   -2053.7252    9481.3419    77.342727    21.789315    25.691211 
 5192600     228.8725   -726.74713    216009.12     -20491.9    1331.0219   -21822.922   -2463.6093    9485.1987    77.343914    21.789477    25.690143 
 5192800    225.28031    -741.7393    216009.12   -20513.171    1310.1313   -21823.303   -2534.8367     9485.255    77.343939    21.789768    25.685819 
 5193000    234.92216   -703.68355    216009.12   -20481.346     1366.204    -21847.55   -2362.8104     9482.749    77.344533    21.789914    25.685938 
 5193200    222.25169    -726.5262    216009.12   -20546.203    1292.5181   -21838.721   -2448.0571    9484.3602    77.343949    21.789884    25.692434 
 5193400    225.53397   -684.82899    216009.12   -20472.597    1311.6064   -21784.203   -2296.7737    9484.6904    77.344712    21.789935    25.683568 
 5193600     230.3868   -652.16663    216009.12   -20503.565    1339.8284   -21843.393   -2161.4712      9485.26    77.346314    21.790433    25.680576 
 5193800    232.66049   -713.81273    216009.12   -20494.016    1353.0511   -21847.067   -2406.7269    9486.9646     77.34541    21.790947    25.690358 
 5194000    227.38988   -744.48666    216009.12   -20477.871    1322.3996    -21800.27   -2515.0505    9485.6879    77.345368    21.790708     25.69517 
 5194200    221.60673   -734.05351    216009.12   -20561.465    1288.7673   -21850.232   -2445.2082    9483.6023    77.345708    21.790282    25.690239 
 5194400    228.04983   -761.39963    216009.12     -20534.1    1326.2376   -21860.338   -2613.2668    9483.5031    77.344877    21.790743    25.687119 
 5194600    224.26239   -723.57231    216009.12   -20502.672    1304.2115   -21806.883   -2456.6413    9487.0227    77.344668     21.79191    25.686323 
 5194800    233.24059   -698.94232    216009.12   -20460.738    1356.4247   -21817.163   -2363.4942    9485.5598    77.343628    21.791169    25.682012 
 5195000    223.76636   -705.06671    216009.12   -20513.516    1301.3268   -21814.843   -2370.8053    9484.8711     77.34392    21.790865    25.680942 
 5195200    230.26402   -682.57106    216009.12   -20438.351    1339.1143   -21777.465   -2289.0337    9485.0802    77.344296     21.79094    25.686995 
 5195400    226.77113   -696.62071    216009.12   -20510.296    1318.8012   -21829.098   -2314.7554    9485.4457    77.344497    21.790713    25.694714 
 5195600    231.44363   -762.85791    216009.12   -20467.614    1345.9744   -21813.589   -2628.1573    9485.3276    77.344656    21.790329    25.693816 
 5195800    226.60916   -655.45367    216009.12   -20532.476    1317.8593   -21850.335   -2146.7472    9483.3814     77.34464    21.790309    25.692856 
 5196000    234.82071   -746.03839    216009.12   -20446.805     1365.614   -21812.419   -2549.1839      9484.74    77.345221     21.79059    25.696823 
 5196200    227.59435   -710.40396    216009.12   -20468.679    1323.5887   -21792.267   -2375.0168    9486.0208    77.345359    21.791345    25.695713 
 5196400     228.7537   -718.92613    216009.12   -20521.326     1330.331   -21851.657   -2440.0473    9483.2728    77.345173    21.790845    25.690393 
 5196600      230.614   -652.29677    216009.12   -20482.003    1341.1496   -21823.152   -2172.1034    9483.6573     77.34516    21.790942    25.693989 
 5196800    228.75055   -666.62261    216009.12   -20496.286    1330.3127   -21826.599   -2222.8283    9485.2718    77.345494    21.791854    25.691886 
 5197000    227.21737   -679.66768    216009.12   -20484.386    1321.3964   -21805.782   -2250.2988     9485.209    77.345939    21.791586    25.687314 
 5197200    229.29382   -693.98263    216009.12   -20465.629     1333.472   -21799.101   -2318.5522    9484.2994    77.345634    21.791216     25.69554 
 5197400    223.47699   -684.80812    216009.12   -20520.554    1299.6439   -21820.198   -2250.0635    9482.1666    77.345632    21.790461    25.693554 
 5197600    231.46337    -734.3631    216009.12   -20515.718    1346.0892   -21861.807    -2457.343    9482.6886    77.345728    21.790512    25.695971 
 5197800    226.56514   -732.17899    216009.12   -20531.508    1317.6032   -21849.112   -2460.0702    9486.6138    77.346313    21.790259    25.691037 
 5198000    218.17259   -669.07693    216009.12   -20572.061    1268.7959   -21840.857   -2181.0451    9482.6817     77.34604    21.789448     25.69094 
 5198200    229.53972   -733.23787    216009.12   -20474.395    1334.9021   -21809.297   -2451.3056    9484.9415    77.346054    21.789631    25.689092 
 5198400    230.89838   -781.48833    216009.12   -20470.028    1342.8035   -21812.832   -2709.7712    9484.7897     77.34651    21.788785    25.684892 
 5198600    226.55499   -684.24974    216009.12   -20484.287    1317.5443   -21801.831   -2268.8672      9485.35    77.345845    21.789012    25.686385 
 5198800    221.79097   -708.43145    216009.12   -20551.384    1289.8388   -21841.223   -2377.1118    9483.9314     77.34626    21.789051    25.685332 
 5199000    223.74998   -749.09446    216009.12   -20525.875    1301.2315   -21827.107    -2560.108    9485.8575    77.345898    21.789152    25.688133 
 5199200    230.34896   -644.41155    216009.12   -20428.683    1339.6083   -21768.292   -2134.5244    9485.1446    77.346605     21.78883    25.687291 
 5199400    225.03313   -671.84323    216009.12   -20538.258    1308.6938   -21846.952   -2247.3355    9485.0665    77.346684    21.788388    25.687572 
 5199600    226.20945   -756.85356    216009.12   -20528.079    1315.5347   -21843.614   -2572.3404    9484.0124    77.345942    21.787912    25.691566 
 5199800    226.73097   -730.45694    216009.12   -20501.226    1318.5677   -21819.794   -2508.6247    9485.3538    77.345493    21.788408    25.695583 
 5200000    223.57472   -776.83848    216009.12   -20508.368    1300.2123    -21808.58   -2667.7599     9485.629    77.345774    21.788084    25.691295 
Loop time of 11921.6 on 30 procs for 5200000 steps with 9248 atoms

Performance: 376.861 ns/day, 0.064 hours/ns, 436.182 timesteps/s
100.0% CPU use with 30 MPI tasks x no OpenMP threads

MPI task timing breakdown:
Section |  min time  |  avg time  |  max time  |%varavg| %total
---------------------------------------------------------------
Pair    | 0.53191    | 3773.6     | 9600.2     |4864.1 | 31.65
Neigh   | 7.9294     | 480.21     | 1044.4     |1701.7 |  4.03
Comm    | 209.61     | 3969.9     | 7966.1     |4210.1 | 33.30
Output  | 290.17     | 290.32     | 292.03     |   1.9 |  2.44
Modify  | 169.51     | 3337.3     | 11336      |7524.8 | 27.99
Other   |            | 70.32      |            |       |  0.59

Nlocal:    308.267 ave 581 max 0 min
Histogram: 6 3 3 1 2 0 0 1 6 8
Nghost:    1193.1 ave 1644 max 893 min
Histogram: 12 0 0 1 9 2 0 0 0 6
Neighs:    0 ave 0 max 0 min
Histogram: 30 0 0 0 0 0 0 0 0 0
FullNghs:  31243.5 ave 65164 max 0 min
Histogram: 12 3 0 0 0 0 0 1 6 8

Total # of neighbors = 937306
Ave neighs/atom = 101.352
Neighbor list builds = 551075
Dangerous builds = 0
write_data 		${DIR}/data.${NAME}_run
write_data 		run_17/data.${NAME}_run
write_data 		run_17/data.ibeam_cooling_17_run
Total wall time: 3:19:04
