LAMMPS data file via write_data, version 29 Oct 2020, timestep = 50665

4998 atoms
1 atom types

0.0 78.752 xlo xhi
0.0 80.86108639999017 ylo yhi
0.11773134337557778 23.882268656624177 zlo zhi

Masses

1 18.015

Atoms # atomic

322 1 3.6496565735010673 3.1165772418517985 1.4264601922826767 0 0 0
1243 1 6.127679155318191 5.452214737451831 1.3575931599699826 0 1 0
387 1 7.742304227674249 3.4988710519782957 23.10611690676796 0 0 -1
38 1 10.253114995475364 2.6467541622384743 22.13170194846634 0 0 -1
201 1 11.579878108640148 3.4305734482534307 2.520345346761708 0 0 0
176 1 16.345737616977143 3.6845355873762684 0.6932203061776623 0 0 1
1362 1 17.741273987518294 2.8676938345143044 2.969187266344808 0 1 1
1594 1 21.099906588686018 1.828231534021788 0.865630040033955 0 1 1
3197 1 25.334214904377482 4.66815105792696 9.474577712280121 0 1 0
1608 1 24.239877714894547 0.6102677245998543 3.8807787311396003 0 1 0
3996 1 0.7752698249272382 14.589734492007299 19.80194538315213 1 0 0
78 1 2.2281500697728727 6.823558058768239 3.6641404861322906 0 0 0
426 1 6.136838024795419 8.170084741254975 23.737609125026886 0 0 -1
313 1 6.975158035136442 6.151202091557515 4.101950111269966 0 0 0
107 1 8.773889952177731 3.9217413685620532 2.2568996897073523 0 0 0
1583 1 15.86998353908012 6.779527484382218 0.21771751303067594 0 1 1
1826 1 19.97328273753958 6.476977011743589 1.6916092998114343 0 0 1
2063 1 23.79044351811681 2.39201724926934 1.5248383502440381 0 0 0
1375 1 24.00121084902371 6.288708905748756 22.740332678947063 0 1 -1
1454 1 4.017086543445752 8.340636571140921 2.1796074236900704 0 1 1
378 1 6.229634584548631 11.24761052531962 2.9269299257998327 0 0 0
3301 1 3.682174211568947 10.278250804090629 4.400928532507991 1 0 0
232 1 11.481160163308623 7.87873697395971 2.3263319545127543 0 0 0
374 1 13.863804286488717 9.957399428271307 22.573874457786786 0 0 -1
165 1 17.59288033021842 8.141965153422287 1.4257888433029045 0 0 1
1549 1 18.726901370229577 9.801318289724927 22.86267376310796 0 1 0
31 1 18.633674961688527 9.154565025972751 3.954174266135145 0 0 0
1752 1 22.393379396936503 10.752388794955522 0.7339885895157298 0 0 0
47 1 22.4009717049891 8.009453669500106 1.6214344210968539 0 0 0
1912 1 25.511111596862165 7.924392443932912 2.6420007073237435 0 0 0
157 1 0.47062896324844455 11.274742107686167 10.725290294663365 0 0 0
3332 1 2.457341499024414 12.667381096960494 3.0073091151301554 1 0 1
263 1 4.779060641860638 14.194530263100136 3.4891050803012527 0 0 0
385 1 5.895471011507774 13.768578474038316 5.938001260811621 0 0 1
1241 1 10.561359683468783 12.099859577527878 4.16917473028005 0 1 0
217 1 13.984496730615644 12.191383240246822 0.4987363847331427 0 0 0
190 1 16.854699113875803 11.90879687551003 0.312932462047543 0 0 0
94 1 21.13769303607294 12.427226761623661 2.9142529571199356 0 0 0
1958 1 25.021956212731588 10.601448134844656 1.3759373908510804 0 0 1
3366 1 1.0810538473253468 17.06001521330289 8.956466145069282 1 0 0
3444 1 3.5829656302345114 16.449968397681225 3.315701031323539 1 0 0
3875 1 5.786167481342156 18.30746765767723 3.8986549009314726 1 0 0
341 1 9.296124602753451 13.823728175228382 1.8338941477257178 0 0 1
317 1 7.185055376411905 17.42441735999779 1.7084414980239542 0 0 0
377 1 11.713794856132512 15.181033966940735 1.4909631337321418 0 0 0
175 1 15.28282802362834 15.857978270570653 2.1695129550183863 0 0 0
477 1 18.1494740701 14.045040584604783 22.823830061441647 0 0 -1
742 1 20.006677566128467 14.759183471414017 1.0186192300137793 0 0 0
218 1 23.26423312237423 14.561745682734918 1.8346301135017145 0 0 0
244 1 20.650807261479187 18.565314684393655 20.327925022788687 0 0 -1
3744 1 0.41094439090490925 9.472872025841518 7.867413899748361 1 0 0
728 1 16.88600525760381 20.078705270654936 11.916710177566223 0 0 -1
373 1 14.163355158907686 18.363936206670097 2.1386699655613075 0 0 0
92 1 15.959672816117994 15.548406257298492 23.501547455044587 0 0 -1
582 1 18.925725677229334 19.05970739566522 0.4920926802650797 0 0 0
113 1 19.094440785331393 17.02489047733871 2.6186099460823895 0 0 0
4855 1 11.882929022927437 0.4010990090895868 14.320206229918645 1 1 0
3584 1 0.7940633013506836 10.044915551273268 4.580256683774441 1 0 0
433 1 2.9042333428680895 3.9267202551888234 4.073033335527985 0 0 1
1264 1 1.9381749529381738 2.0602577228781107 5.828905671567581 0 1 0
415 1 6.342640446480593 2.4180433231863576 6.379352913374469 0 0 0
256 1 11.050450475915436 1.0878156132988108 5.895767043528873 0 0 0
3947 1 1.0740758698228914 18.994176557366472 20.915273125382754 1 0 0
1576 1 16.281574295454448 4.850804922774851 4.079233398757312 0 1 0
197 1 14.25329484929044 3.268744735941559 5.416959375129177 0 0 0
3567 1 0.6313783357034032 3.312372248716407 8.016124993229663 1 0 0
4993 1 17.466979684655733 0.634876420020037 5.044966381471204 1 1 0
1422 1 22.311894464601142 2.2845905439355563 5.023561143699243 0 1 0
46 1 0.8893823803516969 14.718695061726745 22.801476960503244 0 0 0
108 1 4.945111271588062 4.762358703653819 5.441156614785632 0 0 0
88 1 8.550991786629284 2.4553210485598527 4.631686086046096 0 0 0
100 1 8.572789089721958 5.019793864500042 5.948050523127576 0 0 0
3141 1 11.612244608342177 3.9621560454658984 6.21341935104892 0 1 0
1787 1 14.036730007231865 5.634467598778197 2.408061488311507 0 0 0
1322 1 20.38082954445826 3.930063660383137 2.8372689665910196 0 1 0
3296 1 23.070741129261595 5.24548407148099 1.4380944459913518 0 1 0
406 1 12.78540851704825 1.01019746107904 3.514112173728043 0 0 0
318 1 2.429668442396707 11.610970407473005 7.571644823166285 0 0 0
73 1 7.6075659587110405 9.123744207927151 4.6512859489276375 0 0 0
425 1 8.961297548026122 6.817593027321044 1.5647331200409855 0 0 0
1261 1 12.165927768310537 6.5389047649540855 4.763546474223927 0 1 0
305 1 10.24151331428131 8.386061348880528 6.02209042900824 0 0 0
1390 1 16.68985360297662 7.3534334626071205 5.648845853814236 0 1 1
2055 1 21.36339813106682 8.375050686404975 4.3660845405313795 0 0 0
1751 1 23.69901145667298 8.180592955525038 6.080020044772426 0 0 0
391 1 24.05494055085612 5.797674290843528 4.012654715587392 0 0 1
261 1 23.24058772854115 5.8837002445143955 7.6255577049698555 0 0 1
296 1 1.116192560898835 13.669431897524149 8.916030077927589 0 0 1
198 1 4.889600433921173 13.847935876205096 8.699086017938363 0 0 0
10 1 8.034765541845932 11.952496998981676 5.580828904125032 0 0 0
4860 1 8.554462300482054 11.29155235766131 8.232929391685593 1 1 0
384 1 11.357710406634316 10.73642353569453 6.903292820149679 0 0 0
698 1 12.582930058445752 10.624325342725621 2.6470076461546013 0 0 0
1441 1 17.717041792435044 11.777027881533376 3.059601073758255 0 1 1
604 1 20.37651817418643 10.243882890873817 8.042353979418891 0 0 0
172 1 22.327587162638974 11.301494456480507 4.921738032031364 0 0 0
356 1 24.908557248128176 15.510013761480183 5.7424102376598505 0 0 0
3675 1 2.776971599773235 17.983107814283102 5.8332761083692946 1 0 0
20 1 0.8201774658021378 16.172581897385424 6.026241451124985 0 0 0
342 1 4.7646229921858225 18.773289620254445 7.672296193350608 0 0 0
36 1 0.3928930669187366 14.103506629709738 1.8465930830092177 0 0 0
355 1 7.201456503185434 16.388956087267218 5.479299603192443 0 0 1
730 1 11.517368763907335 14.05462801211428 6.196848085529042 0 0 0
25 1 14.926066870390626 11.715274891912527 4.214484551731062 0 0 1
295 1 13.43585433565582 14.041903633522407 3.6077457074955035 0 0 0
177 1 17.26346257941038 15.834997482032303 4.193303264081187 0 0 0
174 1 18.909066728501475 13.73815734633256 4.689419844520588 0 0 0
410 1 23.947733263731116 16.574747371159773 3.4682449388211487 0 0 0
1748 1 24.70549940225409 19.051027044424934 5.188809369080581 0 0 0
84 1 0.1928994131509066 3.9844277555144783 12.249817417124257 0 0 0
338 1 3.6341636630776346 0.19603832215904834 1.9593488508206793 0 0 1
331 1 15.552523022873284 1.2275630278652077 21.613136461069175 0 0 -1
3354 1 0.8684951990521973 11.594269512108527 16.217997534167015 1 0 0
228 1 9.561449307388365 16.880075261306025 3.5726218243157244 0 0 0
382 1 9.899161187110721 18.144810175796273 6.146360147214402 0 0 0
144 1 14.241176361798985 17.876661027840672 5.433873354671179 0 0 -1
67 1 16.076755524404437 16.288822758595224 6.655785728694351 0 0 0
572 1 21.19670445978602 17.054347481234068 4.6258927154814184 0 0 0
44 1 10.466666488492153 0.07986013389704649 21.14270267016717 0 0 -1
3690 1 4.047304421182203 2.193067981232455 7.962465131754793 1 0 0
3281 1 7.167953012093386 2.1045998875585568 9.274601674347059 0 1 0
418 1 19.839530507119733 0.39309131663785774 15.738139141754665 0 0 0
196 1 13.309482048718403 1.1364066201225849 11.124979756645791 0 0 0
49 1 20.005678952840352 2.571779735687056 8.767583110108397 0 0 0
3007 1 15.681843146015858 0.461448919071299 9.50294882431468 0 1 0
1556 1 17.181777326842266 2.841191451151726 9.4539655994527 0 1 0
1513 1 23.328984029053444 0.48085099601156445 9.543411916174446 0 1 0
1323 1 1.2662303304098703 5.932219311646041 8.228364804505837 0 1 1
114 1 3.7227279759812824 6.737789407000344 6.846566482068411 0 0 0
308 1 4.165751536285727 3.4589289160087544 10.211547394111447 0 0 0
291 1 8.004107266567633 5.628388702525229 8.400361663523384 0 0 0
383 1 5.433623973125134 5.867738428098121 9.328909498426778 0 0 0
265 1 11.476157756743502 4.814529317251201 8.972775354207378 0 0 0
142 1 16.40171649409583 4.083803641363351 7.303682870552986 0 0 1
389 1 13.669781693718711 3.933736666144052 10.438862300633412 0 0 -1
1617 1 21.397720262839762 5.342351950530073 5.095545563617327 0 1 0
280 1 18.6412493592608 5.600491830485458 6.7301458891648025 0 0 0
2020 1 25.474410954324817 3.3879488450965494 4.778050776740694 0 0 0
343 1 22.710908686463416 2.927737780597455 7.7227363383477305 0 0 0
3082 1 26.001038375581825 2.537026146532894 7.433596587901022 0 1 0
82 1 23.256995189461914 19.104154644916523 8.386915145239282 0 0 0
180 1 5.211900023460909 9.128134164225708 6.848905364814004 0 0 0
48 1 7.646853454494695 8.615305888805874 7.844406834929276 0 0 0
1244 1 11.383225294985094 7.709770568621211 8.622816450964756 0 1 0
350 1 13.086563404533585 9.793428656599847 9.642863179105609 0 0 0
162 1 14.12467241131732 7.512461626644119 6.701714587708392 0 0 0
366 1 19.340182658932854 6.3974763754005926 9.291906926160534 0 0 -1
421 1 21.5059666167909 7.839630276017018 8.893667370507442 0 0 0
2013 1 24.880881564662186 10.193296023346797 10.566842987849814 0 0 0
90 1 20.08425531349716 0.743605381367725 5.8531005193328465 0 0 -1
769 1 3.0211094150792612 10.679370915763515 11.07638149101531 0 0 -1
83 1 4.853629603834933 11.038240209567531 9.04533737310225 0 0 1
224 1 11.3413032226683 12.961166911814036 9.056810547647242 0 0 1
332 1 11.69875318900754 11.199318932246836 11.53673932345229 0 0 0
423 1 15.119997963307204 11.842214313662652 9.19021635687577 0 0 0
616 1 13.995476421818305 10.341650329983917 6.678647934194916 0 0 0
1570 1 17.446199031428126 9.71952095365625 7.047094457708603 0 1 0
64 1 22.180174548248075 12.538283059898616 7.2641761487063805 0 0 0
112 1 24.924200316211685 11.974057343308528 8.373808100306485 0 0 0
622 1 2.0926976936227484 14.877285285444739 13.17667465155717 0 0 1
159 1 2.7772048802670155 15.548023901710103 10.461448472151957 0 0 0
386 1 7.406384721498321 13.335227087407212 9.66932399637342 0 0 0
349 1 5.381553328674453 16.79692275641765 9.926228637611839 0 0 0
70 1 7.8187059240455135 17.39101903282993 8.292974345141898 0 0 0
110 1 14.08300001011775 13.89705667064803 6.636851403965796 0 0 -1
273 1 13.881452222518634 14.631368576174284 10.099026654684739 0 0 0
17 1 16.836628315387063 12.460930369223695 6.599624053586692 0 0 -1
2009 1 18.1117349075417 14.299159293674949 8.110823790123083 0 0 0
427 1 21.34649543129155 16.35452920411711 9.142032776932352 0 0 0
3057 1 20.536949544736615 15.14697069770729 6.7578242756608375 0 1 1
1152 1 14.367007766759665 1.5963703385474075 0.24118439009449327 0 1 1
3345 1 0.350516471372214 16.39571482756532 3.0693095360209535 1 0 1
316 1 7.855715416762994 19.74498336657524 18.959460034211098 0 0 0
472 1 2.375230329704078 19.698966537590056 9.113583771890736 0 0 -1
54 1 11.941197581380006 16.43192186962839 9.375938947997366 0 0 1
402 1 12.007098204532081 16.682215778692168 6.640354605491093 0 0 0
786 1 17.302298384037844 18.61604442765834 7.621075672950907 0 0 0
2442 1 19.98363791203386 18.63995661086382 9.575823403694276 0 0 0
4167 1 11.310282933759721 18.194653204067876 1.5418363482913335 1 0 0
272 1 24.034463407985456 16.2387617877283 8.21044191154461 0 0 0
11 1 22.08491146161597 19.416384917504708 5.660951829581749 0 0 0
1281 1 5.8501292355942365 1.73080834300018 11.996092077042157 0 1 0
4809 1 8.168292257490469 2.196305731747731 13.314731851212553 1 1 1
363 1 8.901951248935116 3.8954211455667243 10.455983985023922 0 0 0
150 1 26.16664427600729 19.832939424275526 7.312022998433979 0 0 1
80 1 16.24939266979595 3.712643178385189 12.394963408840002 0 0 0
422 1 18.917943344594715 4.62721659596951 13.151552678009889 0 0 0
1340 1 18.520304372498735 1.5896562241588785 13.173169628338753 0 1 0
1856 1 21.507554973894866 1.1035124640889753 13.142451555183113 0 0 0
99 1 22.960957996229105 3.5002420664282403 12.412942495512995 0 0 0
3081 1 25.005804924801986 2.179055410255689 11.21170538118695 0 1 0
413 1 2.790304258417262 5.028900623233715 11.970872813194793 0 0 0
3539 1 0.14281207901843043 6.872859170865653 19.936118391028312 1 0 -1
1038 1 8.827524254138247 5.783366935729854 12.447036114906213 0 1 -1
55 1 12.38727233299561 4.426912766920762 12.930703918868732 0 0 -1
1443 1 16.627672470025942 6.5463938338127905 12.84215421708343 0 1 0
234 1 20.56536533201803 4.305810956394509 10.723692838652019 0 0 0
251 1 23.18693741077081 6.308195174672407 14.110892767812025 0 0 0
294 1 20.838538916918978 7.378941020161339 15.521035335921965 0 0 0
3532 1 0.9009470065928546 13.265659912804628 5.453690773646776 1 0 0
145 1 25.05407426051538 11.554210686142577 4.301365675924328 0 0 0
1433 1 2.4139472633962993 8.174695137894261 13.897339769318787 0 1 0
4599 1 2.9044019976661337 7.737153499156477 11.387225387572066 1 1 0
3593 1 5.6032212336632305 7.54684042249629 11.75536626033162 1 0 0
3475 1 6.895562496731796 9.756156451447291 10.790854434228939 1 0 0
710 1 9.795061980767722 7.869915170267109 11.153731663783377 0 0 0
3290 1 12.162443728745576 7.159915179971269 12.555881934607246 0 1 0
1316 1 15.097374678764194 5.924884670256774 8.664554657117359 0 1 0
18 1 14.386343772254783 8.389221012263103 11.685792071732061 0 0 1
3336 1 16.814647626761598 7.521320610013279 10.1347663559504 1 0 -1
411 1 23.071758647529535 8.04821612701746 11.257083434908152 0 0 0
2084 1 21.495781762990873 10.01730101624052 12.236292705599485 0 0 0
1558 1 0.5186550145455604 1.9213900514432163 14.503582587565765 0 1 0
3302 1 3.8117520080832397 12.42623987807307 12.853888263045748 1 0 0
3452 1 2.9542278580421297 10.720165255111265 14.778942578775666 1 0 -1
91 1 6.492924110950099 12.055291327209726 12.023135383319536 0 0 0
408 1 6.70235747596607 14.804855126550367 14.619770654111257 0 0 0
404 1 9.225261110284638 10.117794241965724 12.72597579093261 0 0 -1
221 1 14.053108731116435 10.817052105332088 13.247345991994754 0 0 0
205 1 17.27960875577322 10.32155524765398 10.356689354830442 0 0 0
1428 1 19.685755348782678 11.423345866007663 10.420081757479002 0 1 0
115 1 3.7488147067324147 17.49010759203399 13.415829549668505 0 0 0
330 1 6.587868664183065 16.71677764254735 12.56633400957356 0 0 -1
122 1 9.170784114682544 15.415003655288197 9.7973289386321 0 0 -1
43 1 13.617639277065624 13.510617383513178 12.670501942968647 0 0 0
583 1 16.349252758018878 15.640443937991932 10.12928333014661 0 0 -1
153 1 18.40587879475809 15.191861455013154 12.016303006978896 0 0 -1
247 1 20.54436854959982 14.215585129290748 10.553862727488491 0 0 0
2368 1 22.82371907773136 13.88584515717297 11.91819339684719 0 0 0
59 1 24.665053839809307 14.34759593947155 9.969631428524941 0 0 0
3644 1 1.2297788741770714 16.219258875481177 15.610326820626275 1 0 -1
3508 1 5.370314981429999 19.58398754820181 11.059083309785937 1 0 0
269 1 6.801510469082616 18.299945398709895 15.020553513413617 0 0 -1
508 1 12.403118731660534 19.313722691284514 12.613232379687943 0 0 -1
518 1 13.203220974067186 18.772623510691485 9.896502976046563 0 0 0
203 1 15.901830069739903 18.345825386362876 9.972413524724473 0 0 0
206 1 19.581229960126375 19.723409239785713 12.264712552230026 0 0 -1
494 1 24.996925287662076 19.593584671961388 13.544793849327126 0 0 -1
1601 1 25.8258981216139 11.176123840621388 13.238114832137478 0 1 0
808 1 25.955907947790198 13.425161737203037 2.0699036058392766 0 0 1
259 1 3.8990290855936576 4.146077280873121 14.498317403859119 0 0 -1
1431 1 5.723165497840044 2.0064726079198563 18.466063139968814 0 1 0
3610 1 0.37940262737386354 7.942280140920502 10.19389094919279 1 0 0
4867 1 10.869084312684006 2.3568282398452376 11.899262765275349 1 1 0
124 1 14.44604201783708 1.7435187355871478 13.628707400974585 0 0 0
1985 1 16.722960371860886 0.6231982931176098 15.225304857219072 0 0 0
1249 1 20.493289565006748 0.3820408714913436 10.368371082927293 0 1 0
1524 1 22.21576076150174 4.287822236182021 16.206437498091425 0 1 0
3090 1 18.82043320664783 0.27621528569067455 21.40993192943932 0 1 0
93 1 0.4832918848655894 5.857913880194794 17.2743024071894 0 0 0
1339 1 6.93588754637745 6.7663574737039 14.4438383765163 0 1 0
3665 1 2.162769583906882 3.1242823360650434 16.453319566268707 1 0 0
3662 1 3.5839649296562825 5.61535049548508 17.90179067726965 1 0 0
320 1 6.564685082189125 4.248036202130017 14.963109389702678 0 0 0
1398 1 10.387931924428107 5.3503092230939195 15.00539271011557 0 1 -1
310 1 17.020363086336793 5.328952728857052 17.125395105990748 0 0 0
111 1 19.30231244003976 4.9982975935221265 15.746407117752469 0 0 0
1305 1 24.21456681073607 3.065355208064323 14.88967130673065 0 1 0
700 1 21.504259786511433 18.29737838031252 22.964955657753098 0 0 -1
213 1 4.148163320632094 7.251096381180949 15.610688552234077 0 0 -1
60 1 9.119691786104124 8.217618276524103 15.44651374964185 0 0 0
1367 1 8.64892454192198 7.639012231947905 18.307876857305978 0 1 0
1418 1 14.017541896204005 4.139440495292761 15.091891274113319 0 1 0
1585 1 9.483486385457608 10.591283820500104 18.753615698933885 0 1 0
304 1 15.382808988548872 6.7155696022570615 15.331958286655905 0 0 -1
367 1 19.439156774001287 8.435100533688312 13.38864741865177 0 0 0
1481 1 20.800701700951933 8.6884428332073 18.039664874894758 0 1 1
3182 1 24.608127120631796 7.5969104404143595 15.916104993721914 0 1 0
1892 1 22.92983943071942 9.716251987861344 16.194828987253132 0 0 0
192 1 4.2418318926455045 14.50485977007232 15.307180207128514 0 0 -1
4042 1 5.010451479795711 9.654897377207003 16.709818439431245 1 0 -1
168 1 7.605474925246601 10.637767090109062 16.183774844070843 0 0 -1
339 1 8.17232692517406 12.50461884309778 14.164520709577117 0 0 0
209 1 16.829222703088742 10.545220123462624 13.167944132371117 0 0 -1
137 1 16.045668409240257 14.20443039345725 14.10730732047953 0 0 0
9 1 12.303274054295406 7.620980266378543 15.425324426869363 0 0 -1
1547 1 17.308188482221126 9.087955063564872 15.394650222363895 0 1 0
2082 1 23.078766446899408 11.51088819009543 13.740233114712526 0 0 0
102 1 25.62527622734551 12.362046117009772 15.957392067492728 0 0 0
258 1 4.376766596447618 17.225560747503 16.425963399569728 0 0 0
3371 1 2.406792440682143 19.285419391265837 11.755282995957844 1 0 0
665 1 7.47240850930284 15.26250800223146 17.212812093926818 0 0 0
3304 1 10.77392111562709 13.759957738448746 13.381994620335886 1 0 0
1695 1 14.685683275004655 16.224620945553493 15.589858999160057 0 0 0
1686 1 18.659814655477422 12.58642585954889 13.658720059807749 0 0 0
2057 1 19.302866359245776 12.544438490524822 16.378928043221272 0 0 -1
1819 1 24.460109387147696 14.850686174484856 16.222658614713378 0 0 0
1743 1 24.37694826372299 15.862093868208047 13.47711066854936 0 0 0
519 1 18.195712198565555 17.6203672805673 20.57605301044359 0 0 -1
357 1 25.399079953233237 19.09148555525571 18.95527875880485 0 0 -1
3679 1 3.131242471710412 19.707151166329716 15.14576444564888 1 0 0
89 1 8.604450198589285 17.650175516133704 17.302901805769256 0 0 0
319 1 9.232369243673576 16.027218998202663 12.560194001211437 0 0 0
56 1 9.863423815332007 18.79746684719891 13.460432774138527 0 0 0
417 1 10.91550028676778 17.466421960164677 15.74469285060045 0 0 -1
1413 1 13.73072699833201 18.709514701081083 14.94339182191585 0 1 0
1479 1 0.4874899661878201 7.48920559127905 5.8348961534950945 0 1 0
109 1 19.46110077892787 17.41485710181078 13.774378504403744 0 0 -1
323 1 22.361199919361123 17.585089125300716 13.431079842514018 0 0 0
1793 1 21.807086771379844 18.56687088337111 16.166317893488237 0 0 0
131 1 1.9298721219425383 1.681993243735808 19.787008842020125 0 0 -1
358 1 3.2938071044053387 2.1147592028831252 22.338936136331892 0 0 0
1624 1 3.2942078677300706 1.0760641702737408 17.605850617959128 0 1 0
436 1 7.502671021609506 5.397059413954553 20.47025729334669 0 0 0
71 1 10.83496178101849 1.535223762418542 16.96184906639568 0 0 -1
314 1 14.110247646992653 2.5696673113264024 19.551926169602076 0 0 -1
21 1 21.301202585373364 2.0792847148540727 17.869585840619184 0 0 0
1472 1 7.073582808090383 0.3907679957678115 22.27892825382825 0 1 -1
1456 1 0.8331234638525423 4.591177725294697 21.171425473740005 0 1 0
1274 1 3.5073307947720846 5.082790890384072 21.0471725355965 0 1 0
4747 1 6.095397935725724 4.595914032146682 17.77524917289676 1 1 0
219 1 11.402714612329731 4.232487773092979 17.25617840417666 0 0 0
1649 1 15.932935447000899 2.70332858429685 17.299356470246483 0 1 0
189 1 15.86508926414369 8.142047786327966 18.337570629835866 0 0 -1
1256 1 13.275673710380422 6.120713244892168 17.835015832695287 0 1 -1
409 1 18.532935507645394 1.9583453146434144 18.678149815262273 0 0 0
22 1 18.27127859414662 4.778575985190078 20.015416018412623 0 0 0
1550 1 25.315329185039687 6.4421019789059075 18.39016193222081 0 1 0
1272 1 22.929613652339775 4.851550347145307 18.872569824333418 0 1 0
1816 1 25.98036264459758 9.14513075992084 4.969419897823816 0 0 0
3373 1 2.375479204775186 8.303923874772336 18.425318149517345 1 0 -1
1319 1 7.474990836460471 10.796100416959732 20.77222526067551 0 1 -1
1637 1 6.453198661304151 8.73057414198693 19.331260063163747 0 1 0
725 1 9.963824617471825 9.586887890121233 22.300854382568176 0 0 -1
104 1 11.201400045785926 7.6038164456711685 19.76396442550296 0 0 -1
53 1 13.31811575618703 10.038102574264336 15.664749280628978 0 0 0
2026 1 22.282396515615797 9.76573637667727 20.13728614311372 0 0 -1
96 1 20.85906765683467 6.451571464766759 19.513547538769217 0 0 0
1852 1 24.590788787625726 10.766226567245171 18.191894813565998 0 0 -1
696 1 16.68708946103535 18.0143071764208 22.6895840885344 0 0 -1
289 1 2.4869653925978867 12.329882666565023 19.517609578740284 0 0 0
3493 1 4.378846351034253 12.553572360361843 17.47067676096393 1 0 0
30 1 9.895664633903468 13.744816654613908 17.301191522963126 0 0 -1
547 1 7.477399944781981 13.671754014461236 21.072723547409108 0 0 -1
2 1 10.760622396677531 11.453954294851915 15.71386301706045 0 0 -1
1666 1 15.923788631872926 12.280047970073756 16.271317490467258 0 0 0
235 1 13.865532752637941 10.099306464346007 18.52166655125795 0 0 0
1618 1 18.542338769566715 10.425011385654253 17.5791998368155 0 1 0
591 1 25.217300478317163 14.599459603272955 19.279644451570555 0 0 -1
334 1 13.586590256299125 18.110494253150446 22.873056829443644 0 0 0
1531 1 4.111464336772232 16.748418771263246 19.997927040210815 0 1 0
345 1 5.617994412481131 14.46905595875719 19.031263086828808 0 0 0
3474 1 11.261491183953579 15.96089099726692 19.662510503219156 1 0 0
325 1 11.978454939243926 14.870492732331353 15.619798715678275 0 0 0
654 1 13.303005820019372 12.98287159137007 17.235996011063435 0 0 -1
51 1 14.341221211326648 16.55328824641389 18.300472948578175 0 0 0
1564 1 16.92157987764654 14.760491259196423 17.400811032291227 0 1 0
548 1 21.98892910303578 13.945950778130033 17.2776714183675 0 0 0
321 1 23.63032145995357 17.323429668165552 19.978279315461478 0 0 0
3 1 1.6798165044625906 17.125953992729748 18.340530313160393 0 0 -1
283 1 1.6424000382002035 10.216086142359961 1.7812373807283706 0 0 1
3792 1 5.384651365251675 19.42013435531935 20.413678876458413 1 0 -1
140 1 10.967501398582641 18.715723660247026 19.288914060626823 0 0 0
183 1 8.08878218564521 0.8372138165411221 17.63079398038186 0 0 -1
347 1 16.639531690326983 18.42928295141159 18.445868395333108 0 0 0
644 1 18.61448984534134 17.34183007977545 16.510665033622193 0 0 0
65 1 8.695650619568994 18.066924583703983 23.114182713029685 0 0 -1
388 1 21.250110171112517 16.538618594731652 18.03704326216848 0 0 0
1527 1 5.767954330437361 2.5282556363017097 21.05568407838146 0 1 -1
3491 1 0.29093578632260964 2.0665769330457002 10.378072068107857 1 0 0
132 1 12.323887847026915 3.474133115044414 23.81933489923329 0 0 -1
1275 1 17.651132982748496 2.8790426620925675 22.069464875394537 0 1 -1
178 1 22.263350972898323 2.000162728314584 20.33858582451753 0 0 -1
158 1 24.92297942320813 1.5849739010792785 23.011161091447875 0 0 -1
40 1 2.872936860416688 5.426359486349491 23.791061648298093 0 0 -1
4876 1 0.6415527305682341 5.70672679273801 1.603071666317485 1 1 0
1446 1 5.305134202595907 7.350111604472973 21.427309196326757 0 1 0
298 1 8.882877168584907 7.112864066129416 22.543044249368666 0 0 -1
1474 1 13.066227177342698 7.616180411038604 23.79334406176817 0 1 0
299 1 11.910795612365721 5.714993331938368 22.054775091117325 0 0 0
1354 1 10.191958563643094 4.259719353468329 19.799474142990167 0 1 0
431 1 14.08777693086309 5.106581577060286 20.233412338713443 0 0 0
1280 1 19.339171791428807 5.990141068965782 22.739548650697895 0 1 0
284 1 20.645151380426128 3.2580712260184095 22.119098439005366 0 0 -1
184 1 25.445889000979246 18.026924556635855 1.6277993058452358 0 0 0
288 1 24.545096771913514 3.745516791291656 21.30287078957974 0 0 -1
1435 1 2.807810029942163 8.666466077898523 21.311832438901888 0 1 0
161 1 6.068715134248861 10.94814090680335 23.811878192967644 0 0 -1
344 1 9.261841857588415 10.114327594481733 2.613694283107669 0 0 1
14 1 16.041239633238323 9.610164371774408 21.365954364285496 0 0 0
136 1 12.205172071231397 10.06581331987866 20.74972387146977 0 0 0
5 1 16.593185419133086 6.622076218572404 21.05744857817187 0 0 0
1291 1 21.558157103042646 7.752117440300431 22.250617054794848 0 1 0
658 1 24.658092160004223 8.466654689249395 20.872691101515503 0 0 -1
474 1 12.11957084966112 19.953861885401054 16.869043200969365 0 0 -1
253 1 3.362684192516418 11.466140436931026 21.879639379780063 0 0 0
1240 1 6.666837890683028 14.701245839796947 1.567637762567555 0 1 0
1252 1 8.914759866124175 11.60309965894703 23.85678843175124 0 1 -1
1392 1 10.466640153471744 13.49547611474947 22.523008050799756 0 1 0
381 1 11.103667814614862 12.61802943908346 19.910868532235735 0 0 -1
39 1 16.51632181992996 11.363612271840134 19.341874562453487 0 0 0
709 1 21.28205085271502 13.900594306163331 21.42793849739908 0 0 -1
297 1 21.07830669953917 11.045920751268785 22.098127436731275 0 0 0
13 1 22.98642909504163 12.807846131301297 19.569582665548882 0 0 0
515 1 24.082026638622743 19.94207061019284 16.765134969294518 0 0 0
264 1 3.320709429128191 15.55804018852319 22.186872596624816 0 0 -1
3509 1 5.376649287015731 13.828794748829218 22.8335485438692 1 0 -1
805 1 8.9891534202564 15.908750400015084 21.224947576178064 0 0 0
160 1 13.78030783654092 18.93822332314602 20.06827395295757 0 0 -1
369 1 13.835860132988076 14.213159640774352 19.87294278864031 0 0 -1
1528 1 13.083789000306776 14.538770362172892 23.035446581409477 0 1 0
371 1 16.503640891878206 13.784465540872013 20.09446026137633 0 0 -1
266 1 19.244637696571537 15.121356909039111 19.86036958682206 0 0 -1
1726 1 24.89059614120106 17.007822781931257 22.65898124847844 0 0 0
660 1 22.438127614858363 15.436627055493112 23.256101191359527 0 0 0
187 1 3.4807741888696433 17.303111165939104 0.5591709122198287 0 0 0
521 1 5.663774166227284 18.654835781971972 22.873068444957543 0 0 0
1248 1 15.165619083077083 0.8415821209343043 6.647295811995209 0 1 0
3704 1 0.5987682917992104 10.405714137782557 18.915492714560575 1 0 -1
3543 1 8.657978562059967 1.0073681952486286 1.317042167946296 1 0 0
4092 1 1.3060873237516128 19.32001509912225 0.2346152853938328 1 0 1
4089 1 0.6640511745618307 11.523683059548961 22.72644435730011 1 0 0
211 1 3.732496315089101 1.1135240806149647 14.102610945777872 0 0 0
2470 1 26.139482386972386 1.0493856838756175 16.26804244819171 0 0 0
2375 1 26.09985574308083 19.810632089293346 22.187943622857347 0 0 -1
328 1 12.221021415546305 0.287622435553743 19.10358503846774 0 0 -1
155 1 25.2243654906023 6.212308126876351 11.964579875575481 0 0 0
3870 1 11.61729448055999 19.461780942956548 3.9821158498760036 1 0 0
761 1 22.53645878132764 19.485877027611547 11.354157833772037 0 0 0
340 1 1.0149060918126134 20.161420368507752 5.938016813204389 0 0 0
1329 1 0.056681009677141084 0.1572988722745805 23.618958026120424 0 1 0
66 1 3.9782270902600874 20.386559818842102 1.9120627955463527 0 0 0
3853 1 1.6874528055091753 30.44600243471497 10.47926072792935 1 0 0
460 1 11.866288095176794 23.386079131176878 2.9748123173264145 0 0 0
181 1 6.2047339163617785 20.92126487540522 6.993757882569569 0 0 1
412 1 19.778447609303058 20.432942150707355 7.46208004988801 0 0 0
121 1 18.163014258391716 21.308957944233068 22.72731742719005 0 0 0
443 1 22.26950200447725 21.05682481314773 23.439284340749786 0 0 -2
396 1 21.11611034770864 22.534030490845698 1.512335519062051 0 0 -1
3772 1 10.082777282662367 39.65813503879873 22.669574014939084 1 0 0
746 1 4.609665001427714 25.07915143501531 23.833777614070954 0 0 -1
745 1 0.4566728289537864 26.05750666936112 23.835469072975485 0 0 -1
3829 1 2.9571141256903584 24.031888894930166 2.398017154054705 1 0 0
485 1 8.727496875004352 28.580912103191878 4.698655675592571 0 0 0
419 1 7.005513063868183 24.449417993380266 4.537139259704018 0 0 0
3861 1 10.766746652205027 25.577007568783863 1.1499614411568926 1 0 0
774 1 13.756946542398637 25.881639231408144 1.446657177675607 0 0 0