LAMMPS data file via write_data, version 29 Oct 2020, timestep = 60665

2237 atoms
1 atom types

0.0 78.752 xlo xhi
0.0 80.86108639999017 ylo yhi
0.11773134337557778 23.882268656624177 zlo zhi

Masses

1 18.015

Atoms # atomic

639 1 23.351562600968126 1.2680388421632378 2.8871552469542547 0 0 1
15 1 24.163449206255567 3.062584351907627 0.7944292913099137 0 0 0
65 1 25.802185858920666 8.060911273711131 3.4030434030592183 0 0 0
1069 1 24.84253516104926 19.77988482712823 2.668601941011138 0 0 1
80 1 24.057870019193583 15.346890808061957 3.3676320271447637 0 0 0
57 1 25.91601587903577 17.832823954579208 7.825093486260097 0 0 0
62 1 25.130227111515573 17.565756201011695 4.3026200167371575 0 0 0
68 1 24.863722156725128 2.0412717361214265 5.317247773545137 0 1 0
43 1 25.789028755658702 11.433633417647664 6.977256557671747 0 0 0
49 1 23.940359999452024 17.89280098828134 16.25004608629708 0 0 -1
67 1 24.90981247258139 7.3256145180870265 6.00453866189727 0 0 1
233 1 25.81990032402669 0.2873197212884585 12.039738019213567 0 1 0
28 1 23.775373129137453 13.070255653214776 18.557089371195456 0 0 -1
369 1 23.116003973608237 14.692741016823883 5.883304514540166 0 0 0
390 1 23.41313954753507 17.378636982759463 6.346606638066191 0 0 1
288 1 24.6901637944339 8.526326897201736 20.420104953196923 0 0 0
59 1 25.35995441044778 1.7975994615533566 9.711316031875368 0 0 0
473 1 24.98457067756135 9.029032563031127 8.309921519166867 0 0 0
25 1 25.166423318079918 6.998878779715008 16.88809135967633 0 1 0
437 1 24.55618728771172 13.740073310167858 7.9382124537828656 0 0 -1
70 1 25.298648340110155 5.508638413391084 0.19672704876031283 0 1 0
64 1 22.745890328450113 16.142882062084098 12.736659036360862 0 0 0
47 1 24.588056754963514 3.7193850875679795 11.262428115303463 0 0 0
69 1 25.733219891454283 6.704844564862574 10.07193507263134 0 0 0
44 1 23.182717316327487 12.385066215694435 12.46003062820999 0 0 0
53 1 24.104720890397466 14.451977906502814 10.788635163396641 0 0 0
20 1 25.260824157288038 10.360861239209353 18.599944065958205 0 0 -1
606 1 23.46985975282502 15.12720089272647 16.548083762385545 0 0 0
35 1 24.070075600801477 3.640001514887472 13.771206621127915 0 0 0
4 1 24.94536829444577 1.0416997664217957 14.22259248382935 0 0 0
22 1 24.980127308794717 13.951494939904595 20.94316759156684 0 0 -1
21 1 25.83321295360358 9.743598968033924 15.989867757440162 0 0 -1
643 1 24.918368194032436 10.016149181087602 22.83030020936406 0 0 0
32 1 22.143647097660764 14.273406783341805 14.399745552161853 0 0 0
19 1 23.956720855923287 12.579133787601538 23.49931399146019 0 1 -1
5 1 25.034994724574982 16.99218328493979 13.655158042378803 0 0 0
38 1 26.183469443766104 5.138075978601738 15.108431757006626 0 1 0
36 1 24.061805088393392 5.891820391136271 19.361894531573746 0 1 0
30 1 24.19174008381526 8.431842430878243 1.0762317763629625 0 0 0
61 1 24.747410673304405 0.08561882843364278 7.445172852983176 0 1 0
11 1 25.260556812810584 0.7908197397867383 23.19809435977583 0 0 -1
16 1 25.86193605746022 19.638435036867975 12.617118560611889 0 0 0
1657 1 26.083162582788546 1.863709166848924 20.80900129695264 0 1 0
17 1 25.617635419612224 11.492413580639688 13.655461370834187 0 0 0
66 1 26.181204360385035 4.660652581964155 6.304499773455541 0 0 1
13 1 25.643948061106947 12.995177773337018 4.456461165013315 0 0 0
325 1 25.629991398688922 13.963704478593366 1.4262896264966718 0 0 1
360 1 25.896382709327995 17.639601407772034 18.52907168332714 0 0 0
599 1 26.14500214012097 13.535443223694477 16.401988242286915 0 0 -1
1458 1 25.41142463755993 37.16960802486862 7.902943322853338 0 0 0
840 1 25.05634697601651 22.87729018511017 2.0905288766447585 0 0 0
89 1 23.14045006779898 29.820977741394177 1.966402129561419 0 0 0
145 1 21.850619224020587 32.1977818872474 2.222019297721034 0 0 0
124 1 25.48869477875218 40.39656312456126 6.297545991218519 0 0 0
850 1 25.6695095022709 29.416788499993515 1.4341021034060728 0 0 0
75 1 22.71454039749134 37.29598445049552 2.2604387694412664 0 0 0
1537 1 24.855812574278893 39.0629211486966 1.2867905349574875 0 0 0
106 1 24.46270123464873 21.400041620944585 7.1324317300812945 0 0 0
1487 1 26.213146273503753 38.245520886295765 22.98811884935966 0 0 0
99 1 26.17160720277174 31.807453364614354 23.102992139326307 0 0 -1
98 1 23.29515821215692 29.381963281520466 4.885571838899513 0 0 0
761 1 24.330470417595627 31.5879420650559 6.154517771447242 0 0 0
143 1 23.789191426153337 33.18089000457312 3.5632365980794303 0 0 0
1108 1 23.67037534158059 36.00009262843962 4.433003229067685 0 0 0
131 1 21.60818576667525 40.14322753114673 7.391880719591328 0 0 0
81 1 25.863857072101496 22.60730169665234 9.382362819874501 0 0 0
52 1 25.89866907945999 22.777931821256075 12.173505457465948 0 0 0
136 1 25.52903521560667 27.789732821858692 4.006974005662163 0 0 0
144 1 25.27891218277964 31.425476499144896 9.001753358116924 0 0 0
871 1 25.544814814040365 34.19885562125567 9.206366829490614 0 0 0
819 1 23.285300970316328 38.33066940858011 6.217971247802714 0 0 0
989 1 22.541816618884834 40.22489325974174 9.843606864647798 0 0 0
1422 1 24.85999488278288 40.077777372935756 16.868103920563478 0 0 -1
133 1 23.00646759899271 31.87684440627491 10.871033610128121 0 0 0
1016 1 25.18734012511478 30.273230798982397 12.176409711535719 0 0 0
126 1 21.217143524349257 35.70508274593854 12.27530479119685 0 0 0
88 1 21.975516758136674 38.34236625873696 11.957830371973383 0 0 0
121 1 23.47485192315841 34.63565362885576 11.474727741490174 0 0 0
924 1 26.035253256903744 35.14348168752505 23.86237864494893 0 0 -1
1320 1 24.500831397874265 37.499876024178434 12.214135200268299 0 0 1
768 1 25.935673163766424 21.784248927610708 4.732827309347772 0 0 0
79 1 23.895424286427417 37.45254482785763 21.57502705038975 0 0 -1
716 1 22.354781669041778 32.08561027195271 16.195066729232238 0 0 0
102 1 24.456372537474582 30.545972664630476 14.91953954638425 0 0 -1
1047 1 21.246421315765726 34.403484457722755 14.9088842960411 0 0 -1
991 1 24.41572930393182 33.737221673639716 13.995392103223523 0 0 -1
125 1 20.02635067840745 39.38558819153859 16.665798207370923 0 0 -1
122 1 22.28049534718845 39.5230914073271 14.766377594752925 0 0 0
108 1 23.582777822284132 37.695831289201095 17.0024991396915 0 0 0
101 1 26.120881277376117 26.465111025210025 15.515763034162637 0 0 0
110 1 26.017864257522795 21.912120155108788 21.110719386470347 0 0 -1
104 1 24.17469740902244 28.16564544260315 16.615408158166804 0 0 -1
84 1 24.899271560452924 28.558633620417453 19.36694581047481 0 0 -1
83 1 24.0508016445858 31.113238522787043 19.828321257655006 0 0 0
93 1 19.411220790135435 36.6072829360004 15.825318201541194 0 0 0
91 1 20.90668831477267 35.293508444312394 18.035289326154242 0 0 0
97 1 23.31636924120778 33.454690052302595 18.4633426688878 0 0 -1
109 1 22.51164245658067 39.845775168920795 20.67772511799343 0 0 0
1001 1 21.272605865529535 38.129041786905844 18.659574023022618 0 0 0
1418 1 24.068384470462977 36.03147674470489 19.20381262933775 0 0 0
117 1 23.184152697802258 35.43083635260594 23.599241236651583 0 0 -1
100 1 22.590687451883465 28.448642792802023 23.134994310398902 0 0 -1
1079 1 24.13697427833213 26.979558269485874 21.615368142547688 0 0 0
95 1 23.518718101413423 31.087726816785786 22.47369574279839 0 0 -1
115 1 21.626801106145756 33.161309826924374 23.54226134080237 0 0 -1
1368 1 25.103415083520463 36.34346828024484 14.679400903115033 0 0 0
1098 1 26.07516707827575 27.347090742738107 23.36385379293687 0 0 -1
774 1 25.78099964623633 33.932535951814096 16.909871591607846 0 0 0
931 1 25.436253045501097 40.276197955342454 9.25985449655652 0 0 0
781 1 25.818700008118658 25.679525172659176 2.104942976318668 0 0 0
142 1 23.160912960130073 42.78939752399602 2.803937689424254 0 0 0
1302 1 25.879785468930454 41.63464704763871 3.1867130170718236 0 0 -1
112 1 22.818050381462015 45.48530430913196 2.227423255850339 0 0 0
105 1 24.69877872577821 49.68660530386679 2.0238326320850404 0 0 1
161 1 23.97390219779139 48.20786984721838 21.650084189489732 0 0 -1
208 1 23.41456604216018 49.22375526373798 4.233444250457964 0 0 0
1154 1 22.527340673884716 51.25662202347396 1.3711195975009092 0 0 0
174 1 23.5740382649483 53.80823115644299 1.99793593944947 0 0 1
158 1 23.356280633083358 58.158493436476014 23.605956440626183 0 0 0
156 1 20.57280675826629 57.9143568854839 0.39163868184457395 0 0 1
127 1 20.96874212983772 41.747545061583715 22.72391864684306 0 0 -1
1670 1 24.76115798559036 59.16770751731638 2.4064568235823875 0 0 0
107 1 25.62470926533 43.16931032361335 8.906427652129596 0 0 0
152 1 20.01814849653815 46.90305701179161 19.395631057381785 0 0 0
137 1 22.799100999647322 45.89127455712404 6.991494190250174 0 0 0
195 1 22.012363685051042 46.85488939038589 4.536392444009991 0 0 0
197 1 22.669495985276313 50.93027364256209 22.39818476190056 0 0 0
172 1 19.86836763789692 48.53808926546462 4.985576228579824 0 0 1
1193 1 20.998914327400446 50.623528842180896 3.6238126930033694 0 0 1
203 1 24.14583726189174 50.985165219642646 6.332133858434373 0 0 0
146 1 22.023467322742828 54.97822189897228 5.401744662393135 0 0 1
157 1 19.91986463801821 56.80063270338367 5.942998161560788 0 0 1
1388 1 23.166919144491995 56.296563052241055 3.2627061525778176 0 0 0
192 1 25.056737003905177 46.8701763628702 11.582699482585374 0 0 0
155 1 19.858607006274685 59.97255182489548 5.367571489780927 0 0 1
176 1 21.377870143589114 58.9479112826111 3.042521937935808 0 0 0
196 1 24.384618560127098 60.26761711628997 22.002908061418886 0 0 0
216 1 25.51339473042772 59.06700521349212 5.6621951368841685 0 0 1
123 1 21.48877301460646 42.74541743584381 10.106070469918203 0 0 0
82 1 22.867588949391614 43.3621356326761 7.752651166339298 0 0 0
1234 1 26.07581389691757 60.426123589858584 19.673331225375968 0 0 -1
204 1 21.88054100261136 47.68392624252791 8.80027556477503 0 0 0
154 1 25.445721424267916 45.93792006718964 7.409007491944003 0 0 0
130 1 23.052725784726793 41.71757103544066 5.288839149787625 0 0 0
218 1 19.675755177758088 48.939289763028654 7.838492483550727 0 0 0
209 1 20.087814402412494 51.65901069177085 7.946098039093315 0 0 0
178 1 23.558297583504444 50.016419316529486 8.90719662000792 0 0 0
184 1 22.645040540164924 54.52988481354462 10.050597742949243 0 0 1
183 1 21.58826843504637 52.22870768590448 5.734059509685903 0 0 0
150 1 24.583445140237824 55.37724554241335 6.642539385949138 0 0 0
193 1 21.49287271140926 58.07983976388765 7.956329044284018 0 0 1
1162 1 24.295982520123797 57.91908542231883 7.899758318254963 0 0 0
1353 1 24.749619628275106 47.07834164048927 0.5008613604199516 0 0 0
140 1 22.462646034851414 40.968569008289336 1.069818914067989 0 0 0
999 1 22.935510563202236 43.79575259337898 12.119599916072737 0 0 0
1471 1 25.608870666799366 43.863467036239676 11.565774293626434 0 0 0
76 1 22.282046331931188 46.42889984299583 11.208680814315079 0 0 0
151 1 22.40051798097981 44.31951625440353 19.685850833843354 0 0 -1
1194 1 25.260071273037696 51.4281244215201 10.168246526041433 0 0 1
201 1 25.56167556596153 48.096541217685655 9.041606045060036 0 0 1
213 1 23.078566552780206 53.60045358832069 12.900069513977018 0 0 0
185 1 21.6003816517431 51.938823300272894 9.972049552084954 0 0 -1
128 1 24.52919511190725 41.277215189034585 22.672616268137904 0 0 -1
217 1 21.158540128386953 56.90483578436162 10.562810145231163 0 0 1
175 1 23.142480153858248 58.63441138061556 11.683872961883493 0 0 0
169 1 25.80786305187818 56.43594162828426 4.468015979771037 0 0 0
1225 1 25.466507023996748 58.53758572351176 10.286517184548563 0 0 1
94 1 23.485508792146838 41.917132843218276 14.364261816288378 0 0 -1
167 1 21.61072865845347 42.27603801915736 16.675533022968303 0 0 0
170 1 25.908097627619455 44.74829063714689 16.185984891366903 0 0 0
1428 1 24.306361243660604 46.4361592202466 14.580252483971465 0 0 0
215 1 20.76027431749489 50.910481606958996 12.420531539278697 0 0 1
182 1 22.7834952567684 48.962246705270736 13.046079028020484 0 0 -1
181 1 22.850314079574417 47.014156146556665 16.74467450115107 0 0 0
177 1 24.553597198284244 51.294585565327075 12.968873501499592 0 0 0
168 1 20.98820940995329 52.62757666724453 14.486974209201831 0 0 0
1133 1 21.450936584584444 49.34563175547717 20.12536427387233 0 0 -1
1446 1 23.358354080721472 53.289346049247776 16.41244459949054 0 0 0
190 1 24.95441372315614 54.6792556207079 14.572987890836606 0 0 1
1236 1 23.340066084996526 58.80781512779784 14.359998094281723 0 0 0
258 1 25.320555870388187 57.17485665963573 15.527912345818958 0 0 1
1429 1 25.857532723012437 41.54314816123425 19.809249425439848 0 0 0
171 1 23.16802999289305 41.6794387909943 18.8299268535132 0 0 0
199 1 25.357934540233444 54.0254159120045 9.210223373564695 0 0 0
173 1 23.652437005746627 46.76131262013097 19.434487118639797 0 0 -1
159 1 20.9992864797834 45.048598921181934 17.042234408456984 0 0 0
810 1 26.16214317359876 47.73422098359148 5.139844770960274 0 0 0
194 1 21.421395204471352 49.407103394136946 15.445019877517758 0 0 0
1517 1 24.034558013933637 51.08038366958662 19.174450822623278 0 0 0
1498 1 24.20252455951757 50.675457755117755 15.94688684068694 0 0 0
160 1 21.40804756016085 50.7846591640121 17.80945750996409 0 0 -1
200 1 24.108570318096202 54.26969983575729 18.61727252142567 0 0 0
207 1 24.10638066809842 55.23902461681716 23.359379387886566 0 0 -1
153 1 24.785204261476167 57.07228191411779 18.243759127997603 0 0 -1
1899 1 22.963725832911475 58.942458809155085 19.505914037165 0 0 0
1164 1 24.193821029010405 53.259377110386325 21.42584933924062 0 0 0
129 1 22.98224294530168 43.83051729267286 22.25411672284892 0 0 -1
948 1 25.93562804451852 44.222362028861625 23.20914537137065 0 0 -1
1490 1 26.038091906749095 49.51590173045287 20.61503019482006 0 0 0
1459 1 26.103894932655 45.92666821858763 18.966378404518377 0 0 0
198 1 20.13023863609912 60.34634298120008 22.72354319924698 0 0 -1
1377 1 26.085959923374332 48.63741025242808 15.567096310259503 0 0 0
1260 1 26.21960688187545 52.99008860387509 6.386844653044073 0 0 0
1549 1 23.09220935078384 63.230321221573874 1.7908473785337011 0 0 0
257 1 21.243698253648095 66.94223733435881 1.6879429603903915 0 0 1
1669 1 26.215572015791487 68.67513555186135 11.312207445438224 0 0 0
1833 1 24.24734512318304 67.570226862889 0.22304660827527006 0 0 1
219 1 20.878409083336464 70.05989399110969 0.8937251112526471 0 0 1
279 1 24.029235869128847 73.6959523816985 17.618042853465408 0 -1 -1
1627 1 18.688171583660008 71.97207082425115 1.6277730687440828 0 0 1
283 1 19.552862279210736 74.77527944315933 1.25441754604902 0 0 0
264 1 24.02678090801561 69.06927856741422 2.8951282270603556 0 0 0
281 1 22.379004263072666 76.1417249128998 2.415952954334918 0 0 1
1944 1 22.343448978202606 73.5323995638068 3.026749400353653 0 0 0
240 1 23.24917019212783 71.51334990140799 1.2394731847642673 0 0 0
1619 1 24.279825811438982 79.49980017178156 2.4344745420542506 0 0 2
211 1 20.842761977062747 61.60944900366902 1.660640132972254 0 0 0
1223 1 19.29466716976116 62.436377982589754 3.9932396037956046 0 0 0
188 1 20.80104704398539 64.35238476515123 5.042402107752854 0 0 0
287 1 22.821402960480626 65.29477950899216 3.332865863029005 0 0 0
202 1 20.319094852724227 67.19124298939666 5.409463720052679 0 0 1
1926 1 22.880991821214952 69.44164212946376 22.312252317457222 0 0 0
222 1 21.35057452680342 69.019445706167 3.6110089501041265 0 0 1
285 1 22.589834256289706 70.95789676157587 5.899069712094729 0 0 0
256 1 20.244857741045557 71.85886253472744 4.317713114522835 0 0 1
1689 1 25.267962941397073 72.2765889651267 5.9754952941551265 0 0 0
236 1 23.746765302308205 74.65612732830297 5.312896325257194 0 0 0
1918 1 24.306391409924665 77.36004571309527 4.61564693794414 0 0 1
10 1 23.19329337547572 78.71472890322877 6.842130931678568 0 0 0
272 1 22.342432925584863 63.196954379859164 6.956523340287907 0 0 0
1601 1 25.746928226562243 61.76346349230298 1.788246118746729 0 0 1
1620 1 25.316875467400138 66.2378407146946 4.01443358072935 0 0 0
189 1 21.826060386643967 60.87074824315896 11.020380795571187 0 0 1
1530 1 20.118784394623827 67.63696446110002 8.24222824556057 0 0 0
212 1 22.511381734425438 68.14025012044024 8.782997744392308 0 0 0
250 1 24.875887953522007 66.98189791161076 6.763980860695617 0 0 0
278 1 19.721714206857264 72.59232787176161 7.0086684294782735 0 0 0
247 1 18.768749971604517 70.45519200182255 8.596817862383604 0 0 0
1831 1 21.69900649051185 71.13642169985992 8.527759683720385 0 0 0
280 1 23.307595279807973 73.10110633193457 9.466808321399082 0 0 0
205 1 23.223032471860225 61.1136292576919 4.0835526246318725 0 0 0
282 1 21.39117321606129 74.85723129638987 6.783677564382824 0 0 0
262 1 24.70420496758943 77.10046344979878 8.834301329191444 0 -1 -1
273 1 22.40448570788411 75.7004157762856 9.62404714089892 0 0 1
270 1 20.843060911690394 78.35912990550709 8.677116233015486 0 -1 0
232 1 21.869989858941786 61.448683281726815 14.038394241095302 0 0 0
1348 1 24.112810939131855 62.56681134813647 10.313429441940048 0 0 0
187 1 19.084296488212974 66.17039362522398 10.548711834880946 0 0 0
259 1 21.78948754038251 65.64696728194214 11.293951251110549 0 0 0
1592 1 23.436112497914422 64.9736980094826 9.001623766413202 0 0 0
276 1 19.505371878503016 68.05312828977213 12.27798809335901 0 0 1
260 1 22.237318153519826 70.85529257757197 12.426585543935296 0 0 0
148 1 23.111595653170813 68.32390099399989 11.557267226341665 0 0 0
1181 1 25.73196455838837 60.950481450728816 8.937395354622081 0 0 1
275 1 19.393819548070624 70.85045169385589 11.295345515722559 0 0 0
149 1 24.973582814782304 62.02980510110499 6.324372314910366 0 0 -1
271 1 24.15381353664616 73.2266536128335 12.12236152784919 0 0 0
243 1 23.671903977380538 76.20945543155382 12.274539214990998 0 0 0
1847 1 25.733017365059805 67.39501813005094 19.638298042423955 0 0 0
1590 1 26.098025365821712 73.11351796165137 22.533394099435224 0 0 -1
1661 1 24.999229834012603 62.82927023596159 13.243400066480472 0 0 0
223 1 23.927459855332714 75.99066477862925 23.748386471043176 0 0 0
1954 1 22.168628547380756 64.08532450790689 13.727723483430394 0 0 0
234 1 22.86424611778992 65.35166590963804 16.051806733412747 0 0 -1
255 1 25.395004803625124 78.22566913001542 11.445175825131187 0 0 0
245 1 21.330824355821974 70.69731600393592 15.053566609320084 0 0 0
230 1 22.69055473293725 68.47378162544555 16.186171694616153 0 0 0
274 1 24.7732266428067 67.68274665718961 13.925981205432224 0 0 0
1478 1 23.368581484289155 65.3135330787289 22.90558436257733 0 0 0
1837 1 23.5440073516704 72.84898740659246 14.849072787006852 0 0 0
237 1 25.594653876806245 69.32810803411992 5.155630705972117 0 0 0
1610 1 25.94439659572161 66.84764642768307 9.358246668961863 0 0 1
1836 1 23.666496880417732 63.976450803366276 18.46046850105911 0 0 0
186 1 24.30617656292198 61.21175607636701 18.083489454600997 0 0 0
246 1 23.62737092648888 68.55004116532353 18.941583982518708 0 0 0
227 1 24.398995792277237 71.37130132656733 19.236526560945258 0 0 -1
1541 1 21.327125046388744 74.75720201786193 23.074499279661122 0 0 0
286 1 23.261339158068257 72.23836379314196 21.83203273601675 0 0 -1
206 1 22.408290697471372 62.330515245494944 22.505520410901383 0 0 0
1550 1 21.549517560057815 63.876451291421 20.41409452799946 0 0 0
221 1 21.93933590746582 67.05925988412017 20.93193803753616 0 0 0
284 1 24.891938821500577 70.39204905157605 15.199042352585693 0 0 1
1761 1 25.51083013196189 64.87801593441962 20.649197352705215 0 0 0
244 1 25.356921925321295 75.35121766784977 14.474395839669523 0 -1 -1
254 1 25.340297467672585 65.11538787183991 14.750397846146067 0 0 0
248 1 24.915013643723338 78.81493314563801 23.563291836165256 0 -1 -1
1609 1 25.678468028102543 73.03643925917555 8.348682718488572 0 0 0
214 1 20.981782924850236 60.94615882211563 7.912279789297596 0 0 0
1787 1 25.12647371374341 60.87647277523135 15.115757195184827 0 0 0
31 1 26.65267004888557 17.208557911589256 11.034178944795803 0 0 0
1740 1 28.542444364466707 3.3787607267309197 2.417211807309428 0 0 1
296 1 31.416318941474255 2.6575117555488887 1.8217365762519593 0 0 1
238 1 27.629425031248992 1.0978418662375313 0.749758147299268 0 1 1
344 1 38.49105950495948 0.812501292741253 0.1437484893728147 0 0 0
323 1 45.013996111684705 2.3530423493518167 3.4321683505593565 0 0 0
301 1 45.016369666954944 1.7072382653841027 22.685228592237742 0 0 0
1777 1 49.036374446864485 0.5339814392501654 1.4311855798292736 0 1 0
640 1 27.47948327833856 6.335859525148066 2.0513545873882704 0 0 1
649 1 32.979966897404545 4.379983472450359 3.694491008803042 0 0 0
295 1 34.57639326666889 6.68921324261761 3.2501421588142048 0 0 0
354 1 37.668472512371444 5.1521443554294395 2.5564034353691585 0 0 0
355 1 40.3506994109979 5.999488588414787 3.235141172635149 0 0 0
363 1 42.18550447272088 4.094898461469047 1.3400679138819644 0 0 0
644 1 46.708308364374545 5.061239458758355 1.3054366285058236 0 1 1
308 1 47.44362239092915 8.244023156699772 3.878547116912165 0 0 0
1540 1 50.878320657774864 3.064461581196101 0.972869877191483 0 0 1
1958 1 50.42958834451926 5.751589874051117 1.3767655713038347 0 1 1
29 1 29.25356084965419 8.041524278777294 0.7836955814782597 0 0 0
39 1 31.401760490486563 9.548949358719378 1.4937458995712618 0 0 1
672 1 33.507657630389176 7.5178773723157235 0.5389115450975024 0 0 1
307 1 36.648831829272325 8.43629254821888 2.366057248000048 0 0 0
298 1 35.003448181863284 10.577467054617763 0.6854207498856224 0 1 0
603 1 37.80001548001647 8.060590176723421 22.509442920244265 0 0 0
667 1 39.45963835258781 8.216613297175169 1.5468550667595333 0 0 1
677 1 44.05561702113869 5.491348371341938 2.853183639304171 0 0 1
310 1 45.12044386990828 8.121840437979968 2.1013538123305904 0 0 1
678 1 51.29809554592214 8.870557667616337 2.135961436521001 0 0 1
54 1 27.70884360016349 11.995159042153219 1.9229158916361597 0 0 0
46 1 27.571456971618314 9.934782193628148 23.670740080464277 0 0 -1
297 1 31.803751334577647 11.973790424680026 0.6011436411161031 0 0 0
371 1 37.58101331986676 14.58762848750225 0.858685122724363 0 0 0
440 1 42.104235984735254 10.238848633433692 2.140834818219951 0 0 0
329 1 39.38840705273224 11.752053011921095 1.7169914820541308 0 0 1
382 1 44.60418844138292 10.284594324530891 4.170212376281499 0 0 1
338 1 45.91600868536696 13.028262352463464 3.8163950916998894 0 0 0
332 1 49.44309191494874 10.2300204336939 3.8779881013776043 0 0 0
3 1 33.23082429469595 19.101794835581547 17.5869459713157 0 0 -1
634 1 28.93291080846946 15.938834595909016 1.454294973632766 0 0 0
23 1 30.0755336491371 13.442402007621743 2.210951436814193 0 0 0
361 1 34.763146438179554 14.036451633269413 0.401561503491718 0 0 -1
432 1 33.25759112594774 14.121364122997512 2.6164931731743413 0 0 0
320 1 37.997428255788584 16.674703208690467 2.5955544927908862 0 1 0
570 1 40.578128219707736 17.428795687123305 4.71677286491379 0 0 1
328 1 44.6291859702376 15.010520949459648 2.2360373869351524 0 0 1
330 1 48.501135062880095 12.571534109806592 2.8308139249178965 0 0 0
341 1 49.34887788146258 16.829070107344794 1.2758676490632457 0 0 1
503 1 50.52741154868781 14.716680863959864 2.35317209788055 0 0 1
379 1 27.822128014367628 16.924887206072977 3.8494214115300815 0 0 0
63 1 27.130947089680745 19.220038814831316 0.8787658884649878 0 0 0
711 1 37.001461540221165 18.86318579145667 23.067579434790794 0 0 -1
428 1 31.77493742106468 16.879871802951016 1.2146234332713381 0 0 0
393 1 35.979105820380205 18.382905255544657 1.7923417465301397 0 0 0
24 1 26.483978000579658 4.400364065255734 20.06719575034585 0 1 0
429 1 39.713161676591255 18.69555953977831 16.09905455374038 0 1 -1
659 1 46.152282071607566 16.80709159360427 4.024037337721197 0 0 0
712 1 48.36086344064962 18.177771317466448 3.582157541299863 0 0 1
26 1 27.07516131855056 19.960873802863397 15.144041343393578 0 0 0
235 1 29.735459750863377 1.5089426539143727 5.88401047365015 0 1 0
18 1 27.396293376377336 1.2988245923134227 4.121499583184896 0 0 0
343 1 34.34262420799133 2.7205207245522502 7.775701124015603 0 0 0
1647 1 34.69051009926089 2.6338041277853566 5.09992883446789 0 1 1
641 1 37.51425877076218 2.6591535056717257 4.425710189963896 0 0 0
1582 1 40.535789409941025 3.101758247509817 5.018876960727561 0 1 0
347 1 42.947171381808936 2.5379105114185596 8.349380341448505 0 1 0
313 1 50.2743622850253 0.7241725391501775 3.9594413368380317 0 0 0
424 1 48.27621198806447 1.5108879234242272 6.044359160699692 0 0 0
352 1 28.442305553421257 5.447484775110208 5.011147766483003 0 0 0
353 1 30.94160283989299 4.187557196224279 5.624147012678329 0 0 -1
408 1 30.996497109830255 7.519364341243069 5.148140203279329 0 0 0
351 1 33.68831157459185 8.608311447727278 5.314723082567814 0 0 1
342 1 36.128095205888606 5.6198098928740485 5.347403587943784 0 1 0
588 1 41.83398833174053 4.816977083588515 7.125358186797318 0 0 0
410 1 39.062624289100114 5.784415730707024 5.981705619180288 0 1 0
345 1 41.615749394735296 8.30650599011533 4.241210230206258 0 0 0
357 1 46.36746583223552 4.228671674111264 4.989484791792653 0 0 1
366 1 48.761575470515126 5.853175879904536 3.608857421102428 0 1 1
422 1 49.58191253651078 4.119402316610683 5.918157322994498 0 0 1
1950 1 36.275210603799074 0.1526717062646267 22.36877765672519 0 1 0
314 1 52.27116132519513 4.240366221491391 5.231230126214657 0 0 0
456 1 28.30642259726733 8.189441449753712 6.282296206099906 0 0 -1
421 1 32.25978216131721 11.755904564184329 7.717950668489747 0 0 0
487 1 39.789213532814536 8.28443697582045 6.194750631842105 0 0 0
356 1 43.956346471735316 8.427891501558838 6.030944125246022 0 0 0
358 1 46.5690154180282 7.961798414951247 7.215962033988113 0 1 1
41 1 27.01532419616069 10.329297231361084 4.205672309559489 0 1 0
56 1 30.37147160290895 9.877650674737977 4.244767716675506 0 0 0
45 1 30.149888407080624 12.037688292277627 6.163032499170244 0 0 0
365 1 34.256197156530035 11.656469766372226 5.8581802252633235 0 0 0
431 1 34.93481649312732 14.015269441938445 4.882828521280719 0 0 0
305 1 37.614568811574955 10.643305561657769 23.64007224147717 0 0 -1
362 1 37.44072155454039 9.362281424628717 4.910522655018243 0 0 0
339 1 38.894274275254816 11.428717860836226 4.200723769181132 0 0 0
364 1 45.89261944335233 11.285570386725707 6.787983979030051 0 0 0
374 1 48.60075057368809 11.427950662329811 6.448157416838658 0 0 0
48 1 27.128158073313504 0.9652892843271768 15.640783809677673 0 1 0
315 1 52.01106372030756 10.60436749441287 5.04222005077076 0 0 0
55 1 27.936138103456702 14.5755301521195 5.334023387031835 0 0 0
427 1 30.723531131956463 14.33224954483444 4.91657086260062 0 0 0
450 1 31.885848956661444 16.927098786884155 5.571714020018606 0 0 0
1010 1 37.82291202427073 14.317750602280446 4.114343069811073 0 0 1
396 1 38.86948294927306 15.306803877302702 6.326849632157688 0 0 0
610 1 41.349247911942676 14.010582103606623 5.174328205598612 0 0 0
372 1 42.59889644018808 14.345712726832428 7.504053990296773 0 0 0
383 1 45.018457455080615 18.34966853032497 6.308469316446027 0 0 0
309 1 46.71533738049314 14.838480159630146 5.880357961109519 0 0 1
333 1 49.44992632876893 14.23978499947173 6.722733160207494 0 0 0
688 1 51.11766091606382 15.888620541942766 4.966606913710435 0 0 1
448 1 29.34994825590558 18.475372297949335 5.761167769459239 0 0 0
497 1 34.20291151476932 16.869612896768015 3.4977049471569015 0 0 0
496 1 35.72310908817827 17.52517685468458 5.838866911107878 0 0 -1
717 1 41.422948109923794 19.965936631321647 6.157902853792569 0 0 1
505 1 38.13516841388185 18.4296170359489 6.574649695658956 0 0 0
710 1 42.565578571582584 17.059780617775917 7.1795503220387715 0 0 1
33 1 27.41850501566901 9.715986735333562 9.565611326068568 0 0 0
525 1 50.36501847966518 18.391475847973638 5.5199208866909055 0 0 1
466 1 33.89292978170303 0.23005269369050027 18.99925612443514 0 0 0
389 1 28.88769212304924 0.5945195282958288 8.360288681815799 0 0 1
670 1 27.667599702122086 15.354643814275374 14.624563508785947 0 0 -1
1712 1 36.24315071952558 4.767625766411383 8.75490990171655 0 0 -1
401 1 39.83535148991057 2.4915866044288455 9.256078510086244 0 1 1
403 1 42.16406141495919 3.42486489418771 11.18165168269764 0 1 1
1594 1 39.05742047194907 1.0513469400798001 6.59259283795512 0 0 1
483 1 50.17166803658243 1.404178277212087 8.227435172443748 0 0 0
9 1 26.779536396945087 4.402459032791138 9.045943503512598 0 1 0
567 1 31.41316856793109 7.56145161181415 7.905364719299061 0 1 0
465 1 32.344934338483924 4.954217683078397 7.905807633731583 0 1 0
299 1 34.706426191366134 6.907507783941529 7.304411592561403 0 0 0
474 1 35.17425323236586 6.337073211115194 10.726667718357053 0 0 0
291 1 39.01370906584167 5.165487101372335 8.765738735515388 0 0 0
467 1 39.9728827566107 6.974445547021006 10.653063382366687 0 0 0
346 1 44.125225508676586 5.725173856093204 5.753333856471685 0 1 0
423 1 45.389218806023976 2.8376242492487207 7.329468980276289 0 1 0
414 1 45.875217594392524 5.502572871443711 8.656120055843681 0 0 0
492 1 50.02214331534797 3.184767707312793 10.16530692373451 0 0 0
485 1 28.724642553193437 7.332611242154099 9.096927685550472 0 0 -1
224 1 26.898005677820326 0.4370174659107904 18.601885009172587 0 0 -1
463 1 32.32479779024357 9.48365081222992 9.80910742980532 0 1 1
478 1 35.120372350746244 9.086844966074345 10.309054618810379 0 0 1
468 1 36.151216567666495 9.539215939807221 7.257218815391887 0 0 0
531 1 38.8354303578097 9.196761988230847 8.746188557648107 0 0 0
611 1 42.86156078664568 9.754531347490849 8.54893683909937 0 0 0
385 1 47.34320783726401 9.652950299075492 9.449887977846565 0 0 0
367 1 48.743138572955665 5.1598299263327885 8.382409408511295 0 0 0
434 1 50.67103957940636 7.286027877651095 8.749849770328352 0 0 1
6 1 27.10983827254127 19.666592663919406 20.354555726849924 0 0 0
484 1 28.316776669170334 12.142775973751913 8.230418783630544 0 0 0
494 1 33.05740621364698 14.080216098370995 9.492307936337365 0 0 0
419 1 35.297348041267576 15.164246279236886 7.574763384348179 0 1 0
439 1 35.876460780481466 12.181534059101809 8.436242891696084 0 0 0
481 1 40.44276879409531 11.27127808587128 8.223708457947026 0 0 0
521 1 38.42421591035407 12.780576244427044 7.376853862516085 0 1 0