
# read in graphite data
read_data data.graphite group graphite extra/atom/types 1
Reading data file ...
  orthogonal box = (0.0000000 0.0000000 0.0000000) to (78.752000 80.861086 10.062000)
  3 by 4 by 1 MPI processor grid
  reading atoms ...
  7296 atoms
  reading velocities ...
  7296 velocities
  read_data CPU = 0.362 seconds

# Insert water
read_data data.Ibeam_MLmW_240K add append shift 0.0 0.0 ${Z_G} group water offset 1 0 0 0 0
read_data data.Ibeam_MLmW_240K add append shift 0.0 0.0 10.062 group water offset 1 0 0 0 0
Reading data file ...
  orthogonal box = (0.0000000 0.0000000 0.0000000) to (78.752000 80.861086 33.944269)
  3 by 4 by 1 MPI processor grid
  reading atoms ...
  2237 atoms
  reading velocities ...
  2237 velocities
  read_data CPU = 0.776 seconds


# Define potential
# CHECK ON THIS %%%%%%%%%%%%
#
pair_style sw
pair_coeff * * MLC_e.sw C mW


# Delete water and ice atoms that are overlapping
#
delete_atoms overlap 2.5 water graphite
System init for delete_atoms ...
Neighbor list info ...
  update every 1 steps, delay 10 steps, check yes
  max neighbors/atom: 2000, page size: 100000
  master list distance cutoff = 6.6747184
  ghost atom cutoff = 6.6747184
  binsize = 3.3373592, bins = 24 25 11
  2 neighbor lists, perpetual/occasional/extra = 1 1 0
  (1) command delete_atoms, occasional, copy from (2)
      attributes: full, newton on
      pair build: copy
      stencil: none
      bin: none
  (2) pair sw, perpetual
      attributes: full, newton on
      pair build: full/bin/atomonly
      stencil: full/bin/3d
      bin: standard
Deleted 111 atoms, new total = 9422

write_data test.${NAME}
write_data test.Ibeam_240K
System init for write_data ...
Neighbor list info ...
  update every 1 steps, delay 10 steps, check yes
  max neighbors/atom: 2000, page size: 100000
  master list distance cutoff = 6.6747184
  ghost atom cutoff = 6.6747184
  binsize = 3.3373592, bins = 24 25 11
  1 neighbor lists, perpetual/occasional/extra = 1 0 0
  (1) pair sw, perpetual
      attributes: full, newton on
      pair build: full/bin/atomonly
      stencil: full/bin/3d
      bin: standard


# Fix graphite atoms in place
#
fix 1 graphite setforce 0.0 0.0 0.0
velocity graphite set 0.0 0.0 0.0
velocity water create ${TEMP} 120598 rot yes dist gaussian
velocity water create 240 120598 rot yes dist gaussian
timestep 5.0

# Define output
#

compute 1 water msd
compute 2 water stress/atom NULL
compute 3 water temp

thermo 100
thermo_style custom step c_3 press vol etotal ke pe c_1[4] density

# Neighbor lists
#
neigh_modify delay 0 every 1 check yes




# Set fixes
#
fix                 2 water momentum 10 linear 1 1 1 rescale
fix                 3 all nve
fix                 4 water temp/csvr ${TEMP} ${TEMP} 500.0 928347
fix                 4 water temp/csvr 240 ${TEMP} 500.0 928347
fix                 4 water temp/csvr 240 240 500.0 928347

# Run 0.25 ns equilibration
#
dump                1 all custom 100 eq.${NAME}.dump id type x y z vx vy vz
dump                1 all custom 100 eq.Ibeam_240K.dump id type x y z vx vy vz
run                 50000
Per MPI rank memory allocation (min/avg/max) = 5.648 | 5.654 | 5.664 Mbytes
Step c_3 Press Volume TotEng KinEng PotEng c_1[4] Density 
       0          240    -718.2214    216156.16   -18997.377    1520.2131    -20517.59            0   0.96737059 
     100    264.61459   -818.11014    216156.16   -19150.614    1676.1274   -20826.742    1.3834436   0.96737059 
     200    263.86665    -257.0629    216156.16   -19344.233    1671.3898   -21015.623     2.682584   0.96737059 
     300    258.07011    18.489666    216156.16   -19475.923    1634.6732   -21110.596    4.0111638   0.96737059 
     400    255.30786   -263.82943    216156.16   -19583.396    1617.1765   -21200.572     4.860043   0.96737059 
     500    244.16472   -708.17411    216156.16   -19615.757    1546.5934   -21162.351    5.8051233   0.96737059 
     600    255.42669   -223.77365    216156.16    -19605.51    1617.9292   -21223.439    6.6749124   0.96737059 
     700    258.65442   -284.61263    216156.16   -19684.574    1638.3743   -21322.948     7.273602   0.96737059 
     800    244.11428   -426.70799    216156.16   -19715.204    1546.2739   -21261.478    7.6675856   0.96737059 
     900    252.39524   -458.85273    216156.16   -19776.403    1598.7273    -21375.13    8.6123423   0.96737059 
    1000    236.66227   -337.77892    216156.16   -19849.485    1499.0712   -21348.556    9.5861854   0.96737059 
    1100    245.45017   -205.66995    216156.16   -19855.554    1554.7357    -21410.29    10.251331   0.96737059 
    1200    238.28137   -391.32984    216156.16   -19885.177     1509.327   -21394.504    10.875971   0.96737059 
    1300    245.60603   -284.05404    216156.16   -19851.912    1555.7229   -21407.635    11.469495   0.96737059 
    1400    243.83244   -332.12511    216156.16   -19890.641    1544.4886    -21435.13    12.081904   0.96737059 
    1500     240.2332   -287.20998    216156.16   -19928.699    1521.6903   -21450.389    12.606914   0.96737059 
    1600     237.1504   -474.12493    216156.16   -19925.264    1502.1632   -21427.427    13.099233   0.96737059 
    1700    242.79451   -324.96504    216156.16   -19955.167    1537.9142   -21493.082    13.743104   0.96737059 
    1800    240.48041   -433.95758    216156.16   -19943.804    1523.2562    -21467.06    14.253943   0.96737059 
    1900    240.37146   -324.49107    216156.16   -19913.579    1522.5661   -21436.145    14.833531   0.96737059 
    2000    246.82497   -487.61819    216156.16   -19890.792     1563.444   -21454.236    15.385179   0.96737059 
    2100    239.66529   -271.98155    216156.16   -19965.557     1518.093    -21483.65    16.016919   0.96737059 
    2200     241.8375    -184.8928    216156.16   -19946.399    1531.8523   -21478.251    16.535894   0.96737059 
    2300    247.36513   -473.07264    216156.16   -19945.755    1566.8655    -21512.62    16.922211   0.96737059 
    2400    238.03575   -400.86324    216156.16   -19953.428    1507.7711   -21461.199    17.212014   0.96737059 
    2500     248.7361    -339.2708    216156.16   -19964.032    1575.5495   -21539.582    17.604008   0.96737059 
    2600    241.47913   -216.95114    216156.16   -19985.052    1529.5823   -21514.634    18.187043   0.96737059 
    2700    242.49804   -371.52721    216156.16   -19972.869    1536.0363   -21508.906    18.809696   0.96737059 
    2800    248.92848   -326.66619    216156.16    -19920.58    1576.7681   -21497.348    19.203017   0.96737059 
    2900    244.92062   -501.45077    216156.16   -19925.105    1551.3814   -21476.486    19.448046   0.96737059 
    3000    247.81577   -361.00375    216156.16   -19933.686    1569.7199   -21503.406    19.801872   0.96737059 
    3100    246.59869   -386.94528    216156.16   -19949.421    1562.0107   -21511.432    20.059557   0.96737059 
    3200    238.54315   -448.96209    216156.16   -20026.572    1510.9851   -21537.557     20.28653   0.96737059 
    3300    236.59579   -323.83796    216156.16    -20119.74    1498.6501    -21618.39     20.79712   0.96737059 
    3400    234.63083   -457.86872    216156.16   -20059.726    1486.2036    -21545.93    20.657105   0.96737059 
    3500    239.35071   -359.87482    216156.16    -20062.83    1516.1004    -21578.93    20.848542   0.96737059 
    3600    242.26256   -332.45446    216156.16   -20063.181    1534.5447   -21597.726    21.291549   0.96737059 
    3700    243.57596   -232.72189    216156.16   -20038.846     1542.864    -21581.71    21.719825   0.96737059 
    3800    239.41802   -405.50515    216156.16   -20043.854    1516.5268   -21560.381    22.232009   0.96737059 
    3900    237.80268   -329.61118    216156.16   -20053.088    1506.2948   -21559.383    22.962326   0.96737059 
    4000    238.01488   -398.77598    216156.16   -20071.449     1507.639   -21579.088    23.765429   0.96737059 
    4100    246.00171   -190.31602    216156.16   -20045.966    1558.2293   -21604.196    24.046162   0.96737059 
    4200    245.37095    -338.4362    216156.16   -20051.789    1554.2339   -21606.023    24.549267   0.96737059 
    4300    238.24818   -481.23877    216156.16   -20113.652    1509.1167   -21622.769    24.754403   0.96737059 
    4400    242.87043   -198.85532    216156.16    -20063.39    1538.3951   -21601.785    25.076699   0.96737059 
    4500    240.74312   -393.93416    216156.16   -20102.537    1524.9202   -21627.457    25.184439   0.96737059 
    4600    241.64194   -369.16727    216156.16   -20143.256    1530.6135    -21673.87    25.155488   0.96737059 
    4700    244.90939   -292.89994    216156.16   -20080.807    1551.3103   -21632.117    25.566675   0.96737059 
    4800     242.0086   -362.59967    216156.16   -20042.061     1532.936   -21574.997    26.235275   0.96737059 
    4900    246.52506   -237.79969    216156.16   -19998.634    1561.5443   -21560.178    26.514117   0.96737059 
    5000     237.0203   -433.72531    216156.16   -20064.129     1501.339   -21565.468    26.956589   0.96737059 
    5100    243.35434   -425.68645    216156.16   -20024.329    1541.4602   -21565.789    27.091411   0.96737059 
    5200     237.9769   -362.92807    216156.16   -20069.185    1507.3984   -21576.583    27.852256   0.96737059 
    5300    234.99856   -383.27671    216156.16    -20126.26    1488.5329   -21614.793    28.160946   0.96737059 
    5400    242.60995   -331.67355    216156.16   -20097.503    1536.7451   -21634.248     28.87904   0.96737059 
    5500    241.81458   -355.46246    216156.16   -20091.961    1531.7071   -21623.668    29.451742   0.96737059 
    5600    239.39029   -463.94838    216156.16   -20101.873    1516.3511   -21618.224    30.356562   0.96737059 
    5700    233.55864   -207.12567    216156.16   -20077.059    1479.4121   -21556.471    30.993002   0.96737059 
    5800    232.98503   -307.15486    216156.16   -20059.322    1475.7788   -21535.101    31.435322   0.96737059 
    5900    240.61484   -439.20045    216156.16   -20083.663    1524.1076    -21607.77    31.447066   0.96737059 
    6000    237.18287   -429.89396    216156.16   -20084.271    1502.3688    -21586.64    31.839958   0.96737059 
    6100    241.66945   -301.55145    216156.16   -20097.398    1530.7878   -21628.185    31.987969   0.96737059 
    6200    239.86297   -406.35795    216156.16   -20094.411    1519.3451   -21613.756    32.590735   0.96737059 
    6300    242.46999   -451.86559    216156.16   -20027.055    1535.8586   -21562.913     32.89881   0.96737059 
    6400    236.20407   -387.03716    216156.16   -20068.262    1496.1689   -21564.431    32.950513   0.96737059 
    6500    245.90317   -309.11688    216156.16   -20084.646    1557.6051   -21642.251     33.13846   0.96737059 
    6600    236.97584   -528.25989    216156.16   -20113.183    1501.0574   -21614.241    32.934896   0.96737059 
    6700    234.18851    -406.1331    216156.16   -20139.474    1483.4019   -21622.876    33.330728   0.96737059 
    6800     238.7466   -318.40737    216156.16   -20138.116    1512.2738    -21650.39    33.884819   0.96737059 
    6900    240.27257   -337.78315    216156.16    -20108.23    1521.9396   -21630.169    34.060242   0.96737059 
    7000    241.42651   -446.85993    216156.16   -20109.038     1529.249   -21638.287    34.288006   0.96737059 
    7100    239.25872   -257.86691    216156.16   -20120.504    1515.5177   -21636.022    34.618322   0.96737059 
    7200    232.48565   -348.58643    216156.16   -20175.572    1472.6156   -21648.187    34.814611   0.96737059 
    7300    235.12388   -241.95408    216156.16   -20207.346    1489.3267   -21696.673    35.223909   0.96737059 
    7400    234.62984   -240.18912    216156.16   -20175.974    1486.1974   -21662.172    35.558502   0.96737059 
    7500     240.7016   -464.89003    216156.16   -20147.032    1524.6572   -21671.689    35.891519   0.96737059 
    7600    246.60445   -353.50463    216156.16   -20092.971    1562.0472   -21655.019    36.139038   0.96737059 
    7700    241.46908   -248.95431    216156.16   -20125.672    1529.5186    -21655.19    36.481215   0.96737059 
    7800    243.56225   -396.90326    216156.16       -20187    1542.7772   -21729.777     36.28141   0.96737059 
    7900     236.1115   -419.23276    216156.16   -20146.732    1495.5825   -21642.315    36.337486   0.96737059 
    8000    245.35353    -316.4557    216156.16   -20096.117    1554.1236    -21650.24    36.553023   0.96737059 
    8100    244.66044   -216.03755    216156.16   -20088.629    1549.7334   -21638.362    36.891133   0.96737059 
    8200    236.29903   -367.21541    216156.16   -20112.062    1496.7704   -21608.833    37.176867   0.96737059 
    8300    243.64292    -258.3167    216156.16   -20071.687    1543.2882   -21614.975    37.811485   0.96737059 
    8400    239.40436   -194.46448    216156.16   -20038.899    1516.4402   -21555.339    38.248607   0.96737059 
    8500     241.7495   -369.84093    216156.16   -20080.065    1531.2949    -21611.36     38.35439   0.96737059 
    8600    238.65184   -400.55914    216156.16   -20073.778    1511.6736   -21585.451    39.099617   0.96737059 
    8700    238.17404   -301.76701    216156.16   -20100.773    1508.6471    -21609.42    39.672828   0.96737059 
    8800    231.02284   -305.61991    216156.16   -20094.486    1463.3498   -21557.836    40.549567   0.96737059 
    8900     239.8074   -179.90541    216156.16   -20109.098    1518.9931   -21628.091     40.94797   0.96737059 
    9000    242.66943   -330.87106    216156.16   -20077.201    1537.1219   -21614.323    41.185538   0.96737059 
    9100    236.95791   -337.31621    216156.16    -20091.47    1500.9439   -21592.414    41.464914   0.96737059 
    9200    245.64528   -347.90029    216156.16   -20049.537    1555.9716   -21605.508    41.851944   0.96737059 
    9300    237.58753   -364.59078    216156.16    -20114.87     1504.932   -21619.802    42.505489   0.96737059 
    9400    238.75649    -372.7975    216156.16   -20102.309    1512.3365   -21614.646    42.499297   0.96737059 
    9500    235.29243   -459.03342    216156.16   -20121.745    1490.3943    -21612.14    42.454178   0.96737059 
    9600     241.9327   -390.49738    216156.16   -20115.552    1532.4553   -21648.008    42.894642   0.96737059 
    9700    242.46838   -356.37382    216156.16   -20073.068    1535.8484   -21608.917    43.252057   0.96737059 
    9800    239.34309   -406.85512    216156.16   -20037.476    1516.0521   -21553.529    43.421815   0.96737059 
    9900    241.47143   -471.39034    216156.16   -20061.977    1529.5335   -21591.511    43.587433   0.96737059 
   10000     241.7282   -318.64418    216156.16   -20072.665    1531.1599   -21603.825    44.057034   0.96737059 
   10100     232.9917    -206.8389    216156.16   -20052.189     1475.821    -21528.01    44.486858   0.96737059 
   10200     244.0371   -284.77588    216156.16   -19994.228     1545.785   -21540.013    45.146777   0.96737059 
   10300    245.38529   -343.56136    216156.16    -19982.66    1554.3247   -21536.985    46.088511   0.96737059 
   10400    240.37791   -374.37354    216156.16   -19975.862    1522.6069   -21498.469    46.313796   0.96737059 
   10500    237.83969   -431.91003    216156.16    -20017.46    1506.5292   -21523.989    46.758393   0.96737059 
   10600    238.23524    -362.6439    216156.16   -20056.744    1509.0347   -21565.779    47.051447   0.96737059 
   10700    238.67415   -336.96842    216156.16   -20067.168    1511.8149   -21578.983    47.237713   0.96737059 
   10800    230.57629   -558.35946    216156.16   -20098.786    1460.5212   -21559.308    47.579485   0.96737059 
   10900    236.75107   -265.32117    216156.16   -20115.883    1499.6337   -21615.516    48.040201   0.96737059 
   11000     234.8845   -317.49517    216156.16   -20101.058    1487.8104   -21588.868    48.287444   0.96737059 
   11100    246.55436   -376.46565    216156.16   -20060.596    1561.7299   -21622.326    48.521703   0.96737059 
   11200    236.56417    -404.9979    216156.16   -20100.558    1498.4498   -21599.008    48.626359   0.96737059 
   11300    239.08867   -275.69605    216156.16    -20103.13    1514.4406   -21617.571    48.655167   0.96737059 
   11400    236.44981   -400.34881    216156.16   -20093.482    1497.7254   -21591.208    49.205782   0.96737059 
   11500    238.98541   -279.17047    216156.16   -20040.074    1513.7865    -21553.86    49.268329   0.96737059 
   11600    238.67515   -338.76489    216156.16    -20015.39    1511.8212   -21527.211    49.598088   0.96737059 
   11700    246.20674   -316.39034    216156.16   -19983.485     1559.528   -21543.013    50.255841   0.96737059 
   11800    243.13211   -400.59939    216156.16   -20004.162    1540.0526   -21544.215    50.879612   0.96737059 
   11900    236.15262   -364.45181    216156.16   -20013.487     1495.843    -21509.33    51.069508   0.96737059 
   12000     246.4156   -364.94774    216156.16   -19983.854    1560.8509   -21544.705    51.647547   0.96737059 
   12100    243.43362    -449.9639    216156.16   -20027.828    1541.9624    -21569.79    51.867287   0.96737059 
   12200    249.38944   -235.58052    216156.16   -19999.841    1579.6879   -21579.529    52.116809   0.96737059 
   12300    236.61538    -504.7207    216156.16   -20081.668    1498.7742   -21580.442    52.926377   0.96737059 
   12400    242.39044   -199.67259    216156.16    -20037.02    1535.3547   -21572.375    53.801747   0.96737059 
   12500    241.41763   -349.23846    216156.16   -20005.705    1529.1927   -21534.897    54.480165   0.96737059 
   12600    249.47976   -358.11028    216156.16   -19982.447    1580.2601   -21562.707    55.484046   0.96737059 
   12700    241.84248    -614.7438    216156.16   -19999.812    1531.8838   -21531.696    55.754564   0.96737059 
   12800    241.19853   -303.49034    216156.16   -20025.048    1527.8049   -21552.853    56.094738   0.96737059 
   12900    236.75154     -462.924    216156.16    -20057.56    1499.6367   -21557.197    56.200916   0.96737059 
   13000    241.05407   -343.19955    216156.16   -20052.404    1526.8898   -21579.293    56.280384   0.96737059 
   13100    233.22066   -357.21494    216156.16   -20044.253    1477.2713   -21521.524    56.564097   0.96737059 
   13200    240.24941   -406.13526    216156.16   -20053.761    1521.7929   -21575.554    56.987014   0.96737059 
   13300    238.55174   -342.99002    216156.16   -20079.049    1511.0395   -21590.088    57.289208   0.96737059 
   13400    236.06568   -296.62276    216156.16   -20122.412    1495.2923   -21617.704    57.696736   0.96737059 
   13500    243.62846   -318.47513    216156.16   -20077.837    1543.1966   -21621.034    58.100711   0.96737059 
   13600    234.73773   -418.56581    216156.16    -20102.32    1486.8807   -21589.201    58.432214   0.96737059 
   13700    237.71736   -297.76135    216156.16   -20116.932    1505.7544   -21622.686    58.532539   0.96737059 
   13800    243.68577   -402.22364    216156.16   -20081.756    1543.5596   -21625.315    59.403798   0.96737059 
   13900    241.18602   -353.75623    216156.16   -20095.338    1527.7257   -21623.064    59.659674   0.96737059 
   14000    241.02364   -233.37149    216156.16   -20026.967    1526.6971   -21553.664    60.445656   0.96737059 
   14100    244.99314   -389.12852    216156.16   -20064.817    1551.8408   -21616.658    60.968864   0.96737059 
   14200    241.21702   -397.72383    216156.16   -20084.848     1527.922    -21612.77    61.537498   0.96737059 
   14300    236.26074   -304.09395    216156.16   -20110.614    1496.5278   -21607.142    61.873564   0.96737059 
   14400    240.95492   -453.91741    216156.16   -20142.471    1526.2618   -21668.732    61.738997   0.96737059 
   14500    242.26336   -251.49235    216156.16   -20171.119    1534.5498   -21705.669    61.709392   0.96737059 
   14600    237.43169   -317.43094    216156.16   -20139.031    1503.9449   -21642.976    62.035821   0.96737059 
   14700    233.81999   -443.12071    216156.16   -20126.784    1481.0675   -21607.852    62.113684   0.96737059 
   14800    240.65597   -355.89706    216156.16   -20075.668    1524.3682   -21600.036    61.953825   0.96737059 
   14900    236.29016   -339.03391    216156.16   -20099.499    1496.7142   -21596.213    62.459311   0.96737059 
   15000    237.46934   -348.61208    216156.16   -20103.768    1504.1833   -21607.951    62.255842   0.96737059 
   15100    241.27481   -523.48537    216156.16   -20100.395    1528.2881   -21628.683    62.169775   0.96737059 
   15200    243.78805    -449.9665    216156.16   -20071.921    1544.2074   -21616.128    62.328452   0.96737059 
   15300    239.94553   -388.70727    216156.16   -20106.085    1519.8681   -21625.954    62.451021   0.96737059 
   15400    237.31355   -476.43969    216156.16   -20129.835    1503.1966   -21633.031    61.941635   0.96737059 
   15500    242.90487   -410.95162    216156.16   -20084.584    1538.6132   -21623.197    62.136194   0.96737059 
   15600    239.22242   -229.15156    216156.16   -20023.586    1515.2878   -21538.873    62.087967   0.96737059 
   15700    252.44893   -202.01843    216156.16   -20019.309    1599.0674   -21618.377    62.512052   0.96737059 
   15800    242.62519   -411.54064    216156.16   -20055.597    1536.8417   -21592.438    62.918463   0.96737059 
   15900    244.71655   -372.78438    216156.16   -20041.934    1550.0888   -21592.022    63.397058   0.96737059 
   16000    236.92099    -241.0431    216156.16    -20068.27      1500.71    -21568.98    63.320632   0.96737059 
   16100    239.49218   -270.20029    216156.16   -20094.227    1516.9965   -21611.224    63.374771   0.96737059 
   16200    243.52553   -461.40546    216156.16   -20060.917    1542.5446   -21603.462    63.527491   0.96737059 
   16300    240.71871   -384.23331    216156.16   -20086.933    1524.7656   -21611.699    63.602647   0.96737059 
   16400    243.55412   -174.78078    216156.16   -20098.018    1542.7257   -21640.744    63.944627   0.96737059 
   16500    237.88972    -312.0132    216156.16   -20053.223    1506.8462   -21560.069    64.336494   0.96737059 
   16600    243.78252   -364.69465    216156.16   -20030.738    1544.1725   -21574.911    64.398275   0.96737059 
   16700    246.01071   -377.06255    216156.16   -20036.406    1558.2863   -21594.693    64.595894   0.96737059 
   16800    238.69487   -277.40249    216156.16   -20075.254    1511.9461     -21587.2    64.712246   0.96737059 
   16900    240.29335   -409.12462    216156.16   -20087.738    1522.0713   -21609.809    64.876914   0.96737059 
   17000    239.97985   -480.80773    216156.16   -20102.491    1520.0855   -21622.576     65.06618   0.96737059 
   17100    238.04007   -508.19556    216156.16   -20070.415    1507.7985   -21578.213    65.327154   0.96737059 
   17200    241.42566   -375.80914    216156.16   -20093.339    1529.2436   -21622.583    65.416794   0.96737059 
   17300     234.2236   -242.70528    216156.16   -20119.859    1483.6241   -21603.483    65.687691   0.96737059 
   17400    235.80791   -384.35517    216156.16   -20154.673    1493.6595   -21648.332    65.740489   0.96737059 
   17500    247.45223   -350.08989    216156.16    -20108.28    1567.4172   -21675.697    66.259883   0.96737059 
   17600    242.11373   -391.77749    216156.16   -20110.735     1533.602   -21644.337    66.298246   0.96737059 
   17700    232.89025   -413.67544    216156.16   -20112.112    1475.1784    -21587.29    66.960885   0.96737059 
   17800    231.96623   -415.53494    216156.16    -20122.45    1469.3255   -21591.776    67.664848   0.96737059 
   17900    243.51139    -430.3334    216156.16   -20036.102     1542.455   -21578.557    67.850158   0.96737059 
   18000    239.34645   -327.41401    216156.16   -20064.835    1516.0734   -21580.909    68.059114   0.96737059 
   18100    240.22927   -322.34244    216156.16   -20024.998    1521.6654   -21546.663    68.381966   0.96737059 
   18200    240.79346   -350.39994    216156.16   -20060.719    1525.2391   -21585.958    68.885003   0.96737059 
   18300    248.53762   -427.70917    216156.16   -20017.778    1574.2923    -21592.07    68.828019   0.96737059 
   18400    242.51449    -379.4084    216156.16   -20046.777    1536.1405   -21582.917    69.454661   0.96737059 
   18500     241.3325   -430.70318    216156.16   -20054.622    1528.6535   -21583.275    69.901955   0.96737059 
   18600    243.43262   -317.41283    216156.16   -20035.866    1541.9561   -21577.822    70.209229   0.96737059 
   18700    242.24436   -330.30639    216156.16   -20042.686    1534.4294   -21577.115    70.718595   0.96737059 
   18800    245.25512    -488.6224    216156.16    -20086.59    1553.5002    -21640.09    70.635242   0.96737059 
   18900    240.81811   -195.45593    216156.16   -20070.851    1525.3952   -21596.246    70.942744   0.96737059 
   19000    238.00923   -241.63527    216156.16   -20034.934    1507.6031   -21542.537     70.71915   0.96737059 
   19100    244.74216   -635.55664    216156.16   -20027.639     1550.251    -21577.89    70.900004   0.96737059 
   19200    237.77717   -308.97441    216156.16   -20056.854    1506.1333   -21562.988    71.346242   0.96737059 
   19300    246.85903   -356.24133    216156.16   -20003.763    1563.6598   -21567.422    71.542459   0.96737059 
   19400    247.38233   -337.10426    216156.16   -20012.605    1566.9744    -21579.58    71.474513   0.96737059 
   19500    246.92631   -447.77513    216156.16   -20015.197    1564.0859   -21579.283    71.565486   0.96737059 
   19600    243.48804   -236.91396    216156.16   -20027.784    1542.3072   -21570.092     71.81656   0.96737059 
   19700    244.97394   -468.90456    216156.16   -20014.669    1551.7191   -21566.388    72.533755   0.96737059 
   19800    243.45189   -457.43549    216156.16   -20028.321    1542.0782   -21570.399    72.776247   0.96737059 
   19900    249.64088   -282.61984    216156.16   -20011.527    1581.2806   -21592.808    72.878011   0.96737059 
   20000    238.61083   -308.48022    216156.16   -20042.421    1511.4138   -21553.835    73.205876   0.96737059 
   20100    244.50343   -305.33816    216156.16   -20099.093    1548.7389   -21647.832    73.554948   0.96737059 
   20200    235.40914    -283.3387    216156.16   -20086.858    1491.1336   -21577.991    73.776417   0.96737059 
   20300    240.60019   -339.06135    216156.16   -20037.788    1524.0149   -21561.803    73.951502   0.96737059 
   20400    240.81159   -413.53675    216156.16   -20016.455    1525.3539   -21541.809    74.464384   0.96737059 
   20500    235.52798   -583.82179    216156.16   -20086.665    1491.8863   -21578.551    74.679163   0.96737059 
   20600    232.94693   -283.13505    216156.16   -20093.134    1475.5374   -21568.671    75.005049   0.96737059 
   20700    243.64521   -199.56378    216156.16   -20075.132    1543.3027   -21618.434    75.066784   0.96737059 
   20800    245.19515   -253.88223    216156.16   -20030.579    1553.1204   -21583.699    75.139458   0.96737059 
   20900    245.36411   -451.98996    216156.16   -20014.635    1554.1906   -21568.826    75.767073   0.96737059 
   21000    246.43075   -328.77074    216156.16   -20061.652    1560.9469   -21622.599    76.184595   0.96737059 
   21100    242.76757   -380.43088    216156.16   -20023.279    1537.7435   -21561.022    76.278842   0.96737059 
   21200    241.33968   -91.660294    216156.16   -20024.358    1528.6989   -21553.057    76.602031   0.96737059 
   21300    250.63632   -257.34722    216156.16   -20010.248    1587.5859   -21597.834    77.156105   0.96737059 
   21400    242.31305   -429.44746    216156.16   -20056.288    1534.8645   -21591.153    77.503864   0.96737059 
   21500    243.52637   -286.42403    216156.16   -20029.714    1542.5499   -21572.264    78.166414   0.96737059 
   21600    245.09759   -544.61028    216156.16   -19978.486    1552.5024   -21530.989    78.382515   0.96737059 
   21700    244.42902   -203.39639    216156.16   -20053.647    1548.2675   -21601.915    78.599274   0.96737059 
   21800    241.43742   -282.99551    216156.16   -20075.862    1529.3181    -21605.18    78.812228   0.96737059 
   21900     234.2426   -173.13964    216156.16   -20093.772    1483.7445   -21577.517    78.626562   0.96737059 
   22000    233.25996   -402.82244    216156.16   -20116.607    1477.5202   -21594.127    78.884408   0.96737059 
   22100    236.44185   -533.81261    216156.16   -20087.439     1497.675   -21585.114    79.052765   0.96737059 
   22200    234.12479   -330.21794    216156.16   -20152.137    1482.9982   -21635.135    78.929962   0.96737059 
   22300    241.95736    -251.0921    216156.16   -20123.748    1532.6115   -21656.359     78.91885   0.96737059 
   22400    243.28409   -291.75708    216156.16   -20083.385    1541.0153   -21624.401    79.378287   0.96737059 
   22500    242.35883   -455.49087    216156.16   -20077.198    1535.1545   -21612.353    79.733619   0.96737059 
   22600    242.22596   -482.20159    216156.16   -20080.336    1534.3129   -21614.649    79.830527   0.96737059 
   22700     239.4942   -451.17188    216156.16   -20114.983    1517.0093   -21631.992    80.063228   0.96737059 
   22800    244.98455   -341.80853    216156.16   -20073.336    1551.7864   -21625.122    80.307082   0.96737059 
   22900    239.60457   -396.57431    216156.16   -20129.379    1517.7084   -21647.088    80.378859   0.96737059 
   23000    238.66463    -403.1055    216156.16   -20134.702    1511.7546   -21646.456     80.51846   0.96737059 
   23100    237.31957   -364.36111    216156.16   -20108.625    1503.2347   -21611.859    80.973694   0.96737059 
   23200    237.70402   -251.53145    216156.16   -20088.511    1505.6699   -21594.181    81.247552   0.96737059 
   23300    245.81408    -354.9151    216156.16   -20088.263    1557.0408   -21645.304    81.625232   0.96737059 
   23400    243.51143   -459.27929    216156.16   -20090.488    1542.4553   -21632.943    81.785449   0.96737059 
   23500    245.86992   -444.92181    216156.16   -20083.514    1557.3945   -21640.909    81.962191   0.96737059 
   23600    241.17872   -195.86442    216156.16   -20020.672    1527.6794   -21548.352    82.651598   0.96737059 
   23700    248.57824   -269.69264    216156.16   -20012.252    1574.5496   -21586.801    82.568583   0.96737059 
   23800    243.41228   -385.21651    216156.16   -20012.149    1541.8273   -21553.976    82.769844   0.96737059 
   23900    242.42322   -135.52027    216156.16   -20079.606    1535.5623   -21615.169    83.079087   0.96737059 
   24000    243.03095   -303.36221    216156.16    -20073.42    1539.4118   -21612.832    83.118647   0.96737059 
   24100    245.00938   -474.42957    216156.16   -20076.751    1551.9436   -21628.694    83.485075   0.96737059 
   24200     235.9966   -309.95739    216156.16   -20090.982    1494.8547   -21585.836    83.529566   0.96737059 
   24300    236.59929    -234.9455    216156.16   -20132.635    1498.6723   -21631.307    83.671828   0.96737059 
   24400    237.77531   -298.50564    216156.16   -20138.028    1506.1214    -21644.15    83.867135   0.96737059 
   24500    240.43479   -493.19646    216156.16   -20138.794    1522.9672   -21661.761    84.180758   0.96737059 
   24600    231.93193   -451.79989    216156.16   -20158.201    1469.1082   -21627.309     84.36464   0.96737059 
   24700    238.65253   -352.31328    216156.16   -20173.422    1511.6779     -21685.1    85.268642   0.96737059 
   24800    240.62065   -318.43342    216156.16   -20178.974    1524.1445   -21703.118    85.537724   0.96737059 
   24900    237.54297   -586.28426    216156.16    -20184.15    1504.6498     -21688.8    85.915628   0.96737059 
   25000    241.28075   -343.34044    216156.16   -20198.025    1528.3257   -21726.351    86.151578   0.96737059 
   25100     232.7511   -284.60972    216156.16   -20231.162     1474.297   -21705.459    86.258645   0.96737059 
   25200    233.85463   -327.03615    216156.16   -20295.521     1481.287   -21776.807    86.492975   0.96737059 
   25300    230.69207   -533.79335    216156.16   -20258.324    1461.2547   -21719.579    87.188033   0.96737059 
   25400    231.86366   -328.33645    216156.16   -20188.922    1468.6758   -21657.598    87.297977   0.96737059 
   25500     238.2568    -214.2617    216156.16    -20141.44    1509.1713   -21650.611    87.419016   0.96737059 
   25600    241.32149   -398.82271    216156.16   -20042.554    1528.5837   -21571.138    87.297362   0.96737059 
   25700    250.47068   -343.83597    216156.16   -20093.845    1586.5367   -21680.381    87.753335   0.96737059 
   25800    249.81006   -239.97489    216156.16   -20069.538    1582.3522    -21651.89    88.318728   0.96737059 
   25900    242.89015    -339.6597    216156.16   -20064.207      1538.52   -21602.727    88.618208   0.96737059 
   26000    243.14034   -304.32386    216156.16       -20096    1540.1047   -21636.105    88.959863   0.96737059 
   26100    242.90224    -234.1252    216156.16   -20100.454    1538.5965    -21639.05    89.774563   0.96737059 
   26200    242.16525   -413.41441    216156.16   -20123.653    1533.9283   -21657.582    90.365383   0.96737059 
   26300    240.47004   -328.37884    216156.16   -20172.046    1523.1904   -21695.236    90.769001   0.96737059 
   26400    250.24515   -354.93594    216156.16   -20182.135    1585.1082   -21767.243    91.084113   0.96737059 
   26500    244.82277    -473.2894    216156.16    -20146.94    1550.7616   -21697.701    90.952879   0.96737059 
   26600    247.72482   -393.44688    216156.16   -20116.647    1569.1438    -21685.79    91.104317   0.96737059 
   26700    241.63032   -586.37785    216156.16   -20095.131    1530.5399   -21625.671    91.186003   0.96737059 
   26800     240.0558   -281.28239    216156.16   -20125.441    1520.5666   -21646.007    91.436214   0.96737059 
   26900    242.92482   -342.43526    216156.16   -20064.946    1538.7396   -21603.686    91.927199   0.96737059 
   27000    245.31131   -346.81069    216156.16   -20084.147    1553.8562   -21638.003     92.16716   0.96737059 
   27100    243.81688   -491.16208    216156.16   -20105.922    1544.3901   -21650.312    92.449922   0.96737059 
   27200    239.25259   -295.21855    216156.16   -20106.831    1515.4789    -21622.31    92.521441   0.96737059 
   27300    246.99895   -434.20929    216156.16   -20064.771     1564.546   -21629.317    93.341594   0.96737059 
   27400    242.65241   -447.94118    216156.16   -20081.798    1537.0141   -21618.812    93.877514   0.96737059 
   27500    238.70581    -502.7775    216156.16   -20140.907    1512.0154   -21652.922    94.111337   0.96737059 
   27600    236.09244    -388.4096    216156.16   -20202.476    1495.4618   -21697.938    94.782801   0.96737059 
   27700    243.83654   -235.32337    216156.16   -20178.439    1544.5146   -21722.953    94.807417   0.96737059 
   27800    242.29737   -477.23361    216156.16   -20126.123    1534.7652   -21660.889     95.58382   0.96737059 
   27900    239.23327   -429.34561    216156.16   -20174.514    1515.3565    -21689.87    95.904745   0.96737059 
   28000    238.89148    -352.5073    216156.16   -20199.597    1513.1915   -21712.788    95.740346   0.96737059 
   28100    237.15304   -493.43416    216156.16   -20203.815    1502.1799   -21705.995    96.117715   0.96737059 
   28200    244.21244   -307.31285    216156.16   -20208.409    1546.8957   -21755.305    96.758092   0.96737059 
   28300    239.24031   -399.76016    216156.16   -20219.959    1515.4011    -21735.36     97.16805   0.96737059 
   28400    240.43081   -333.08064    216156.16   -20195.905     1522.942   -21718.847    97.398351   0.96737059 
   28500    234.62812   -419.73803    216156.16   -20197.504    1486.1864   -21683.691    97.464593   0.96737059 
   28600    243.54514   -420.59879    216156.16   -20199.754    1542.6688   -21742.423    97.690131   0.96737059 
   28700    243.14185   -398.84218    216156.16   -20182.687    1540.1143   -21722.801    98.292704   0.96737059 
   28800    232.86931   -638.22128    216156.16   -20203.497    1475.0458   -21678.543    98.749178   0.96737059 
   28900    240.84889   -402.48432    216156.16   -20191.887    1525.5902   -21717.477    98.711559   0.96737059 
   29000    239.22817   -258.67663    216156.16    -20193.39    1515.3242   -21708.714    98.969941   0.96737059 
   29100    251.30152   -507.37698    216156.16   -20179.616    1591.7995   -21771.415    99.690729   0.96737059 
   29200    239.08784   -322.39947    216156.16   -20158.142    1514.4353   -21672.577    99.902378   0.96737059 
   29300    241.85617   -382.49499    216156.16    -20149.26    1531.9705    -21681.23    99.662095   0.96737059 
   29400    239.71587   -380.22704    216156.16    -20164.33    1518.4134   -21682.743    99.675334   0.96737059 
   29500    233.79336   -303.46798    216156.16   -20136.852    1480.8989   -21617.751    99.826806   0.96737059 
   29600    239.24952    -350.4003    216156.16   -20112.208    1515.4594   -21627.668    100.53411   0.96737059 
   29700    239.74562   -525.59007    216156.16   -20110.522    1518.6018   -21629.124    100.63771   0.96737059 
   29800    239.11884   -295.57054    216156.16   -20187.706    1514.6316   -21702.337    100.51749   0.96737059 
   29900    235.03782   -404.24542    216156.16   -20180.658    1488.7816   -21669.439    100.47924   0.96737059 
   30000    229.06609   -383.42947    216156.16   -20228.202    1450.9553   -21679.157    100.69416   0.96737059 
   30100    236.78309   -326.59125    216156.16    -20232.22    1499.8365   -21732.057    100.69924   0.96737059 
   30200     233.2297    -379.0381    216156.16   -20213.163    1477.3285   -21690.491    101.14858   0.96737059 
   30300    234.40825   -353.90123    216156.16   -20213.926    1484.7937   -21698.719    101.57217   0.96737059 
   30400    237.65006   -297.39396    216156.16    -20185.07    1505.3281   -21690.398    101.01288   0.96737059 
   30500    226.64234   -333.51953    216156.16   -20258.448    1435.6028   -21694.051    101.19615   0.96737059 
   30600    234.80363   -245.95037    216156.16   -20218.757    1487.2982   -21706.055    101.43142   0.96737059 
   30700    228.97762   -461.88937    216156.16   -20204.642    1450.3949   -21655.037    102.16311   0.96737059 
   30800    234.59756   -358.19605    216156.16   -20162.891    1485.9929   -21648.884    102.00157   0.96737059 
   30900     245.8649   -273.20634    216156.16   -20107.653    1557.3627   -21665.015    102.55895   0.96737059 
   31000    244.30824   -351.99898    216156.16   -20133.011    1547.5024   -21680.513    102.31419   0.96737059 
   31100    240.65101   -472.51186    216156.16   -20132.013    1524.3368    -21656.35    102.69178   0.96737059 
   31200    240.99626   -436.80161    216156.16    -20112.83    1526.5236   -21639.354    103.61502   0.96737059 
   31300    246.61936   -178.27683    216156.16   -20056.104    1562.1416   -21618.246    103.92122   0.96737059 
   31400    238.50686   -395.59681    216156.16   -20094.738    1510.7552   -21605.494    103.95379   0.96737059 
   31500    241.41525   -255.07283    216156.16   -20098.975    1529.1776   -21628.153    104.45106   0.96737059 
   31600    239.37245   -270.69398    216156.16   -20130.114    1516.2381   -21646.352    104.74309   0.96737059 
   31700    239.02426   -458.53826    216156.16   -20087.816    1514.0326   -21601.848    105.64551   0.96737059 
   31800    240.03949   -365.73698    216156.16   -20050.622    1520.4632   -21571.085    105.87027   0.96737059 
   31900     240.0294   -352.96045    216156.16    -20080.52    1520.3994   -21600.919    106.93849   0.96737059 
   32000    242.58847   -442.11578    216156.16    -20114.19    1536.6091   -21650.799    106.95419   0.96737059 
   32100    239.65268   -331.21604    216156.16   -20097.637    1518.0131    -21615.65    107.27505   0.96737059 
   32200    238.61885   -352.47102    216156.16   -20128.419    1511.4646   -21639.884    107.57941   0.96737059 
   32300    239.08697   -606.47888    216156.16    -20154.16    1514.4298    -21668.59    108.31051   0.96737059 
   32400    233.85081   -210.18986    216156.16   -20140.053    1481.2628   -21621.316    108.05478   0.96737059 
   32500    244.08682   -231.76409    216156.16   -20097.463       1546.1   -21643.563    108.30008   0.96737059 
   32600    242.92051   -378.98481    216156.16   -20075.349    1538.7123   -21614.061    108.75431   0.96737059 
   32700    239.91596   -356.37995    216156.16   -20101.396    1519.6808   -21621.076    109.20068   0.96737059 
   32800     241.0037   -378.45047    216156.16   -20071.141    1526.5708   -21597.712     109.8536   0.96737059 
   32900    239.76643   -183.19448    216156.16   -20057.433    1518.7336   -21576.166    110.15667   0.96737059 
   33000    242.31749    -457.5435    216156.16   -20051.315    1534.8926   -21586.208    110.29595   0.96737059 
   33100    238.84326   -392.27351    216156.16     -20056.2    1512.8861   -21569.086    110.72626   0.96737059 
   33200    238.13581   -379.33698    216156.16   -20073.946    1508.4049   -21582.351    110.89937   0.96737059 
   33300    248.16812   -283.11247    216156.16   -20036.583    1571.9518   -21608.535    111.53122   0.96737059 
   33400    235.60378   -266.46202    216156.16   -20093.305    1492.3665   -21585.672    112.01403   0.96737059 
   33500    233.01162   -493.75565    216156.16   -20113.391    1475.9472   -21589.338    112.24793   0.96737059 
   33600    238.10728   -398.52611    216156.16   -20115.686    1508.2242    -21623.91    112.52353   0.96737059 
   33700     242.5392    -348.1958    216156.16   -20121.046     1536.297   -21657.343    112.54236   0.96737059 
   33800    252.03765   -423.78134    216156.16   -20028.239    1596.4623   -21624.701    113.38601   0.96737059 
   33900    247.27701   -403.51261    216156.16   -20046.554    1566.3073   -21612.862    113.25213   0.96737059 
   34000    245.38724   -252.37648    216156.16   -20108.272    1554.3371   -21662.609    113.53526   0.96737059 
   34100    244.06599   -306.85365    216156.16   -20143.168     1545.968   -21689.136     113.9314   0.96737059 
   34200    241.78656   -446.30852    216156.16   -20142.865    1531.5296   -21674.394    114.01728   0.96737059 
   34300     238.8697   -318.34635    216156.16     -20145.1    1513.0535   -21658.154    114.55487   0.96737059 
   34400    236.70504   -429.81379    216156.16   -20187.714    1499.3421   -21687.056    114.96533   0.96737059 
   34500    251.31873   -400.43702    216156.16   -20144.315    1591.9085   -21736.224     115.2237   0.96737059 
   34600    243.05842   -454.82205    216156.16   -20089.159    1539.5859   -21628.744    115.38501   0.96737059 
   34700    243.32107    -282.1421    216156.16   -20088.751    1541.2495   -21630.001    115.41492   0.96737059 
   34800    233.67795   -485.31471    216156.16   -20151.261    1480.1678   -21631.429    115.60215   0.96737059 
   34900    237.38637   -263.24114    216156.16   -20146.082    1503.6578    -21649.74    115.57563   0.96737059 
   35000    233.91816   -349.42016    216156.16   -20172.364    1481.6894   -21654.054    115.96614   0.96737059 
   35100    241.39684   -311.32925    216156.16    -20136.54     1529.061   -21665.601    116.51547   0.96737059 
   35200    241.68834    -416.8013    216156.16   -20086.048    1530.9074   -21616.955    116.37932   0.96737059 
   35300    236.95746   -206.35325    216156.16   -20094.265     1500.941   -21595.206    116.44335   0.96737059 
   35400    242.58108   -387.12376    216156.16   -20095.587    1536.5623   -21632.149    117.18411   0.96737059 
   35500    232.61972   -349.13594    216156.16   -20137.964    1473.4648   -21611.429    117.60995   0.96737059 
   35600    246.04414   -299.52089    216156.16   -20094.589    1558.4981   -21653.087    118.14554   0.96737059 
   35700    246.73961   -348.86058    216156.16   -20087.051    1562.9033   -21649.955    118.75298   0.96737059 
   35800    241.24161   -500.79001    216156.16   -20034.042    1528.0778    -21562.12     119.6811   0.96737059 
   35900     237.1638   -293.03021    216156.16   -20072.162     1502.248    -21574.41    120.51696   0.96737059 
   36000     240.6702   -388.62916    216156.16   -20119.937    1524.4583   -21644.395     120.9113   0.96737059 
   36100     245.7449   -235.92144    216156.16   -20102.548    1556.6026   -21659.151      120.606   0.96737059 
   36200     236.4803   -327.17759    216156.16   -20143.303    1497.9186   -21641.221    119.97492   0.96737059 
   36300    234.00169   -359.07188    216156.16   -20168.961    1482.2185   -21651.179    120.41137   0.96737059 
   36400    239.50746   -613.73819    216156.16   -20130.875    1517.0933   -21647.968    120.37828   0.96737059 
   36500    243.37418   -388.10196    216156.16   -20104.624     1541.586    -21646.21    121.00688   0.96737059 
   36600    236.26984   -149.76765    216156.16   -20110.186    1496.5854   -21606.772     121.5351   0.96737059 
   36700    240.71601   -426.75251    216156.16   -20092.196    1524.7485   -21616.944    122.24476   0.96737059 
   36800    233.42629   -498.07506    216156.16   -20147.329    1478.5738   -21625.902    123.21853   0.96737059 
   36900    233.07247   -455.19646    216156.16   -20140.184    1476.3326   -21616.517     123.6723   0.96737059 
   37000    236.02277   -293.15132    216156.16   -20137.834    1495.0205   -21632.855    124.19219   0.96737059 
   37100    236.29795   -438.99867    216156.16   -20141.226    1496.7635   -21637.989    124.35594   0.96737059 
   37200    238.40954   -283.64803    216156.16     -20136.8    1510.1388   -21646.938    124.55184   0.96737059 
   37300    236.08546   -369.89508    216156.16   -20144.445    1495.4176   -21639.862    124.52954   0.96737059 
   37400    239.94191   -307.66517    216156.16   -20152.569    1519.8452   -21672.414    124.72657   0.96737059 
   37500    236.48699   -413.82415    216156.16   -20122.473     1497.961   -21620.434    125.50668   0.96737059 
   37600    234.79884    -597.4604    216156.16   -20180.994    1487.2679   -21668.262    125.70959   0.96737059 
   37700    238.25488   -248.42786    216156.16   -20194.132    1509.1592   -21703.292     125.4564   0.96737059 
   37800    234.39376   -327.47003    216156.16   -20208.216     1484.702   -21692.918    126.14006   0.96737059 
   37900    239.12979   -522.54888    216156.16   -20191.287     1514.701   -21705.988    126.16516   0.96737059 
   38000    239.71463   -548.85558    216156.16   -20151.647    1518.4056   -21670.052    126.27397   0.96737059 
   38100    247.97384   -380.06928    216156.16   -20139.193    1570.7212   -21709.914    126.64929   0.96737059 
   38200     238.5695   -296.09011    216156.16   -20120.312    1511.1521   -21631.464     127.2348   0.96737059 
   38300    240.33253   -455.25818    216156.16   -20086.458    1522.3194   -21608.778    128.04436   0.96737059 
   38400    254.42652   -466.65893    216156.16   -20069.884    1611.5939   -21681.478    128.04259   0.96737059 
   38500    239.79411   -263.00952    216156.16   -20117.926     1518.909   -21636.835    127.96791   0.96737059 
   38600     238.7329   -365.73213    216156.16   -20108.507     1512.187   -21620.694    127.69644   0.96737059 
   38700     243.8696   -455.83715    216156.16   -20079.727     1544.724   -21624.451     128.0275   0.96737059 
   38800    243.73849   -446.81997    216156.16    -20089.68    1543.8936   -21633.573    127.98648   0.96737059 
   38900    237.11452   -224.29946    216156.16     -20049.1    1501.9358   -21551.036    127.97609   0.96737059 
   39000    242.79193   -360.54975    216156.16   -20033.002    1537.8978     -21570.9    128.17787   0.96737059 
   39100    244.95389   -554.61677    216156.16   -20069.118    1551.5922    -21620.71     128.5198   0.96737059 
   39200    240.44889    -483.1455    216156.16   -20112.843    1523.0565   -21635.899    128.29412   0.96737059 
   39300    235.58633   -359.62286    216156.16   -20187.871     1492.256   -21680.127    128.72519   0.96737059 
   39400    238.91892   -372.91948    216156.16   -20136.285    1513.3653    -21649.65    128.65124   0.96737059 
   39500    245.04334   -447.13824    216156.16   -20099.933    1552.1588   -21652.092    129.21574   0.96737059 
   39600    240.51932    -319.5089    216156.16   -20084.628    1523.5026    -21608.13    129.05676   0.96737059 
   39700    243.64399   -325.49075    216156.16   -20096.776     1543.295   -21640.071    129.69483   0.96737059 
   39800    238.07013   -499.28815    216156.16   -20142.543    1507.9889   -21650.531    130.05929   0.96737059 
   39900     241.6775   -382.76996    216156.16   -20132.608    1530.8388   -21663.447    130.20553   0.96737059 
   40000    242.51728   -402.41901    216156.16   -20123.998    1536.1581   -21660.156     129.7716   0.96737059 
   40100    246.44798   -408.72756    216156.16   -20141.448     1561.056   -21702.504    129.15548   0.96737059 
   40200    240.79395   -244.55059    216156.16    -20149.89    1525.2422   -21675.132     129.0562   0.96737059 
   40300     239.2696   -274.41781    216156.16   -20206.841    1515.5866   -21722.427    129.56728   0.96737059 
   40400    237.80979    -396.3491    216156.16   -20195.475    1506.3398   -21701.815    129.64964   0.96737059 
   40500    237.47023   -411.52903    216156.16   -20145.892     1504.189   -21650.081    130.27928   0.96737059 
   40600    241.26885   -451.61681    216156.16   -20112.713    1528.2503   -21640.963    130.55943   0.96737059 
   40700       236.29   -286.80292    216156.16   -20192.565    1496.7132   -21689.278    130.65627   0.96737059 
   40800    235.49175    -546.2145    216156.16   -20193.432    1491.6569   -21685.088     130.4673   0.96737059 
   40900    238.49111   -297.52724    216156.16   -20182.749    1510.6555   -21693.404    130.70893   0.96737059 
   41000    238.70882   -229.71234    216156.16   -20181.346    1512.0345   -21693.381    131.06913   0.96737059 
   41100    238.01596   -435.88485    216156.16   -20201.431    1507.6458   -21709.077    131.95169   0.96737059 
   41200     233.2858   -319.96394    216156.16   -20118.219    1477.6839   -21595.903    133.04544   0.96737059 
   41300     239.7943    -456.5556    216156.16   -20132.154    1518.9102   -21651.064    133.27185   0.96737059 
   41400    243.94286   -452.89632    216156.16   -20131.813    1545.1881   -21677.001     133.6853   0.96737059 
   41500    239.46692   -299.89102    216156.16   -20132.943    1516.8365    -21649.78    132.89584   0.96737059 
   41600    246.50669   -319.55791    216156.16   -20128.773     1561.428   -21690.201    132.80635   0.96737059 
   41700     232.7802    -394.0946    216156.16   -20192.264    1474.4813   -21666.745    133.75412   0.96737059 
   41800     236.8646   -464.75157    216156.16   -20138.252    1500.3528   -21638.605     133.9142   0.96737059 
   41900    229.71691   -329.02586    216156.16   -20171.898    1455.0778   -21626.976    133.73492   0.96737059 
   42000    238.77617    -275.9305    216156.16   -20155.005    1512.4611   -21667.466    133.49899   0.96737059 
   42100    234.32645   -346.16099    216156.16   -20218.168    1484.2756   -21702.443    133.07685   0.96737059 
   42200    238.83825   -413.24075    216156.16   -20213.941    1512.8543   -21726.795    133.23169   0.96737059 
   42300    236.75078    -290.7347    216156.16    -20185.22    1499.6319   -21684.852    133.35945   0.96737059 
   42400    247.70732   -423.70689    216156.16   -20169.658     1569.033   -21738.691    133.57287   0.96737059 
   42500    239.25371   -307.11575    216156.16   -20191.749    1515.4859   -21707.235      133.182   0.96737059 
   42600    235.16941   -587.33198    216156.16   -20210.065    1489.6151    -21699.68    133.48703   0.96737059 
   42700    241.87924   -522.27403    216156.16   -20209.502    1532.1166   -21741.619    134.13648   0.96737059 
   42800    239.99739   -265.27272    216156.16   -20168.636    1520.1966   -21688.833    134.82735   0.96737059 
   42900    236.27015   -365.11088    216156.16   -20174.592    1496.5874   -21671.179    135.40963   0.96737059 
   43000    237.41334   -344.12706    216156.16   -20162.802    1503.8286   -21666.631    135.84532   0.96737059 
   43100    240.03366   -484.58747    216156.16   -20135.029    1520.4263   -21655.455    136.27545   0.96737059 
   43200     238.4175    -538.0149    216156.16   -20153.866    1510.1892   -21664.055    136.75238   0.96737059 
   43300    238.88027   -177.94561    216156.16   -20172.785    1513.1205   -21685.905     137.0605   0.96737059 
   43400    239.39508   -388.79338    216156.16     -20130.1    1516.3814   -21646.481    137.46215   0.96737059 
   43500    235.41556   -527.62744    216156.16   -20062.311    1491.1743   -21553.486    137.73667   0.96737059 
   43600    236.51283   -491.89979    216156.16   -20115.441    1498.1246   -21613.565    138.10669   0.96737059 
   43700    236.87121    -306.5189    216156.16   -20149.203    1500.3947   -21649.598    137.93983   0.96737059 
   43800    242.88287   -368.88408    216156.16   -20144.067    1538.4739   -21682.541     138.3847   0.96737059 
   43900    233.25948   -394.61953    216156.16   -20139.276    1477.5171   -21616.793    138.92596   0.96737059 
   44000    235.67122   -427.04162    216156.16   -20178.855    1492.7937   -21671.649    139.05895   0.96737059 
   44100    232.86128   -413.89251    216156.16   -20171.348    1474.9949   -21646.343     139.4041   0.96737059 
   44200    239.29364   -433.16105    216156.16   -20149.069    1515.7389   -21664.808    139.84262   0.96737059 
   44300    234.50594   -436.52622    216156.16   -20177.186    1485.4126   -21662.598    140.23243   0.96737059 
   44400    231.84397   -380.45204    216156.16   -20145.115    1468.5511   -21613.667    140.45139   0.96737059 
   44500    233.09752   -447.71935    216156.16   -20108.397    1476.4913   -21584.888    141.26273   0.96737059 
   44600    237.17726   -427.63413    216156.16   -20132.037    1502.3332    -21634.37    141.57203   0.96737059 
   44700    239.54065   -208.16306    216156.16   -20124.996    1517.3035   -21642.299    141.83815   0.96737059 
   44800    233.90726   -314.72872    216156.16   -20141.069    1481.6204   -21622.689    142.26187   0.96737059 
   44900    246.06425   -429.66148    216156.16   -20091.996    1558.6254   -21650.622    142.79302   0.96737059 
   45000    242.40084   -350.91817    216156.16   -20130.463    1535.4206   -21665.883    142.99883   0.96737059 
   45100    240.10711   -463.72057    216156.16   -20098.958    1520.8916   -21619.849    143.90141   0.96737059 
   45200    240.19163   -403.18641    216156.16    -20101.22    1521.4269   -21622.647    144.36581   0.96737059 
   45300    238.99897   -263.51289    216156.16   -20108.628    1513.8724     -21622.5    143.95905   0.96737059 
   45400    234.32266   -421.14908    216156.16   -20164.707    1484.2516   -21648.959    143.66195   0.96737059 
   45500    240.04285   -551.25889    216156.16   -20131.909    1520.4846   -21652.394    144.63111   0.96737059 
   45600    245.28096   -271.76331    216156.16   -20112.703    1553.6639   -21666.367    144.38616   0.96737059 
   45700    236.39754   -428.19669    216156.16   -20146.182    1497.3944   -21643.576    145.00228   0.96737059 
   45800    238.85132     -407.575    216156.16   -20120.642    1512.9371   -21633.579     145.7382   0.96737059 
   45900    240.82145   -365.07675    216156.16   -20107.505    1525.4164   -21632.921    146.21836   0.96737059 
   46000    244.53631   -431.48259    216156.16   -20062.855    1548.9471   -21611.803       146.74   0.96737059 
   46100     242.0993   -346.64796    216156.16   -20044.142    1533.5106   -21577.653    147.03537   0.96737059 
   46200     243.9606     -205.534    216156.16   -20032.415    1545.3004   -21577.715    147.22665   0.96737059 
   46300    242.65737   -268.14289    216156.16   -20051.265    1537.0455   -21588.311      148.162   0.96737059 
   46400    238.72649   -290.52332    216156.16   -20072.983    1512.1464    -21585.13    148.68857   0.96737059 
   46500    241.78128   -416.66124    216156.16   -20076.665    1531.4961   -21608.161     149.5452   0.96737059 
   46600    238.34262   -272.55224    216156.16   -20073.414    1509.7149   -21583.129    149.20481   0.96737059 
   46700    247.35124   -427.35375    216156.16   -20040.371    1566.7775   -21607.148    149.16016   0.96737059 
   46800    242.79115   -226.13734    216156.16   -20055.493    1537.8929   -21593.386    149.25756   0.96737059 
   46900    241.34774   -404.73539    216156.16   -20053.425      1528.75   -21582.175     149.5909   0.96737059 
   47000    245.36295   -369.46006    216156.16   -20039.351    1554.1832   -21593.534    149.78501   0.96737059 
   47100    237.50321   -315.52768    216156.16   -20069.659    1504.3979   -21574.057    149.53332   0.96737059 
   47200    240.69805   -411.27395    216156.16   -20132.956    1524.6347   -21657.591    150.37328   0.96737059 
   47300    238.96156   -487.62093    216156.16   -20099.608    1513.6354   -21613.243    151.08924   0.96737059 
   47400    239.44644   -325.31544    216156.16   -20105.967    1516.7067   -21622.673    151.18518   0.96737059 
   47500    240.58005   -314.15443    216156.16   -20105.921    1523.8873   -21629.809    151.27246   0.96737059 
   47600    238.45815   -323.43995    216156.16   -20099.662    1510.4467   -21610.109    151.48689   0.96737059 
   47700    240.11221   -534.99762    216156.16   -20098.662    1520.9239   -21619.586     152.0742   0.96737059 
   47800    242.18385   -308.67733    216156.16   -20090.916    1534.0461   -21624.962    151.81995   0.96737059 
   47900    239.16139   -274.48131    216156.16   -20114.045    1514.9012   -21628.946    151.76812   0.96737059 
   48000    233.65862   -389.46354    216156.16   -20101.979    1480.0454   -21582.024     151.9211   0.96737059 
   48100    235.96807   -391.68063    216156.16   -20133.074     1494.674   -21627.748    152.15467   0.96737059 
   48200    238.90504   -331.80101    216156.16   -20118.514    1513.2774   -21631.792    153.19845   0.96737059 
   48300    242.09095   -296.66669    216156.16   -20120.985    1533.4577   -21654.443    152.99626   0.96737059 
   48400    239.70219   -537.64956    216156.16   -20106.583    1518.3267   -21624.909    153.68232   0.96737059 
   48500    234.26109   -451.88197    216156.16    -20146.35    1483.8616   -21630.212    154.49844   0.96737059 
   48600    233.75619   -386.77065    216156.16   -20186.905    1480.6634   -21667.569    155.26669   0.96737059 
   48700    238.78047   -316.26121    216156.16   -20127.047    1512.4883   -21639.536     155.9185   0.96737059 
   48800    241.54978    -293.2885    216156.16   -20163.744    1530.0297   -21693.774    156.63354   0.96737059 
   48900    241.13395   -479.33289    216156.16     -20138.1    1527.3958   -21665.496    156.86169   0.96737059 
   49000    240.56148   -287.04425    216156.16   -20169.941    1523.7696    -21693.71    156.60012   0.96737059 
   49100    240.51579   -439.65087    216156.16   -20145.223    1523.4803   -21668.703    156.67507   0.96737059 
   49200    247.35712    -418.0971    216156.16   -20110.708    1566.8147   -21677.522    156.90471   0.96737059 
   49300    237.41455   -189.17101    216156.16   -20111.398    1503.8363   -21615.234    157.52362   0.96737059 
   49400    233.38482   -480.53964    216156.16   -20158.217    1478.3111   -21636.528    157.34142   0.96737059 
   49500    238.36264   -539.47142    216156.16   -20121.116    1509.8418   -21630.958    157.39425   0.96737059 
   49600    240.53985   -311.85801    216156.16   -20115.543    1523.6327   -21639.176    157.39496   0.96737059 
   49700    246.34511    -138.1867    216156.16   -20096.729    1560.4045   -21657.133    156.92442   0.96737059 
   49800    232.89646   -252.35521    216156.16   -20115.739    1475.2177   -21590.957    156.30856   0.96737059 
   49900    234.38474   -443.02689    216156.16   -20083.505    1484.6448    -21568.15     156.9512   0.96737059 
   50000    236.75711   -347.39292    216156.16   -20097.544    1499.6719   -21597.216    157.56299   0.96737059 
Loop time of 1667.63 on 12 procs for 50000 steps with 9422 atoms

Performance: 12.952 ns/day, 1.853 hours/ns, 29.983 timesteps/s
89.0% CPU use with 12 MPI tasks x no OpenMP threads

MPI task timing breakdown:
Section |  min time  |  avg time  |  max time  |%varavg| %total
---------------------------------------------------------------
Pair    | 31.633     | 70.615     | 141.15     | 583.3 |  4.23
Neigh   | 4.9343     | 6.5039     | 9.0504     |  66.0 |  0.39
Comm    | 748.43     | 819.69     | 877.52     | 165.5 | 49.15
Output  | 35.34      | 35.87      | 36.719     |   7.4 |  2.15
Modify  | 373.64     | 463.59     | 562.08     | 276.6 | 27.80
Other   |            | 271.4      |            |       | 16.27

Nlocal:        785.167 ave        1056 max         600 min
Histogram: 3 4 1 0 0 0 0 0 0 4
Nghost:        2380.50 ave        2791 max        2139 min
Histogram: 4 3 1 0 0 0 0 1 1 2
Neighs:        0.00000 ave           0 max           0 min
Histogram: 12 0 0 0 0 0 0 0 0 0
FullNghs:      79938.5 ave       98580 max       66502 min
Histogram: 2 4 1 1 0 0 0 0 2 2

Total # of neighbors = 959262
Ave neighs/atom = 101.81087
Neighbor list builds = 2896
Dangerous builds = 0

# Create data file for import to other simulations
#
write_data data.${NAME}
write_data data.Ibeam_240K
System init for write_data ...


Total wall time: 0:27:49
