
# Create simulation box
#
region 	     all block 0 ${XDIM} 0 ${YDIM} 0 ${ZDIM} units box
region 	     all block 0 78.752 0 ${YDIM} 0 ${ZDIM} units box
region 	     all block 0 78.752 0 80.86108639999017 0 ${ZDIM} units box
region 	     all block 0 78.752 0 80.86108639999017 0 24.0 units box
create_box          1 all
Created orthogonal box = (0.0000000 0.0000000 0.0000000) to (78.752000 80.861086 24.000000)
  3 by 4 by 1 MPI processor grid

# fill box with randomly distributed atoms of number density 0.0327 N/A**3
#
create_atoms        1 random 4998 63782 all
Created 4998 atoms
  create_atoms CPU = 0.084 seconds
mass                1 18.015

# Define potential
#
pair_style          sw
pair_coeff          * * ML.sw mW
Reading sw potential file ML.sw with DATE: 2019-02-27

# Run minimization
#
minimize            1.0e-8 1.0e-8 10000 1000
WARNING: Using 'neigh_modify every 1 delay 0 check yes' setting during minimization (../min.cpp:187)
Neighbor list info ...
  update every 1 steps, delay 0 steps, check yes
  max neighbors/atom: 2000, page size: 100000
  master list distance cutoff = 6.0032907
  ghost atom cutoff = 6.0032907
  binsize = 3.0016454, bins = 27 27 8
  1 neighbor lists, perpetual/occasional/extra = 1 0 0
  (1) pair sw, perpetual
      attributes: full, newton on
      pair build: full/bin/atomonly
      stencil: full/bin/3d
      bin: standard
Per MPI rank memory allocation (min/avg/max) = 4.211 | 4.214 | 4.218 Mbytes
Step Temp E_pair E_mol TotEng Press 
       0            0    8956112.7            0    8956112.7    5543432.6 
     665            0   -53951.277            0   -53951.277   -476.96306 
Loop time of 99.3617 on 12 procs for 665 steps with 4998 atoms

79.9% CPU use with 12 MPI tasks x no OpenMP threads

Minimization stats:
  Stopping criterion = max force evaluations
  Energy initial, next-to-last, final = 
      8956112.73862705  -53950.7763435281  -53951.2773644179
  Force two-norm initial, final = 1.8308590e+08 5.8472796
  Force max component initial, final = 94709337.0 1.4368910
  Final line search alpha, max atom move = 0.024804291 0.035641062
  Iterations, force evaluations = 665 1000

MPI task timing breakdown:
Section |  min time  |  avg time  |  max time  |%varavg| %total
---------------------------------------------------------------
Pair    | 0.72187    | 0.91255    | 1.0356     |  10.1 |  0.92
Neigh   | 0.01828    | 0.026297   | 0.040457   |   5.4 |  0.03
Comm    | 33.383     | 34.693     | 35.761     |  11.9 | 34.92
Output  | 0          | 0          | 0          |   0.0 |  0.00
Modify  | 0          | 0          | 0          |   0.0 |  0.00
Other   |            | 63.73      |            |       | 64.14

Nlocal:        416.500 ave         447 max         396 min
Histogram: 2 2 0 2 1 3 1 0 0 1
Nghost:        1048.42 ave        1083 max        1031 min
Histogram: 1 4 2 1 0 3 0 0 0 1
Neighs:        0.00000 ave           0 max           0 min
Histogram: 12 0 0 0 0 0 0 0 0 0
FullNghs:      11695.8 ave       13094 max       10772 min
Histogram: 3 0 2 1 1 1 3 0 0 1

Total # of neighbors = 140350
Ave neighs/atom = 28.081232
Neighbor list builds = 27
Dangerous builds = 0

# Add velocity/set timestep
#
velocity            all create ${TEMP} 120598 rot yes dist gaussian
velocity            all create 240 120598 rot yes dist gaussian
timestep            5.0

# Define output
#
compute	            1 all msd
thermo	            100
thermo_style        custom step temp press vol etotal ke pe c_1[4] density

# Neighbor lists
#
neigh_modify        delay 0 every 1 check yes

# Set fixes
#
fix                 1 all momentum 10 linear 1 1 1 rescale
fix                 2 all nve
fix                 3 all temp/csvr ${TEMP} ${TEMP} 500.0 928347
fix                 3 all temp/csvr 240 ${TEMP} 500.0 928347
fix                 3 all temp/csvr 240 240 500.0 928347
fix                 4 all press/berendsen z ${PRES} ${PRES} 1000.0 modulus 20000
fix                 4 all press/berendsen z 1 ${PRES} 1000.0 modulus 20000
fix                 4 all press/berendsen z 1 1 1000.0 modulus 20000

# Run 0.25 ns equilibration
#
dump                1 all custom 1000 whole.${NAME}.dump id type x y z vx vy vz
dump                1 all custom 1000 whole.Ibeam_MLmW_240K.dump id type x y z vx vy vz
run                 50000
Per MPI rank memory allocation (min/avg/max) = 3.462 | 3.464 | 3.469 Mbytes
Step Temp Press Volume TotEng KinEng PotEng c_1[4] Density 
     665          240    592.27729    152831.33   -50376.451    3574.8259   -53951.277            0     0.978289 
     700    120.90153   -173.67093    153077.68   -49783.052    1800.8413   -51583.893   0.16626978   0.97671465 
     800    176.35215   -179.42395    152880.13    -48602.83    2626.7842   -51229.614   0.55258688   0.97797675 
     900    198.02966   -184.49369    152879.78   -47948.785    2949.6731   -50898.458   0.98182512   0.97797899 
    1000    219.13226    -13.46627     152670.5   -47491.139    3263.9987   -50755.138    1.4507917   0.97931963 
    1100    228.21312   -6.0488559    152452.36   -47192.005     3399.259   -50591.264    1.9995938   0.98072086 
    1200     232.5433   -162.06122    152255.22    -47024.17    3463.7576   -50487.927    2.5137995   0.98199073 
    1300    238.68723   -207.83661    152065.86   -46860.482     3555.272   -50415.754    3.1119989   0.98321355 
    1400    239.81722   -62.382481    151982.54   -46860.235    3572.1034   -50432.339    3.6230693   0.98375254 
    1500    241.36949   -134.90378     151909.9   -46813.991    3595.2246   -50409.215    4.3273332   0.98422295 
    1600    239.48714   -251.55955    151667.76   -46841.724    3567.1867   -50408.911    5.1075908   0.98579428 
    1700    238.20184   -254.49201    151435.35   -46889.148    3548.0421    -50437.19    5.7504476   0.98730723 
    1800    239.57318   -260.29396    151352.03   -46863.215    3568.4684   -50431.683    6.3404192   0.98785073 
    1900    239.54149    99.702647    151117.07   -46860.704    3567.9963     -50428.7    6.9946825   0.98938669 
    2000    241.18609   -137.67896    151057.17   -46842.159    3592.4929   -50434.652    7.6140264     0.989779 
    2100    236.02515   -43.809883    150823.42   -46972.371    3515.6201   -50487.991    8.0896723     0.991313 
    2200    240.47024   -147.32977    150711.62   -46944.066    3581.8301   -50525.896    8.6968219   0.99204834 
    2300    243.96593    -79.22762    150616.43   -46905.872    3633.8988    -50539.77    9.2900022   0.99267535 
    2400    239.60098    159.12631    150684.13   -46938.144    3568.8825   -50507.027    9.7737435   0.99222934 
    2500    241.57724   -33.767278    150779.34   -46927.315     3598.319   -50525.634    10.352887   0.99160278 
    2600    244.74989   -55.918798    150768.99   -46829.769    3645.5759   -50475.345     10.93611   0.99167086 
    2700    243.20927    153.54059     150807.8   -46905.861    3622.6283   -50528.489    11.414935   0.99141565 
    2800    242.47271    58.999621    150663.28   -46941.742    3611.6571   -50553.399    11.794322   0.99236668 
    2900    239.56416    47.152512    150561.75   -46903.396     3568.334   -50471.731     12.29605   0.99303586 
    3000    245.08381   -276.58644    150508.98   -46875.723    3650.5497   -50526.273    12.686611   0.99338404 
    3100    240.83782   -26.331242    150375.19    -46889.06    3587.3053   -50476.366    13.125352   0.99426785 
    3200    241.80653    279.32246    150401.89   -46886.957    3601.7343   -50488.692    13.395125   0.99409132 
    3300    243.10822    251.91478       150472   -46894.034    3621.1232   -50515.157    13.645302   0.99362812 
    3400     238.9398    373.87035    150526.72   -46887.106    3559.0341    -50446.14    14.025696   0.99326695 
    3500    240.96425    65.228668    150716.31   -46769.976    3589.1884   -50359.165     14.38374   0.99201745 
    3600    241.95935     -213.069    150691.53   -46826.431    3604.0106   -50430.441    14.934236   0.99218059 
    3700     236.8925    150.91028    150740.49   -46832.721    3528.5394    -50361.26    15.478432   0.99185833 
    3800     239.0231   -116.72899    150597.02   -46818.074    3560.2749   -50378.349    15.884539   0.99280328 
    3900    236.74579   -414.47783    150409.74   -46934.432     3526.354   -50460.786    16.373146   0.99403947 
    4000    237.88585    144.46943    150312.26   -46933.864    3543.3354   -50477.199    17.039304   0.99468413 
    4100    239.32348    135.78597    150521.64   -46874.044     3564.749   -50438.793     17.64584   0.99330048 
    4200    242.48222    178.88381    150624.16   -46896.088    3611.7988   -50507.886    18.230442   0.99262441 
    4300    242.37129    70.447743    150856.95   -46892.886    3610.1464   -50503.033     18.96018   0.99109265 
    4400    241.59613   -120.23991    151040.58   -46908.459    3598.6004   -50507.059    19.675022   0.98988773 
    4500    240.31482    -74.58913    151151.01   -46898.317    3579.5151   -50477.832    20.226418   0.98916447 
    4600    242.79297    37.179444    151013.89   -46923.737    3616.4275   -50540.165    20.789269   0.99006268 
    4700    236.35953    34.897535    150798.88    -46953.94    3520.6007   -50474.541    21.090352   0.99147433 
    4800    239.38613   -152.92169    150809.71   -46895.437    3565.6823    -50461.12    21.599303   0.99140311 
    4900    241.62097   -91.713252    150753.68   -46908.329    3598.9704   -50507.299    22.114012   0.99177159 
    5000    240.80521    106.34691    150941.22    -46916.82    3586.8196    -50503.64    22.508048   0.99053934 
    5100    238.60639    38.319107    150962.52   -46957.121    3554.0678   -50511.189    22.997896   0.99039955 
    5200    238.46071    2.6258997    151183.87   -47009.333    3551.8979   -50561.231    23.534879   0.98894952 
    5300    238.61031   -57.055146    151083.48   -47003.205    3554.1262   -50557.331    24.069747   0.98960663 
    5400    243.36781    116.24777     151275.4   -46921.591    3624.9898   -50546.581    24.579272   0.98835111 
    5500    240.75347   -156.36868    151335.77   -46883.776    3586.0489   -50469.825    24.983188   0.98795687 
    5600    242.31895   -202.49187     151383.6   -46847.256    3609.3669   -50456.623    25.761102   0.98764475 
    5700    241.15894   -289.93071    151327.17    -46903.83    3592.0885   -50495.918    26.233422   0.98801305 
    5800    239.57674   -71.024787    151199.05    -46872.41    3568.5213   -50440.931    26.758315   0.98885023 
    5900    238.69356    6.0682602    151183.93   -47063.442    3555.3664   -50618.808    27.115727   0.98894912 
    6000     237.0293    67.266913    151228.69   -47090.469     3530.577   -50621.046    27.510442    0.9886564 
    6100    237.78658    246.03452    151130.02   -47028.679    3541.8568   -50570.536    27.840097   0.98930188 
    6200    241.49925   -23.336259    151098.78   -47077.767    3597.1574   -50674.924    28.198501   0.98950644 
    6300       235.87   -70.787736    150991.09   -47062.122     3513.309   -50575.431    28.581296   0.99021219 
    6400    243.32657    136.95165    151063.32   -47076.685    3624.3755    -50701.06    28.797321   0.98973867 
    6500      238.774    12.169233    151161.91   -47077.384    3556.5644   -50633.948    29.007222   0.98909317 
    6600     239.4885   -262.82516    151102.04    -47127.96    3567.2071   -50695.167    29.424125   0.98948508 
    6700    237.75575   -107.39925    150896.56   -47147.705    3541.3976   -50689.103    29.909423   0.99083252 
    6800    231.09105   -41.497217    150788.46    -47193.68    3442.1262   -50635.806     30.44015    0.9915428 
    6900    239.91073   -112.66558    150823.74   -47112.984    3573.4961   -50686.481    31.142709    0.9913109 
    7000    239.06497    41.882255    150734.39   -47012.284    3560.8985   -50573.183    31.655716   0.99189849 
    7100    238.63002    112.22502    150821.72   -47094.358    3554.4199   -50648.778    32.234719   0.99132412 
    7200    241.36423    304.82883    150958.39   -47111.748    3595.1462   -50706.894    32.687022   0.99042666 
    7300    233.79264   -98.006799    150974.38   -47106.149    3482.3666   -50588.516    33.072486   0.99032176 
    7400     234.9346    25.900821    150785.21   -47146.009    3499.3762   -50645.385    33.640757   0.99156419 
    7500    237.69037    167.51856    150794.52   -47016.033    3540.4237   -50556.457    34.020633   0.99150299 
    7600    240.18157   -351.10426    150839.03   -47038.108    3577.5303   -50615.639    34.330658   0.99121037 
    7700    239.24495   -43.256281    150566.82   -47008.266    3563.5794   -50571.846    34.603601   0.99300243 
    7800     236.7689   -12.835823    150434.09   -47017.681    3526.6983   -50544.379    35.017586   0.99387857 
    7900    234.62881    329.62586    150582.84   -47123.652    3494.8214   -50618.473    35.506873   0.99289676 
    8000     237.0328    182.36473    150679.66   -47098.892     3530.629   -50629.521    36.020544   0.99225878 
    8100    239.55496    120.24856    150832.42   -47014.969     3568.197   -50583.166    36.487196   0.99125381 
    8200    237.95846    71.231154    150829.28   -47017.451    3544.4169   -50561.868    36.756709   0.99127444 
    8300    240.72075    84.152913    150786.38   -46965.482    3585.5615   -50551.043    37.204667   0.99155652 
    8400    234.89037   -85.234263    150804.31   -47032.448    3498.7174   -50531.165    37.654935   0.99143859 
    8500     239.2266   -222.64662    150703.58   -47037.618     3563.306   -50600.923    38.201482   0.99210128 
    8600    236.59553    15.565828    150718.61   -47001.991     3524.116   -50526.107    38.895457   0.99200237 
    8700     237.3113    119.54897    150778.66   -46960.572    3534.7774   -50495.349    39.410384   0.99160723 
    8800    240.98413   -235.95101    150805.73   -46914.366    3589.4846   -50503.851    39.896808    0.9914293 
    8900    242.71002    16.132082    150804.73   -46934.366     3615.192   -50549.558    40.282192   0.99143583 
    9000    243.66219    89.835487    150871.83   -46845.076    3629.3745   -50474.451    40.727587    0.9909949 
    9100    241.57093    320.86782    151013.45   -46886.615     3598.225    -50484.84    41.093829   0.99006555 
    9200    239.33804    175.57872    151273.68   -46957.168    3564.9658   -50522.133    41.720873    0.9883624 
    9300    239.90097   -35.435575    151281.64   -46933.373    3573.3509   -50506.724    42.057074   0.98831036 
    9400    239.19857    172.09249    151268.91   -46964.886    3562.8885   -50527.775    42.195758   0.98839356 
    9500    238.76376   -65.940752    151377.66   -47012.781     3556.412   -50569.193    42.651953   0.98768347 
    9600    234.66644    -45.64311    151268.87   -47060.405    3495.3819   -50555.787    42.947309    0.9883938 
    9700    234.79068    139.23284    151380.16   -47026.495    3497.2326   -50523.727    43.424129   0.98766718 
    9800    242.39272    317.60767    151475.24   -47008.197    3610.4657   -50618.663    43.789647   0.98704722 
    9900    238.05644    118.64957    151507.83   -47002.336    3545.8763   -50548.213    44.374214   0.98683487 
   10000    236.56079    150.33289    151527.63   -47126.796    3523.5984   -50650.395    44.949422   0.98670596 
   10100    237.75747   -45.775704    151527.92   -47071.408    3541.4231   -50612.832    45.275833   0.98670409 
   10200    242.72449   -21.381036    151415.84   -47115.941    3615.4075   -50731.349    45.590842   0.98743445 
   10300    243.72573   -156.07263    151388.64   -47077.456     3630.321   -50707.777    46.016991   0.98761182 
   10400    244.10661    157.96765    151213.55   -47029.533    3635.9943   -50665.527    46.443114   0.98875538 
   10500     243.0555    89.430385    151068.24   -47017.807    3620.3378   -50638.145      47.0212   0.98970645 
   10600    244.48941     4.402739    151179.55   -46995.296    3641.6961   -50636.992     47.70133   0.98897778 
   10700    238.73212    109.55977    151308.31   -47004.084    3555.9407   -50560.024    48.170544   0.98813619 
   10800    241.27732    112.72292    151296.51   -46964.706    3593.8517   -50558.558    48.830103   0.98821322 
   10900    240.63638   -99.106242    151403.99   -46909.349    3584.3049   -50493.654    49.414584   0.98751169 
   11000    244.85626    19.720171    151397.21   -46950.406    3647.1604   -50597.566    49.999957   0.98755595 
   11100    239.30764   -106.81454    151195.74   -46974.455     3564.513   -50538.968    50.491393   0.98887186 
   11200    237.49673    -160.0145    151232.23   -46991.694    3537.5394   -50529.234    50.737595    0.9886333 
   11300    238.45164    84.656255     151281.8   -47010.273    3551.7629   -50562.036    51.075047   0.98830931 
   11400    239.10844   -20.987004    151300.71   -47023.701     3561.546   -50585.247    51.366197   0.98818578 
   11500    237.15054   -136.49363    151226.97    -47109.42    3532.3829   -50641.803    51.618674   0.98866763 
   11600    235.27196    -87.28545    151098.17   -47148.871    3504.4012   -50653.272    51.889756    0.9895104 
   11700    246.00132   -104.05155    151001.57   -47029.343    3664.2161   -50693.559    52.324583   0.99014345 
   11800    237.72818    148.87227    151118.16   -47071.332    3540.9869   -50612.319    52.838129    0.9893795 
   11900    235.42816    79.291206    151050.65    -47137.72    3506.7278   -50644.448    53.277542    0.9898217 
   12000    237.06433   -162.54099    150929.27   -47119.172    3531.0987   -50650.271    53.620539   0.99061775 
   12100    239.62494   -78.803678    151063.45   -47102.178    3569.2394   -50671.418    54.064287   0.98973787 
   12200    242.99807     72.47571    151077.87   -46972.723    3619.4824   -50592.205    54.368085   0.98964341 
   12300    245.51549   -49.746191       151128   -46979.131    3656.9798   -50636.111    55.027691   0.98931513 
   12400    242.29562      76.3686    150985.15   -46930.895    3609.0193   -50539.914    55.592162   0.99025113 
   12500    240.20441    201.42092    151044.08   -46967.282    3577.8707   -50545.152    56.156681   0.98986477 
   12600    242.62662    132.33966    151172.11   -46995.509    3613.9497   -50609.458     56.64693   0.98902644 
   12700    241.54051    185.39443     151332.7   -46953.612    3597.7719   -50551.383    57.214685   0.98797695 
   12800    238.32733   -283.67796    151326.24   -46998.322    3549.9113   -50548.234    57.700662    0.9880191 
   12900    237.82104    133.26209    151234.73   -47007.035      3542.37   -50549.405    58.366431    0.9886169 
   13000    237.29138   -240.57141    151147.92   -47045.753    3534.4806   -50580.234    58.982413   0.98918471 
   13100    239.94278    50.140474    151120.19   -46991.364    3573.9735   -50565.337    59.454524   0.98936624 
   13200    244.32385    309.26534    151175.52   -46899.073    3639.2302   -50538.303    60.169372   0.98900411 
   13300    241.98108   -76.340753    151267.02   -46914.514    3604.3343   -50518.848    60.799009    0.9884059 
   13400     242.7658    258.04949    151553.13    -46965.26    3616.0228   -50581.282     61.53426   0.98653993 
   13500    240.13495   -149.53907    151451.73   -46984.447    3576.8359   -50561.283    62.303529   0.98720042 
   13600    240.78765   -235.53352     151340.2     -46968.9     3586.558   -50555.458    62.691305   0.98792795 
   13700     241.8178    20.092809    151415.77   -46999.896    3601.9022   -50601.798    63.293645    0.9874349 
   13800    235.33062   -222.99651    151549.94   -47070.532     3505.275   -50575.807    64.126473    0.9865607 
   13900    238.04887   -10.820446    151411.67   -47046.139    3545.7636   -50591.902    64.865363   0.98746166 
   14000    234.02768   -206.23377     151329.8   -47091.563    3485.8676   -50577.431    65.301263   0.98799588 
   14100    237.27139   -42.606153    151249.94   -47067.437     3534.183    -50601.62    65.665435   0.98851749 
   14200    240.94759   -192.91779    151400.69   -47017.847    3588.9404   -50606.787    66.024569   0.98753324 
   14300    240.12562     271.3494    151476.59   -47073.202     3576.697   -50649.899    66.550609   0.98703842 
   14400    239.52815    24.918321    151473.83   -46984.339    3567.7976   -50552.137    66.986603   0.98705639 
   14500    238.92939    177.10522    151676.18   -47019.952     3558.879   -50578.831    67.179866   0.98573957 
   14600    242.10074    135.88764    151501.29   -46911.189    3606.1167   -50517.306    67.366069   0.98687747 
   14700    239.24193    21.214473    151546.29   -46913.465    3563.5344       -50477    67.844893   0.98658444 
   14800    244.67805   -150.50349    151311.75   -46973.599     3644.506   -50618.105    68.207479    0.9881137 
   14900    240.92745     -30.5211    151398.15    -46928.26    3588.6403     -50516.9    69.071071   0.98754979 
   15000    243.34022    139.53043    151252.72   -47036.215    3624.5788   -50660.794    69.509894   0.98849936 
   15100    236.07629    261.77574    151294.49    -47030.72    3516.3818   -50547.102    70.170882   0.98822641 
   15200    238.87227   -168.77766    151286.74   -47085.264    3558.0282   -50643.292    70.637383   0.98827704 
   15300    239.14366    122.02428    151114.39   -47000.054    3562.0706   -50562.125    71.124632   0.98940418 
   15400    243.23878   -119.26458    151089.33   -46893.444    3623.0678   -50516.512    71.551565   0.98956833 
   15500    239.29488    133.83122    151210.01   -46971.862    3564.3231   -50536.185    72.333791   0.98877854 
   15600    238.72198   -50.473148    151154.41   -47010.789    3555.7896   -50566.579    72.958424   0.98914227 
   15700    235.25624   -90.257185    151175.94   -47004.327     3504.167   -50508.494     73.56771   0.98900139 
   15800    238.93098    -34.48682    151181.72    -46997.88    3558.9026   -50556.783    73.896029   0.98896355 
   15900    243.29664   -53.714355    151082.48   -46966.599    3623.9298   -50590.529    74.574226   0.98961316 
   16000    236.42058   -68.671198    151129.68   -47018.128      3521.51   -50539.638    75.078921   0.98930409 
   16100    240.20598    201.97818    150915.45   -47024.489     3577.894   -50602.383    75.575883    0.9907085 
   16200    241.64983     152.8677    151071.07   -46881.033    3599.4003   -50480.433    76.282807   0.98968795 
   16300    240.29944   -230.78414    151087.95   -46861.402    3579.2861   -50440.688    77.128145   0.98957737 
   16400      240.248    101.04389    151059.25   -46833.854    3578.5198   -50412.374    77.767603   0.98976539 
   16500    245.09804   -155.56369    151196.67   -46854.532    3650.7617   -50505.294    78.510218   0.98886581 
   16600    243.10453    152.82228    151193.92    -46866.61    3621.0682   -50487.678    79.025394   0.98888375 
   16700    238.75238   -184.21104    151161.94   -46979.828    3556.2425   -50536.071    79.580294   0.98909297 
   16800    243.70755    60.721703    151233.36   -46954.124    3630.0503   -50584.174    80.186659   0.98862587 
   16900     242.3631    -300.2752    151291.08   -46963.246    3610.0245   -50573.271    80.659734   0.98824873 
   17000    237.79957    318.67253     151355.4   -46962.397    3542.0502   -50504.447    81.265433   0.98782876 
   17100    241.30088    111.38383    151389.84   -46980.777    3594.2026    -50574.98    81.542888   0.98760399 
   17200    245.60483    214.72288    151378.41   -46940.291    3658.3105   -50598.601      82.0071   0.98767857 
   17300    237.98558   -72.326349    151294.35   -46970.002    3544.8208   -50514.823    82.679765   0.98822733 
   17400    240.58739   -65.095671    151325.21   -46991.695    3583.5751    -50575.27    83.172963   0.98802585 
   17500    242.73534   -234.11113    151063.02   -46993.345     3615.569   -50608.914    83.503545   0.98974068 
   17600    240.17674   -6.2869978    150824.85   -47017.014    3577.4585   -50594.472    84.074726   0.99130361 
   17700    238.61431    146.91315    150795.43   -46950.992    3554.1859   -50505.178    84.553848   0.99149697 
   17800    238.53625   -127.79458    150747.29   -46986.918    3553.0232   -50539.941    85.172267   0.99181363 
   17900    238.62892    292.42371    150734.85   -47018.836    3554.4035   -50573.239    85.818594    0.9918955 
   18000     240.9267   -54.396014    150978.41   -47060.721    3588.6291    -50649.35    86.369841   0.99029533 
   18100    240.92613    -31.96658    150893.49   -47051.406    3588.6206   -50640.027    86.646995   0.99085262 
   18200    238.33395   -31.723344    150890.61   -46987.225    3550.0099   -50537.235    87.322405   0.99087157 
   18300    238.17664   -24.132686    150763.53   -47013.446    3547.6668   -50561.113    87.623768   0.99170678 
   18400    236.43377    171.15474    150678.34   -47047.167    3521.7065   -50568.873    88.148618   0.99226748 
   18500    238.52536    280.89347    150797.08   -46970.992     3552.861   -50523.853    88.912083   0.99148613 
   18600    235.55719    48.742183    150928.32   -46996.958    3508.6497   -50505.608    89.520936     0.990624 
   18700     244.8974    154.26107    150911.42   -46893.696    3647.7732   -50541.469    89.909555   0.99073495 
   18800    238.58562    166.21618    151061.92   -46946.238    3553.7586   -50499.997    90.341353   0.98974785 
   18900    241.31927    67.955984    151048.26   -46949.358    3594.4765   -50543.835    90.639967   0.98983736 
   19000    236.12705    9.3985869    151036.34    -46970.28    3517.1379   -50487.418    91.534537   0.98991549 
   19100    234.50251    42.822183    150922.67   -47006.934    3492.9402   -50499.875    91.775234   0.99066105 
   19200    240.54995    200.34626    150913.31   -46944.904    3583.0175   -50527.922    92.185406   0.99072255 
   19300    245.07068    167.00307    151014.89   -46955.399    3650.3542   -50605.753    93.124133   0.99005609 
   19400    242.11152   -241.11431    151031.73   -46978.931    3606.2772   -50585.208    93.518696   0.98994574 
   19500    242.58844   -70.632496    150985.43   -46929.687     3613.381   -50543.068    93.890616    0.9902493 
   19600    242.32319   -152.57776    151020.47   -46890.713      3609.43   -50500.143    94.934706    0.9900195 
   19700    241.08211   -306.04758    150966.49    -46908.83     3590.944   -50499.774    95.655059   0.99037354 
   19800    239.45836   -45.194145    150876.67   -46937.126    3566.7581   -50503.884    96.229165   0.99096313 
   19900    242.99731   -31.493036    150738.18   -46882.329    3619.4711     -50501.8    96.269378   0.99187354 
   20000    241.03308   -220.01436    150627.04    -46859.76    3590.2138   -50449.973    96.566725   0.99260543 
   20100    243.19034   -72.026216    150591.61   -46886.016    3622.3463   -50508.362    97.128259   0.99283892 
   20200    240.22152    132.78945    150682.61   -46851.422    3578.1254   -50429.547    98.024466   0.99223935 
   20300    240.64803    -192.3432    150713.16   -46813.087    3584.4783   -50397.566    98.570767   0.99203824 
   20400    240.17876   -18.052363    150686.52   -46845.669    3577.4885   -50423.158    99.081114   0.99221358 
   20500    241.36635    379.71055     150740.4   -46804.618    3595.1778   -50399.796     99.41227   0.99185892 
   20600    240.76222   -79.105934    150715.78   -46880.789    3586.1793   -50466.969    100.06749   0.99202096 
   20700    239.20987   -122.22502    150706.27   -46910.766    3563.0568   -50473.822    100.75198   0.99208355 
   20800     235.7983   -161.70745    150860.75   -46935.816    3512.2412   -50448.057    100.94428   0.99106768 
   20900    233.25128    62.397249     150824.2   -46930.345     3474.303   -50404.648    101.79592   0.99130783 
   21000      241.141    61.805627    150965.63   -46851.352    3591.8211   -50443.174    102.29707   0.99037918 
   21100    240.04107    30.350727    150960.89   -46939.811    3575.4376   -50515.249    103.07192   0.99041028 
   21200    240.47628     98.04247    151115.25   -47060.928    3581.9202   -50642.848    103.65177   0.98939855 
   21300    241.35421    91.305574     151185.9    -47099.82     3594.997   -50694.817    104.14427   0.98893624 
   21400     240.1049    129.83946    151338.54   -47036.617    3576.3884   -50613.005    104.67019   0.98793881 
   21500    237.70661    -217.5845    151311.92   -46991.835    3540.6656     -50532.5    105.21845   0.98811257 
   21600    242.19453    261.96099    151327.43   -47038.246    3607.5136   -50645.759    105.83288   0.98801135 
   21700    242.12424    1.8950823     151320.6   -46986.833    3606.4667     -50593.3    105.90996   0.98805595 
   21800    241.27155    -27.31611    151243.76   -47003.002    3593.7658   -50596.768    106.12159   0.98855792 
   21900    243.26351   -17.625154    151121.55   -46954.538    3623.4361   -50577.975    106.04693   0.98935737 
   22000    239.57515    139.91608    151081.48   -47014.853    3568.4977    -50583.35     106.3717   0.98961976 
   22100    243.39776    194.96507    151287.34   -46960.253    3625.4359   -50585.689    107.07651   0.98827316 
   22200    241.29284    81.990736    151241.83   -46945.189    3594.0828   -50539.272    107.78392   0.98857052 
   22300    241.46783   -5.0680835    151144.66   -46967.518    3596.6893   -50564.207    108.31037   0.98920607 
   22400    241.82524    111.35132    151007.43   -46999.902     3602.013   -50601.915    108.54749   0.99010499 
   22500    241.00739    53.609459    150942.58   -47029.805     3589.831   -50619.636    109.05895   0.99053041 
   22600    236.77035   -65.336361    151057.09   -47028.449    3526.7199   -50555.169    109.69964    0.9897795 
   22700    242.79265    154.27681    151120.88   -46999.971    3616.4228   -50616.394    110.11831   0.98936171 
   22800    235.93589   -72.020604    151195.55   -47106.816    3514.2905   -50621.107    110.82984   0.98887314 
   22900    238.67721    38.537294    151280.51    -47067.89    3555.1228   -50623.013    111.35658   0.98831774 
   23000     245.5757    237.05996    151220.62   -46975.541    3657.8765   -50633.417    111.78212   0.98870917 
   23100     243.4633       102.01    151422.25   -46993.142    3626.4121   -50619.555    112.38639   0.98739261 
   23200    239.76128   -95.575972    151303.68   -47004.278    3571.2702   -50575.548    113.40342   0.98816641 
   23300     235.3652   -64.373723    151278.82   -47091.822      3505.79   -50597.612    113.70073   0.98832877 
   23400     237.7344   -26.972737    151245.71   -47059.833    3541.0794   -50600.912    114.00976   0.98854515 
   23500    241.12667    31.833233    151220.94   -47056.483    3591.6077   -50648.091      114.315   0.98870706 
   23600    241.50562    61.142266    151151.12   -47094.772    3597.2522   -50692.024    114.25765   0.98916378 
   23700     238.8676    144.59002    151322.42   -47128.374    3557.9587   -50686.332    114.76433   0.98804405 
   23800    237.98913   -74.247546    151401.63    -47079.92    3544.8738   -50624.794    114.94992   0.98752712 
   23900    239.61384    178.00067    151305.17   -46988.526     3569.074     -50557.6    115.35241   0.98815671 
   24000    242.02223    196.55175     151479.1   -46976.067    3604.9472   -50581.014    116.02588   0.98702204 
   24100    240.94952    91.816955    151357.18   -46993.724     3588.969   -50582.693    116.54524   0.98781711 
   24200    245.75832   -136.10443    151465.01   -46925.504    3660.5967   -50586.101    117.16486   0.98711385 
   24300    240.77941    53.658392    151487.89   -46951.595    3586.4353    -50538.03    117.91202    0.9869648 
   24400    240.48442    80.383234    151318.15   -46916.687    3582.0414   -50498.728    118.45388   0.98807191 
   24500    242.48503   -5.0140266     151314.8   -46946.888    3611.8406   -50558.728    118.74389   0.98809378 
   24600      239.455    85.273193    151250.88   -46966.784     3566.708   -50533.491    119.26235   0.98851134 
   24700    239.23492    16.605549     151197.2   -46943.784    3563.4299   -50507.214    119.42925    0.9888623 
   24800    237.28995   -92.647014    151139.23   -46959.368    3534.4594   -50493.827    119.63088   0.98924162 
   24900    236.87048    83.320831    151068.52   -47027.249    3528.2114   -50555.461    120.05698   0.98970462 
   25000    241.50273   -136.11221    150855.22   -47049.613    3597.2092   -50646.822      120.562   0.99110405 
   25100    235.53136     82.85553    150780.62   -47063.271     3508.265   -50571.536    121.15211   0.99159438 
   25200    234.48916    208.13605    150821.19   -47053.839    3492.7413    -50546.58    121.60782   0.99132764 
   25300    240.45641    53.701191    150838.64    -47071.97    3581.6241   -50653.595    122.36852   0.99121293 
   25400    238.59509   -137.22174    150813.07   -47024.148    3553.8996   -50578.048    123.45743   0.99138098 
   25500    238.59404    -42.36456    150701.98   -47034.026    3553.8839    -50587.91    124.42834   0.99211183 
   25600    239.60544   -31.132045    150727.48   -47079.289    3568.9489   -50648.238    125.05951   0.99194397 
   25700    237.66471   -273.27514    150762.85   -47076.157    3540.0415   -50616.199    125.71651   0.99171125 
   25800    237.21737   -171.02324    150699.39    -47158.02    3533.3783   -50691.398    126.47115   0.99212885 
   25900    234.60655    137.73054    150789.15   -47206.297    3494.4899   -50700.787    126.93662   0.99153826 
   26000    237.05672    245.95568    151112.87   -47085.815    3530.9855   -50616.801     127.6395   0.98941414 
   26100    237.56453   -85.312636    151230.22   -47089.581    3538.5492   -50628.131    128.01755   0.98864644 
   26200    236.42122    143.36178    151240.31    -46992.06    3521.5195   -50513.579    128.14826   0.98858044 
   26300     243.7237    35.063719    151295.25   -47037.201    3630.2908   -50667.492    128.40969   0.98822147 
   26400    242.50949   -91.349648    151289.05   -47037.077    3612.2049   -50649.282    129.00661   0.98826194 
   26500    241.56344   -167.52811     151168.7   -46896.347    3598.1135   -50494.461    129.28715   0.98904878 
   26600    242.26997    25.810417    151218.61    -46984.61    3608.6373   -50593.247    129.74362   0.98872231 
   26700    244.42125   -138.34762    151072.18   -46914.624    3640.6808   -50555.304    129.96545   0.98968068 
   26800    240.20049    207.06405    151080.62   -46955.802    3577.8121   -50533.614    130.59388   0.98962538 
   26900    238.94869   -20.799475     151005.2   -47068.054    3559.1665   -50627.221     130.8635   0.99011964 
   27000    235.99989    59.436949    150894.98   -47063.506    3515.2437    -50578.75    131.48187   0.99084286 
   27100    235.04179    -6.035732    150975.92   -46986.509    3500.9728   -50487.482    132.03934   0.99031167 
   27200    243.37578    207.49027    150981.44   -46964.676    3625.1085   -50589.784    132.50885   0.99027546 
   27300    242.27653   -64.296515    151055.47   -46936.815     3608.735    -50545.55    133.11641    0.9897901 
   27400    242.35811    137.02086    151042.32   -46929.327    3609.9501   -50539.277     133.9212   0.98987629 
   27500     239.5675    112.58076    151199.43   -46985.669    3568.3837   -50554.053    134.40201   0.98884773 
   27600    242.40615    103.90881    151205.97    -46920.78    3610.6658   -50531.445    134.42439   0.98880495 
   27700    244.61178   -192.04743    151145.23   -46929.019    3643.5188   -50572.538     134.9379   0.98920234 
   27800     245.2306   -19.624261    151061.86   -46932.546    3652.7362   -50585.282     135.4938   0.98974828 
   27900    238.91668    104.91136     151035.5   -46938.119    3558.6898   -50496.809    136.25066   0.98992098 
   28000    244.03784    75.528838    151137.46   -46863.559      3634.97   -50498.529    136.78539   0.98925319 
   28100    242.02917    109.87322    151164.44   -46922.081    3605.0506   -50527.131    136.96202   0.98907665 
   28200    240.72505    -94.77884    151125.95   -47040.179    3585.6256   -50625.804    137.10059   0.98932854 
   28300    238.62163   -189.85253    151152.23   -47036.862    3554.2949   -50591.157    137.48629   0.98915653 
   28400    240.27878    87.465702    151060.92   -46954.418    3578.9783   -50533.396     137.9207   0.98975442 
   28500    237.42706     214.2767    151108.95   -46999.761    3536.5017   -50536.262    138.53629   0.98943981 
   28600    238.25835   -54.998435     151343.2   -47024.933    3548.8839   -50573.816    139.17882   0.98790837 
   28700    234.48589   -40.159077    151417.69    -47103.41    3492.6927   -50596.102    139.94915   0.98742235 
   28800    238.18273     167.6506     151486.3   -47042.206    3547.7574   -50589.963    140.64885   0.98697514 
   28900     239.5125    -25.69257    151400.99    -47037.41    3567.5645   -50604.974    140.90162   0.98753131 
   29000    240.73691     -109.693    151301.18    -47036.27    3585.8022   -50622.072    141.25948   0.98818272 
   29100    240.93307    -135.9098    151296.18    -47020.74    3588.7241   -50609.464    142.04959    0.9882154 
   29200    238.42637   -236.25207    151181.77   -47086.552    3551.3865   -50637.939    142.69704   0.98896325 
   29300    238.23689    114.74497    151186.02   -47060.341    3548.5642   -50608.905    142.99314   0.98893541 
   29400    240.35567    94.932092    151350.44    -47097.79    3580.1236   -50677.914    143.63154   0.98786113 
   29500    241.16169    54.474947    151470.89   -47060.689    3592.1294   -50652.818    143.85858   0.98707556 
   29600    241.75843    40.680992     151589.9   -47066.043    3601.0178   -50667.061    144.06639   0.98630064 
   29700    241.05098   -172.58216    151547.46   -47056.476    3590.4804   -50646.956    144.70285   0.98657684 
   29800    239.85182   -238.98368    151436.63   -46994.862    3572.6188   -50567.481     145.2562   0.98729888 
   29900    242.10041   -99.609517    151300.45   -46998.687    3606.1117   -50604.798    145.37126   0.98818752 
   30000    243.66161   -329.54646    151243.34   -47002.893     3629.366   -50632.259    145.47392   0.98856067 
   30100     243.8009    3.3194055    151314.26   -46979.996    3631.4406   -50611.437    146.20551   0.98809733 
   30200    242.77377   -83.048849     151075.7   -46977.896    3616.1415   -50594.038    146.68061   0.98965757 
   30300    243.06352    -2.275118    151037.25    -46953.79    3620.4573   -50574.248    147.00016   0.98990955 
   30400    235.58642   -44.758191    151029.26   -47099.545    3509.0852    -50608.63    147.81676    0.9899619 
   30500    241.93089    46.670508    151028.14   -47058.188    3603.5867   -50661.775    148.16289   0.98996927 
   30600    240.88615    218.34527    151123.53   -47084.443    3588.0252   -50672.468    148.29737   0.98934437 
   30700    239.67026    165.89902    151062.46    -47054.57    3569.9144   -50624.485    148.28632   0.98974432 
   30800    238.10469   -255.59266    151071.14   -47039.609     3546.595   -50586.204    148.47852   0.98968746 
   30900     240.8684   -51.322829    151075.78   -47053.818    3587.7608   -50641.579    148.74462   0.98965704 
   31000    240.22041   -18.393378    150983.38    -47028.51     3578.109   -50606.619    148.76927   0.99026271 
   31100     236.2908    134.73116    150872.61   -47145.331     3519.577   -50664.908    148.91182   0.99098975 
   31200    238.52274    51.978804    150798.58   -47114.121     3552.822   -50666.943     148.6574   0.99147629 
   31300    235.99995     57.91396    150832.36   -47061.274    3515.2447   -50576.518    148.98491   0.99125422 
   31400    236.85793    119.01738    150856.57   -47103.803    3528.0244   -50631.828    149.02325   0.99109516 
   31500    242.44384    181.67426    150947.57   -46989.564    3611.2272   -50600.792    149.25691   0.99049767 
   31600    243.90435   -137.95907    151052.46   -46974.159    3632.9816   -50607.141    149.79165   0.98980986 
   31700    241.96613   -63.532123    151171.66   -47008.197    3604.1116   -50612.309     150.3009   0.98902939 
   31800    238.93218    353.74888    151315.82    -47014.29    3558.9205   -50573.211    150.73206   0.98808714 
   31900    239.89089    190.47403     151232.9   -46992.179    3573.2007   -50565.379    151.06131   0.98862888 
   32000    237.11068   -135.84215    151255.02    -46922.52    3531.7891   -50454.309     151.5561    0.9884843 
   32100    239.87098   -226.25389    151278.92   -46991.804    3572.9041   -50564.708     151.8597   0.98832814 
   32200    236.86495    93.347617    151146.65   -46978.114     3528.129   -50506.243    152.16805   0.98919301 
   32300    242.06507    231.47957    151316.24    -46950.93    3605.5853   -50556.515    152.42697   0.98808441 
   32400    242.53356   -252.73833    151482.79   -46876.666    3612.5635   -50489.229    152.78159   0.98699805 
   32500    240.54997   -136.06781    151361.56   -46973.983    3583.0177   -50557.001    153.13857   0.98778853 
   32600    238.47264   -468.03599    151275.08    -46968.84    3552.0757   -50520.916    153.76106   0.98835325 
   32700    241.83315   -46.570799    151119.53   -46959.906    3602.1308   -50562.036    153.93414   0.98937056 
   32800    242.05588   -140.41696    150994.72   -47006.514    3605.4484   -50611.963    154.64262   0.99018837 
   32900    236.88179   -26.480825    150913.83   -47111.369    3528.3798   -50639.749    155.33449   0.99071908 
   33000    236.02756    116.63668    151072.08   -47080.324    3515.6559    -50595.98    156.36227   0.98968131 
   33100    237.64873    33.282875    151149.38     -47050.4    3539.8035   -50590.203    156.39924   0.98917514 
   33200    238.71842    -7.511927    151143.72   -47023.723    3555.7365   -50579.459    156.55539   0.98921222 
   33300    242.36196   -28.147721    151167.84   -46960.814    3610.0075   -50570.822    156.97668   0.98905439 
   33400    237.19166    19.130889     151016.6   -47025.665    3532.9954   -50558.661    157.26737   0.99004486 
   33500    241.08256   -175.27408    151099.94   -46937.195    3590.9507   -50528.146    157.57572   0.98949886 
   33600    239.21838   -298.84663    150956.93    -46969.04    3563.1836   -50532.224    157.70528   0.99043626 
   33700    244.64561    12.764999    151008.53   -46989.523    3644.0227   -50633.546     158.3204   0.99009779 
   33800    238.38284   -195.69404     150980.1   -46957.017    3550.7382   -50507.756    158.45481   0.99028423 
   33900    245.17792    231.17735    150914.47   -46980.717    3651.9516   -50632.668    158.92311   0.99071493 
   34000    241.72429   -99.374623    150822.53   -47009.004    3600.5094   -50609.513    158.90055   0.99131883 
   34100     240.1455    239.07321    150901.78    -47071.53    3576.9931   -50648.523    158.94306   0.99079822 
   34200    235.92188   -124.57259    150879.07   -47044.078    3514.0818    -50558.16     159.1302   0.99094735 
   34300     238.8745   -26.668675    150783.75   -47019.668    3558.0614   -50577.729    159.53084   0.99157379 
   34400    242.40067    262.20358     150836.5    -46927.64    3610.5841   -50538.224    159.95384     0.991227 
   34500    243.08012    4.0016671    150834.73   -46874.248    3620.7045   -50494.953    160.45961   0.99123864 
   34600     240.1407    147.96976    150794.12   -46926.604    3576.9217   -50503.526    160.37669   0.99150561 
   34700    238.00278   -48.661229    150708.05    -46977.21    3545.0771   -50522.287    160.49585   0.99207187 
   34800    238.08759   -124.58966    150632.69    -47000.13    3546.3403   -50546.471    160.85822   0.99256814 
   34900    239.32082    233.08588     150771.1   -46988.782    3564.7095   -50553.491    161.44567   0.99165701 
   35000     235.8541    162.90956    150794.18   -47034.561    3513.0722   -50547.633     161.5709   0.99150518 
   35100    242.72631    269.09835    150989.88   -46993.323    3615.4345   -50608.757    162.21307   0.99022012 
   35200    241.65959    62.100477    151196.51   -46831.303    3599.5456   -50430.848    162.83998   0.98886686 
   35300    239.71863   -246.98705    151255.54   -46908.877    3570.6348   -50479.512     163.6441   0.98848094 
   35400    240.43788   -161.05567     151171.5   -46972.432    3581.3481    -50553.78    164.10699   0.98903045 
   35500    241.77898   -146.10051    151007.86   -46994.243     3601.324   -50595.567    164.59932   0.99010223 
   35600    239.19618   -153.47177    151044.57   -46995.536    3562.8529   -50558.389    164.99589   0.98986155 
   35700    240.87476   -97.551588    150818.82   -46940.493    3587.8556   -50528.349    165.24559   0.99134319 
   35800    238.90905   -22.596571    150713.24   -46961.363     3558.576   -50519.939    165.51495   0.99203769 
   35900    243.29602    31.837477       150717   -46905.735    3623.9204   -50529.655    165.99141   0.99201295 
   36000     240.3362    46.726562    150715.48   -46952.232    3579.8337   -50532.065    165.94922   0.99202293 
   36100    239.67598   -125.40134    150664.37   -46981.742    3569.9995   -50551.742     165.8692   0.99235944 
   36200    243.05059    39.063235    150691.41   -46960.261    3620.2648   -50580.526    166.02381   0.99218139 
   36300    240.29733   -277.70747    150664.69    -46974.27    3579.2546   -50553.525    166.72519   0.99235736 
   36400    239.56624    69.369155    150651.12   -46906.219     3568.365   -50474.584    166.95785   0.99244675 
   36500     243.9341   -161.14737    150572.46   -46865.103    3633.4247   -50498.528    167.39149   0.99296522 
   36600    237.98911    65.030939    150634.34   -46974.005    3544.8735   -50518.879    167.43178   0.99255728 
   36700    238.29918    38.413729    150680.05   -46991.733     3549.492   -50541.225    168.00017   0.99225619 
   36800    239.28625     148.5739    150815.18   -47019.536    3564.1945   -50583.731    168.52408   0.99136712 
   36900    236.47993   -110.76075    150908.89   -47118.392     3522.394   -50640.786    169.11554   0.99075152 
   37000    236.16124   -94.167664    150889.83   -47066.142    3517.6472   -50583.789    170.02052   0.99087669 
   37100    239.44284   -10.771098    150986.72   -47084.283    3566.5269    -50650.81    170.90403    0.9902408 
   37200    238.43092   -196.33442    150901.99   -47051.984    3551.4543   -50603.439    171.31792   0.99079683 
   37300    238.65902    58.681718    150807.56   -47024.272    3554.8518   -50579.124    172.00221   0.99141725 
   37400    237.03248    225.03181    150731.45    -47128.91    3530.6243   -50659.534    172.73363   0.99191782 
   37500    236.59503    119.23847    150781.32   -47117.304    3524.1085   -50641.413    173.32188   0.99158979 
   37600    240.26549   -50.169863    150916.28   -47087.827    3578.7804   -50666.607    173.95627   0.99070299 
   37700    234.19306   -14.934205    150982.96   -47109.969    3488.3309     -50598.3    174.25315   0.99026551 
   37800    235.53199    414.69383    151075.89   -47108.073    3508.2744   -50616.347    174.71936   0.98965638 
   37900    237.65915    27.615814    151237.32   -47126.785    3539.9587   -50666.744    175.28321   0.98859999 
   38000    238.83064   -74.519154    151303.93   -47130.391    3557.4082   -50687.799    175.41152   0.98816476 
   38100    238.53977    49.653065    151389.21   -47153.343    3553.0756   -50706.419    175.76932    0.9876081 
   38200    239.97721    468.96925    151543.83   -47140.766    3574.4864   -50715.252    175.88659   0.98660046 
   38300    234.91864   -94.178906    151589.16   -47223.143    3499.1384   -50722.281    176.53779   0.98630548 
   38400    231.99254     17.75598    151515.28    -47269.65    3455.5538   -50725.204    177.12738   0.98678635 
   38500    232.12894   -56.112146    151642.65   -47246.535    3457.5856   -50704.121    177.78834   0.98595751 
   38600    237.16336    238.42623    151807.89   -47137.987    3532.5739   -50670.561    178.20799   0.98488433 
   38700    240.86815    100.77436    151850.16   -47133.988     3587.757   -50721.745    178.85133   0.98461018 
   38800    235.15229    -214.6462    151799.84    -47099.99    3502.6188   -50602.609    179.29943   0.98493657 
   38900    242.93229   -16.739843     151904.9   -46965.127    3618.5027   -50583.629    179.88499   0.98425534 
   39000    239.79624   -222.45859    151803.54   -46986.555    3571.7908   -50558.345    180.17455   0.98491258 
   39100    240.82311   -229.61977    151644.05   -47023.129    3587.0862   -50610.215    180.34995   0.98594842 
   39200    239.39633    28.378137    151575.42   -47000.744    3565.8342   -50566.579    180.93557   0.98639486 
   39300    237.76703   -141.36536    151546.39   -46990.545    3541.5656   -50532.111    181.75876   0.98658379 
   39400     242.1477    166.56475    151421.67   -46986.671    3606.8161   -50593.487       182.87   0.98739643 
   39500    237.33048   -108.12047       151423   -46941.901    3535.0631   -50476.964    183.95885   0.98738774 
   39600    242.07069   -147.70889    151270.62   -46901.789     3605.669   -50507.458    184.20031   0.98838239 
   39700    240.55416    77.736985    151111.91   -47013.255    3583.0802   -50596.335    184.39109   0.98942046 
   39800       241.39   -19.266435    151174.92   -46993.577    3595.5301   -50589.107    185.09707   0.98900808 
   39900    237.29427   -25.141277    151233.03   -47188.604    3534.5237   -50723.127      185.545   0.98862803 
   40000    239.85133   -171.99729     151167.1   -47067.884    3572.6114   -50640.495    185.57862   0.98905919 
   40100    235.89872     119.2353    151209.63   -47061.897    3513.7369   -50575.634    185.50916   0.98878101 
   40200    242.15722   -135.69644    151313.29    -46948.21     3606.958   -50555.168    185.52954   0.98810368 
   40300    242.57838    101.17431     151325.8   -46980.026    3613.2311   -50593.257    185.21905   0.98802199 
   40400     241.1949   -73.682532    151323.63   -47038.368    3592.6241   -50630.992    185.35777   0.98803614 
   40500    238.93912    44.777454     151275.4   -47052.868     3559.024   -50611.892    185.40068   0.98835115 
   40600    242.25174    240.30243    151315.67    -47029.29    3608.3659   -50637.656    185.57535   0.98808808 
   40700    242.85046   -80.490825    151532.17   -47039.495    3617.2838   -50656.779    186.30915   0.98667642 
   40800     243.2466    37.329405    151667.49   -47075.027    3623.1843   -50698.212    186.37831   0.98579605 
   40900    237.99392   -50.365723    151531.25   -47119.218     3544.945   -50664.163    186.58691   0.98668239 
   41000    241.03284     308.3203     151474.8   -47139.541    3590.2102   -50729.751    186.61637   0.98705006 
   41100    239.01065    264.04257     151511.3   -47130.228    3560.0894   -50690.317    187.21945   0.98681229 
   41200    236.96181    87.541037     151600.7   -47046.759    3529.5717   -50576.331    187.27922   0.98623035 
   41300    239.62138   -79.086631    151548.65   -47154.219    3569.1862   -50723.405    187.51772    0.9865691 
   41400    236.11143   -3.6946247    151457.56   -47121.333    3516.9053   -50638.239    187.77434   0.98716241 
   41500    233.93663    35.160945    151349.93   -47113.505    3484.5113   -50598.016    188.29397   0.98786442 
   41600    241.19106   -223.15802    151172.29   -47031.286    3592.5669   -50623.853    188.18207   0.98902526 
   41700    242.51309    45.033413    151144.85   -47160.596    3612.2587   -50772.854    188.84282   0.98920481 
   41800    240.73952     76.70175    151089.02   -47072.313    3585.8411   -50658.154     189.3757   0.98957033 
   41900    241.12548    149.88516    151023.57     -47043.8      3591.59    -50635.39    189.87068   0.98999918 
   42000    242.28127     24.48939     150975.4   -47042.564    3608.8056   -50651.369    189.71796   0.99031509 
   42100    239.66007    192.94562    151122.88   -47036.469    3569.7625   -50606.231    190.09282   0.98934864 
   42200    239.82114    147.44916     151391.5   -46990.566    3572.1618   -50562.728    190.55257   0.98759317 
   42300    238.68793    56.654677    151287.45   -47069.142    3555.2824   -50624.425    191.06992   0.98827241 
   42400    239.77429   -60.220294    151322.72   -47017.866    3571.4639    -50589.33    191.60359   0.98804208 
   42500    240.09057    111.33586    151346.16   -47027.512     3576.175   -50603.687    192.17191   0.98788908 
   42600    240.64776    -16.95416    151266.48   -47068.309    3584.4744   -50652.784    192.28529   0.98840945 
   42700    236.16536   -42.372256    151087.51   -47096.808    3517.7085   -50614.516    192.49655   0.98958022 
   42800    235.10304   -174.05861    150951.45   -47122.479    3501.8851   -50624.364    193.30521   0.99047218 
   42900    238.69547    134.36177    150837.99   -47060.288    3555.3948   -50615.683    193.51496   0.99121726 
   43000    241.75253    111.70179    150848.82   -47020.346      3600.93   -50621.276    194.19208   0.99114609 
   43100    240.87382    196.87322    150889.35   -47045.822    3587.8415   -50633.663    194.69226   0.99087985 
   43200    241.52277   -103.90698    150941.15    -47045.83    3597.5077   -50643.338    194.99338   0.99053977 
   43300    238.80944    66.788726     150977.2   -47088.795    3557.0923   -50645.888    194.96941   0.99030328 
   43400    240.40576    36.759714    150995.34   -47105.736    3580.8697   -50686.606    195.32647   0.99018429 
   43500    242.65149    168.88321     151013.3   -47047.504    3614.3201   -50661.824     195.9434    0.9900665 
   43600    237.59776   -115.21393    151127.91   -47086.007    3539.0442   -50625.051    196.49958   0.98931569 
   43700    238.11721    102.07788    151035.61   -47043.292    3546.7815   -50590.074    196.90037    0.9899203 
   43800    241.04159    123.75097    151006.89   -46968.892    3590.3404   -50559.233    197.04811   0.99010856 
   43900    237.43176   -383.16259    150984.87   -47057.278    3536.5716   -50593.849     197.3537   0.99025297 
   44000    242.16625    43.406158    150974.78   -46967.306    3607.0925   -50574.398    197.89139   0.99031912 
   44100    243.14996    19.687317     150919.1   -46914.429    3621.7449   -50536.173    198.25978   0.99068449 
   44200    241.59543    272.23321    151058.25   -46985.506      3598.59   -50584.096    198.77742   0.98977189 
   44300    237.72261    46.729951    151020.41   -47113.728    3540.9038   -50654.632    199.20474   0.99001994 
   44400    237.57071    137.67676    151157.03   -47102.998    3538.6414   -50641.639    199.46521   0.98912511 
   44500    239.05876    -100.1258    151347.92   -47111.393    3560.8061   -50672.199     200.4118   0.98787757 
   44600    237.34547    132.04565    151654.93   -47102.454    3535.2863   -50637.741    201.17634   0.98587769 
   44700    240.54102    -206.3687    151685.79   -47114.025    3582.8844   -50696.909    201.56613   0.98567714 
   44800    237.76985   -26.778227    151719.14   -47047.234    3541.6075   -50588.841    202.21532   0.98546047 
   44900    234.47779   -63.871931    151670.14   -47083.685     3492.572   -50576.257    202.85421   0.98577883 
   45000    237.20352   -115.22451    151781.86    -47059.02     3533.172   -50592.192    203.19863   0.98505327 
   45100    237.73762   -129.68655    151644.35   -46987.405    3541.1274   -50528.532    203.22254   0.98594649 
   45200    238.05936   -100.01683     151547.7   -47000.987    3545.9199   -50546.907    203.50242   0.98657525 
   45300    240.13702   -280.17114    151555.79   -47042.098    3576.8667   -50618.965    204.17406   0.98652261 
   45400    236.11062   -70.485504    151599.06   -47071.934    3516.8931   -50588.827    204.72689   0.98624103 
   45500    237.90866    30.347816    151624.27   -46999.943    3543.6752   -50543.618    205.07082   0.98607707 
   45600    239.32824    -169.5605    151531.21   -47050.054      3564.82   -50614.874    205.83612   0.98668265 
   45700    242.45754    67.020788    151481.15   -46967.493    3611.4312   -50578.925    205.74586   0.98700872 
   45800    244.07631   -225.54846    151509.42   -46970.698     3635.543   -50606.241    206.26035   0.98682455 
   45900    241.11261   -63.580298    151571.58   -46969.632    3591.3983   -50561.031    206.86582   0.98641985 
   46000    237.61426    111.35059    151470.89   -47054.213      3539.29   -50593.503    207.46313   0.98707559 
   46100    242.54019    135.21348    151313.77   -47024.663    3612.6622   -50637.325      207.475   0.98810054 
   46200    241.72167   -34.857851    151275.43   -47067.902    3600.4703   -50668.372    207.90946   0.98835093 
   46300    237.24301    70.666072    151259.12   -47075.646    3533.7603   -50609.407    208.40054   0.98845752 
   46400    239.14328   -129.25163    151189.93   -47054.812    3562.0649   -50616.877    208.95693    0.9889099 
   46500    244.88582    79.701184    151144.03   -47024.862    3647.6007   -50672.463    209.16715   0.98921019 
   46600    243.06079   -110.86522    151061.99   -46959.488    3620.4167   -50579.905    209.92014   0.98974744 
   46700    242.88142    185.12934    151053.57   -46946.404    3617.7449   -50564.149    210.54547    0.9898026 
   46800    241.99172     185.4751    151199.27   -46946.915    3604.4928   -50551.408    211.14538   0.98884882 
   46900    242.34523   -152.80632    151255.96   -46972.175    3609.7583   -50581.933    211.66083   0.98847816 
   47000    242.07967   -40.888575    151212.28    -47013.52    3605.8028   -50619.323    211.75284   0.98876369 
   47100    241.56584    103.33631    151326.38   -47001.086    3598.1492   -50599.235    211.99528   0.98801818 
   47200    241.49675   -104.28187     151167.6   -47068.762    3597.1201   -50665.883    212.79622   0.98905595 
   47300    241.25123   -28.383731    151149.16   -47027.325     3593.463   -50620.788    213.80531    0.9891766 
   47400    239.17665   -222.95865    151155.45   -46990.978     3562.562    -50553.54    214.55853   0.98913548 
   47500    239.36817    35.876682    151377.24   -47034.898    3565.4147   -50600.313    215.16514   0.98768623 
   47600    241.81177    156.40765    151431.04   -46973.086    3601.8124   -50574.898    215.52444   0.98733533 
   47700    237.24561   -62.822501    151349.76    -47064.26    3533.7989   -50598.059      216.032   0.98786557 
   47800    238.44508    -114.7818    151277.48    -47127.41    3551.6651   -50679.075    216.19877   0.98833758 
   47900     236.6654   -178.90022    151050.26    -47077.76    3525.1566   -50602.917    216.29397   0.98982426 
   48000    239.35166   -150.58295     150741.8   -47124.771    3565.1687    -50689.94    215.91369    0.9918497 
   48100    232.44334   -94.181566     150771.9   -47143.004    3462.2686   -50605.273    216.15594   0.99165175 
   48200    240.10269    82.988463    150949.39   -47085.971    3576.3555   -50662.327    216.40324   0.99048574 
   48300    240.18962    141.49341    151038.34   -47067.012    3577.6503   -50644.662    216.75619   0.98990237 
   48400    243.93454   -135.63233    151109.57    -47019.75    3633.4313   -50653.181    216.92523   0.98943579 
   48500    238.78993    131.81171    151296.42   -47117.998    3556.8018   -50674.799    216.92966    0.9882138 
   48600    240.99158    139.93829    151314.96   -47105.931    3589.5955   -50695.527    217.11979   0.98809272 
   48700    235.15911     14.78439    151327.81   -47198.383    3502.7202   -50701.103    217.43666   0.98800887 
   48800    236.14508   -25.169316    151355.71   -47135.936    3517.4064   -50653.342    218.21004   0.98782669 
   48900    241.91327   -51.361022    151434.64   -47085.123    3603.3242   -50688.447    218.32872   0.98731182 
   49000    240.64468    264.03096    151504.59   -47055.991    3584.4284    -50640.42     218.1501   0.98685598 
   49100    242.56441   -39.694913    151647.23   -47147.183    3613.0231   -50760.206    218.59212   0.98592774 
   49200     240.6853   -114.53711    151606.69   -47217.829    3585.0335   -50802.862    219.31441   0.98619142 
   49300    241.44626    31.262451    151569.21   -47212.512     3596.368    -50808.88    219.65599   0.98643526 
   49400    237.07423   -112.83694    151624.75   -47221.943    3531.2462   -50753.189    220.14367   0.98607395 
   49500    234.92622   -209.48815    151534.53   -47214.224    3499.2514   -50713.475    220.93558     0.986661 
   49600    237.41953    31.098969    151435.81   -47177.774    3536.3895   -50714.163    221.21505   0.98730422 
   49700    241.24745   -291.47879    151379.02   -47135.376    3593.4068   -50728.783    221.32736   0.98767462 
   49800    239.42204    69.009988    151285.44   -47101.596    3566.2171   -50667.813    221.57158   0.98828555 
   49900     234.2769    265.84534    151443.87   -47156.543    3489.5797   -50646.123     222.0206   0.98725164 
   50000    240.34113   -109.78958    151465.37   -47178.273     3579.907    -50758.18    222.50438   0.98711152 
   50100    238.84177   -158.80766    151446.18   -47150.738    3557.5739   -50708.312    223.17217   0.98723664 
   50200    240.34605   -22.362643    151496.48   -47139.602    3579.9803   -50719.583    223.95778   0.98690885 
   50300    237.12739   -2.9404601    151483.05   -47104.014    3532.0381   -50636.052    224.31824   0.98699633 
   50400    238.93076   -164.33001     151420.8     -47135.9    3558.8994   -50694.799    224.96646   0.98740209 
   50500    235.79019   -183.60672     151383.1   -47139.843    3512.1202   -50651.963    225.45767   0.98764799 
   50600      240.098    106.48967    151252.59   -47141.417    3576.2856   -50717.703    225.78301   0.98850017 
   50665    235.43445   -72.419964    151331.91    -47112.19    3506.8216   -50619.012    226.00967   0.98798204 
Loop time of 2366.96 on 12 procs for 50000 steps with 4998 atoms

Performance: 9.126 ns/day, 2.630 hours/ns, 21.124 timesteps/s
81.3% CPU use with 12 MPI tasks x no OpenMP threads

MPI task timing breakdown:
Section |  min time  |  avg time  |  max time  |%varavg| %total
---------------------------------------------------------------
Pair    | 40.811     | 41.758     | 42.351     |   8.9 |  1.76
Neigh   | 2.3704     | 2.5079     | 2.5921     |   4.0 |  0.11
Comm    | 870.98     | 911.55     | 931.94     |  53.1 | 38.51
Output  | 19.865     | 20.418     | 21.685     |   9.9 |  0.86
Modify  | 1075.9     | 1111.6     | 1155.6     |  65.0 | 46.96
Other   |            | 279.1      |            |       | 11.79

Nlocal:        416.500 ave         434 max         406 min
Histogram: 3 0 1 3 1 2 1 0 0 1
Nghost:        1038.33 ave        1080 max         997 min
Histogram: 1 0 1 3 2 1 1 2 0 1
Neighs:        0.00000 ave           0 max           0 min
Histogram: 12 0 0 0 0 0 0 0 0 0
FullNghs:      11924.8 ave       12453 max       11475 min
Histogram: 1 2 1 0 3 1 2 1 0 1

Total # of neighbors = 143098
Ave neighs/atom = 28.631052
Neighbor list builds = 3047
Dangerous builds = 0

unfix               2
unfix               3
unfix               4

write_data		data.whole_${NAME}
write_data		data.whole_Ibeam_MLmW_240K
System init for write_data ...


# Create the I-beam, width 35A
region beam block 21.876 56.876 0.0 INF 0.0 INF side out
delete_atoms region beam
Deleted 2761 atoms, new total = 2237

fix                 1 all momentum 10 linear 1 1 1 rescale
fix                 2 all nve
fix                 3 all temp/csvr ${TEMP} ${TEMP} 500.0 928347
fix                 3 all temp/csvr 240 ${TEMP} 500.0 928347
fix                 3 all temp/csvr 240 240 500.0 928347

# Run 0.05 ns equilibration
#
dump                2 all custom 1000 eq.${NAME}.dump id type x y z vx vy vz
dump                2 all custom 1000 eq.Ibeam_MLmW_240K.dump id type x y z vx vy vz
run                 10000
Per MPI rank memory allocation (min/avg/max) = 4.740 | 4.743 | 4.748 Mbytes
Step Temp Press Volume TotEng KinEng PotEng c_1[4] Density 
   50665    235.94171   -286.59841    151331.91   -20295.945     1572.573   -21868.518    226.89356   0.44220005 
   50700    247.41544    242.81731    151331.91   -20271.719    1649.0465   -21920.765    226.81615   0.44220005 
   50800     248.2911    232.05298    151331.91   -20344.995    1654.8829   -21999.878    227.48357   0.44220005 
   50900    244.36954   -140.69453    151331.91    -20422.62    1628.7453   -22051.365    228.75877   0.44220005 
   51000    247.60722   -118.32762    151331.91    -20410.44    1650.3247   -22060.765    229.00036   0.44220005 
   51100    241.39975    44.658719    151331.91   -20456.774    1608.9514   -22065.726    230.20289   0.44220005 
   51200    236.90855   -468.47447    151331.91    -20552.98    1579.0171   -22131.997    230.64679   0.44220005 
   51300    234.08718   -162.65242    151331.91   -20599.609    1560.2124   -22159.821    231.23786   0.44220005 
   51400     238.0408   -356.97087    151331.91   -20632.788    1586.5636   -22219.351    231.38895   0.44220005 
   51500    236.15601   -177.61051    151331.91   -20661.112    1574.0014   -22235.113    231.78602   0.44220005 
   51600     241.8658     30.21178    151331.91   -20579.853    1612.0576    -22191.91    232.04978   0.44220005 
   51700    246.11416    -5.445849    151331.91   -20557.258    1640.3733   -22197.631    232.97523   0.44220005 
   51800    235.41483   -189.92799    151331.91   -20636.596    1569.0613   -22205.657    233.81612   0.44220005 
   51900    241.17477     116.6504    151331.91   -20648.638    1607.4518    -22256.09    234.44634   0.44220005 
   52000    243.39675   -101.52961    151331.91   -20636.856    1622.2615   -22259.117    234.84726   0.44220005 
   52100    247.51752    101.61675    151331.91   -20562.433    1649.7269    -22212.16    234.85238   0.44220005 
   52200    237.59723   -371.79798    151331.91   -20586.965    1583.6072   -22170.572    235.56324   0.44220005 
   52300    245.79044    85.796906    151331.91   -20576.219    1638.2157   -22214.434     235.5821   0.44220005 
   52400    240.21243     72.59228    151331.91   -20576.458    1601.0378   -22177.495    236.06074   0.44220005 
   52500    247.06089   -306.54344    151331.91   -20557.965    1646.6834   -22204.648    236.61491   0.44220005 
   52600     246.7307   -35.768722    151331.91   -20510.921    1644.4827   -22155.403     237.9566   0.44220005 
   52700    242.15835   -120.24674    151331.91    -20502.15    1614.0075   -22116.157    238.46966   0.44220005 
   52800    243.68356   -32.658849    151331.91   -20525.222    1624.1732   -22149.395    239.08824   0.44220005 
   52900    246.99106   -116.46045    151331.91   -20533.117     1646.218   -22179.335    240.51634   0.44220005 
   53000    246.20263   -187.95226    151331.91   -20582.298     1640.963   -22223.261    240.94115   0.44220005 
   53100    242.19706    -22.22772    151331.91   -20557.028    1614.2655   -22171.293    241.74818   0.44220005 
   53200    236.59793   -443.17349    151331.91   -20583.126    1576.9468   -22160.073    242.56302   0.44220005 
   53300    236.53926    49.530379    151331.91   -20580.929    1576.5557   -22157.485    243.22859   0.44220005 
   53400    241.14144   -31.716522    151331.91   -20576.178    1607.2297   -22183.408    243.14499   0.44220005 
   53500    232.69958   -139.38822    151331.91   -20608.547    1550.9639    -22159.51    243.44207   0.44220005 
   53600    236.82181   -100.35838    151331.91    -20639.32     1578.439   -22217.759    243.65902   0.44220005 
   53700    232.02967   -170.93125    151331.91   -20654.763    1546.4989   -22201.262    244.54056   0.44220005 
   53800    237.43379   -144.65511    151331.91   -20668.463    1582.5179   -22250.981    244.98106   0.44220005 
   53900    240.20652   -4.7124345    151331.91   -20651.831    1600.9984   -22252.829    245.00603   0.44220005 
   54000    241.48491    171.90138    151331.91   -20590.675     1609.519   -22200.194    245.21518   0.44220005 
   54100    233.95241    -199.4802    151331.91   -20619.223    1559.3141   -22178.537    246.54871   0.44220005 
   54200    241.23481   -89.751888    151331.91   -20636.332     1607.852   -22244.184    247.00916   0.44220005 
   54300    233.45161    -33.12056    151331.91   -20638.287    1555.9763   -22194.263    247.83302   0.44220005 
   54400     247.2339   -168.09147    151331.91   -20641.498    1647.8365   -22289.335    247.70141   0.44220005 
   54500    238.61836   -190.79734    151331.91   -20636.446    1590.4131   -22226.859    247.68342   0.44220005 
   54600    237.57869   -110.44323    151331.91   -20678.741    1583.4837   -22262.224    249.01016   0.44220005 
   54700    241.41029    -135.8807    151331.91   -20651.633    1609.0216   -22260.655    248.48468   0.44220005 
   54800    235.21833   -332.30529    151331.91   -20666.347    1567.7516   -22234.098    248.14245   0.44220005 
   54900    240.35641   -90.774891    151331.91   -20546.142    1601.9974    -22148.14    247.63532   0.44220005 
   55000    249.11055   -26.855312    151331.91   -20481.887    1660.3445   -22142.232    247.46678   0.44220005 
   55100    234.53471   -127.41309    151331.91   -20543.658    1563.1952   -22106.853    247.93317   0.44220005 
   55200    238.74625    -386.8871    151331.91   -20567.702    1591.2656   -22158.967       248.43   0.44220005 
   55300    247.03026   -69.018486    151331.91   -20557.996    1646.4792   -22204.475    249.03407   0.44220005 
   55400    236.63431   -349.84325    151331.91   -20581.779    1577.1893   -22158.969    250.34825   0.44220005 
   55500    244.44882    127.26303    151331.91   -20591.676    1629.2737    -22220.95     250.4398   0.44220005 
   55600    243.03846   -124.61101    151331.91    -20598.88    1619.8736   -22218.754    250.36064   0.44220005 
   55700    241.37682   -253.73278    151331.91    -20621.45    1608.7985   -22230.248    251.03631   0.44220005 
   55800    235.76911    61.533114    151331.91   -20615.461    1571.4227   -22186.884    251.86987   0.44220005 
   55900    238.54538    25.027189    151331.91   -20620.903    1589.9267    -22210.83    252.54479   0.44220005 
   56000    237.77823   -38.541491    151331.91   -20649.061    1584.8136   -22233.875    253.91694   0.44220005 
   56100    238.61988    35.785521    151331.91   -20631.375    1590.4232   -22221.798    254.20135   0.44220005 
   56200    237.44279    74.340363    151331.91   -20657.193    1582.5779   -22239.771    254.88679   0.44220005 
   56300    236.39342   -113.05649    151331.91   -20674.383    1575.5837   -22249.967    255.46546   0.44220005 
   56400    237.83949    -386.4323    151331.91   -20625.948    1585.2219    -22211.17    256.35042   0.44220005 
   56500    240.37456   -78.668302    151331.91   -20561.957    1602.1184   -22164.075    257.29544   0.44220005 
   56600    239.33201   -209.74252    151331.91   -20608.231    1595.1697   -22203.401    257.73033   0.44220005 
   56700     232.5552   -165.34918    151331.91   -20655.074    1550.0016   -22205.075     258.5695   0.44220005 
   56800    241.40272   -98.955333    151331.91   -20615.493    1608.9712   -22224.464    258.85785   0.44220005 
   56900    244.54974    27.425355    151331.91   -20621.896    1629.9463   -22251.843    259.51064   0.44220005 
   57000    243.89685   -196.11579    151331.91   -20625.646    1625.5947    -22251.24    259.45051   0.44220005 
   57100    242.81253    73.433642    151331.91     -20627.6    1618.3677   -22245.968    259.67582   0.44220005 
   57200    234.92481   -72.472724    151331.91   -20640.936    1565.7953   -22206.731    260.22423   0.44220005 
   57300    237.63635   -144.50771    151331.91   -20682.369    1583.8679   -22266.237    260.52015   0.44220005 
   57400    236.76173   -57.479936    151331.91   -20672.821    1578.0385    -22250.86    260.62614   0.44220005 
   57500    239.42997   -84.379256    151331.91   -20672.279    1595.8226   -22268.102    261.18983   0.44220005 
   57600    231.49803   -183.48665    151331.91   -20729.865    1542.9555    -22272.82    262.22245   0.44220005 
   57700    237.73029    -243.9194    151331.91   -20692.849    1584.4941   -22277.343    263.07547   0.44220005 
   57800    243.07031    111.54386    151331.91   -20612.286    1620.0858   -22232.372    263.78375   0.44220005 
   57900    242.74671    -66.86511    151331.91   -20667.178     1617.929   -22285.107    264.17697   0.44220005 
   58000    230.90129   -169.48841    151331.91   -20702.016    1538.9782   -22240.994    264.38701   0.44220005 
   58100    236.19615   -58.525959    151331.91   -20719.376    1574.2689   -22293.645    265.33534   0.44220005 
   58200    232.51679   -218.08563    151331.91   -20733.423    1549.7456   -22283.169    266.20623   0.44220005 
   58300    232.10553     -125.558    151331.91    -20724.45    1547.0045   -22271.455    267.12993   0.44220005 
   58400    240.67381   -145.23844    151331.91   -20711.238    1604.1129   -22315.351     267.7534   0.44220005 
   58500    233.77251   -244.85039    151331.91   -20662.054    1558.1151   -22220.169    267.98357   0.44220005 
   58600     234.6503    -92.78199    151331.91   -20678.768    1563.9657   -22242.734    268.48778   0.44220005 
   58700    242.24814   -203.47741    151331.91   -20665.259    1614.6059   -22279.864    269.44891   0.44220005 
   58800    239.62332    42.950973    151331.91   -20688.245    1597.1113   -22285.356    269.86113   0.44220005 
   58900    236.23356   -69.218266    151331.91   -20738.129    1574.5182   -22312.647    269.97641   0.44220005 
   59000    237.67452    76.405925    151331.91   -20703.276    1584.1224   -22287.398    269.90902   0.44220005 
   59100    229.21422   -159.95446    151331.91    -20769.73    1527.7337   -22297.464    269.59823   0.44220005 
   59200    239.78776    -146.0923    151331.91    -20705.69    1598.2073   -22303.898    269.75001   0.44220005 
   59300    240.70305    2.9041197    151331.91   -20676.402    1604.3078   -22280.709    269.93718   0.44220005 
   59400    240.70656    55.297175    151331.91   -20710.099    1604.3312    -22314.43    270.03026   0.44220005 
   59500    232.89152   -340.10538    151331.91   -20655.042    1552.2432   -22207.285    270.64083   0.44220005 
   59600    231.88535   -167.39098    151331.91   -20652.271     1545.537   -22197.808    271.09955   0.44220005 
   59700    241.93595   -257.23534    151331.91   -20610.726    1612.5252   -22223.251    271.67173   0.44220005 
   59800    244.13949   -95.452167    151331.91   -20596.805     1627.212   -22224.017    271.93847   0.44220005 
   59900    238.96567   -31.710437    151331.91   -20651.106     1592.728   -22243.834    272.69778   0.44220005 
   60000    238.26575   -401.62168    151331.91     -20705.4     1588.063   -22293.463    272.95202   0.44220005 
   60100    235.28308   -192.34767    151331.91   -20693.216    1568.1832   -22261.399    273.74901   0.44220005 
   60200     239.6924    82.476204    151331.91   -20706.065    1597.5717   -22303.637    274.57879   0.44220005 
   60300    230.42442   -122.70979    151331.91   -20783.635    1535.7998   -22319.435     273.6503   0.44220005 
   60400    237.05312   -82.476054    151331.91   -20704.533    1579.9807   -22284.514    274.70245   0.44220005 
   60500    235.52786   -123.22169    151331.91   -20691.846    1569.8147   -22261.661    275.09995   0.44220005 
   60600    244.50709   -226.61132    151331.91   -20640.084    1629.6621   -22269.747    275.67217   0.44220005 
   60665     247.8796   -224.48665    151331.91   -20593.129    1652.1401   -22245.269    275.85544   0.44220005 
Loop time of 728.991 on 12 procs for 10000 steps with 2237 atoms

Performance: 5.926 ns/day, 4.050 hours/ns, 13.718 timesteps/s
82.2% CPU use with 12 MPI tasks x no OpenMP threads

MPI task timing breakdown:
Section |  min time  |  avg time  |  max time  |%varavg| %total
---------------------------------------------------------------
Pair    | 0.83704    | 3.27       | 8.0137     | 173.8 |  0.45
Neigh   | 0.051714   | 0.19486    | 0.49839    |  42.4 |  0.03
Comm    | 280.71     | 329.85     | 368.58     | 155.1 | 45.25
Output  | 11.264     | 11.411     | 11.771     |   4.1 |  1.57
Modify  | 202.29     | 251.54     | 286.54     | 170.9 | 34.51
Other   |            | 132.7      |            |       | 18.21

Nlocal:        186.417 ave         418 max          49 min
Histogram: 5 3 0 0 0 0 0 0 0 4
Nghost:        517.333 ave         946 max         295 min
Histogram: 8 0 0 0 0 0 0 0 1 3
Neighs:        0.00000 ave           0 max           0 min
Histogram: 12 0 0 0 0 0 0 0 0 0
FullNghs:      4950.83 ave       11863 max         927 min
Histogram: 7 1 0 0 0 0 0 0 0 4

Total # of neighbors = 59410
Ave neighs/atom = 26.557890
Neighbor list builds = 579
Dangerous builds = 0


write_data		data.${NAME}
write_data		data.Ibeam_MLmW_240K
System init for write_data ...
Total wall time: 0:53:20
