
### Dimensions ###


### IMPORT ATOMS ###
read_data ../Box_Setup/data.Ibeam_240K
  orthogonal box = (0 0 0) to (189.989 26.9999 39.8504)
  16 by 2 by 2 MPI processor grid
  reading atoms ...
  8482 atoms
  reading velocities ...
  8482 velocities
group water type 2
2436 atoms in group water
group graphite type 1
6046 atoms in group graphite


# Define potential
#
pair_style          sw
pair_coeff * * MLC_e.sw C mW

# Add velocity/set timestep
#

fix		1 graphite setforce 0.0 0.0 0.0
velocity 	graphite set 0.0 0.0 0.0
velocity            water create ${START_TEMP} ${SEED} rot yes dist gaussian
velocity            water create 240 ${SEED} rot yes dist gaussian
velocity            water create 240 15410 rot yes dist gaussian
timestep            5.0

# Define output
#
compute 1 water msd
compute 2 water temp


thermo	            100
thermo_style custom step c_2 press vol etotal ke pe c_1[4] density

# Neighbor lists
#
neigh_modify        delay 0 every 1 check yes


# Set fixes
#
fix                 2 water momentum 10 linear 1 1 1 rescale
fix                 3 all nve
fix                 4 water temp/csvr ${START_TEMP} ${START_TEMP} 500.0 928347
fix                 4 water temp/csvr 240 ${START_TEMP} 500.0 928347
fix                 4 water temp/csvr 240 240 500.0 928347

# Run 0.05 ns equilibration
#
dump                1 all custom 100 ${DIR}/eq.${NAME}.dump id type x y z vx vy vz
dump                1 all custom 100 run_6/eq.${NAME}.dump id type x y z vx vy vz
dump                1 all custom 100 run_6/eq.ibeam_cooling_6.dump id type x y z vx vy vz
run                 10000
Neighbor list info ...
  update every 1 steps, delay 0 steps, check yes
  max neighbors/atom: 2000, page size: 100000
  master list distance cutoff = 6.67472
  ghost atom cutoff = 6.67472
  binsize = 3.33736, bins = 57 9 12
  1 neighbor lists, perpetual/occasional/extra = 1 0 0
  (1) pair sw, perpetual
      attributes: full, newton on
      pair build: full/bin/atomonly
      stencil: full/bin/3d
      bin: standard
Per MPI rank memory allocation (min/avg/max) = 3.381 | 4.313 | 4.753 Mbytes
Step c_2 Press Volume TotEng KinEng PotEng c_1[4] Density 
       0          240   -262.64038    204420.41   -23347.773    1741.9854   -25089.758            0   0.94632332 
     100    235.35445   -246.00167    204420.41    -23349.22    1708.2668   -25057.486   0.84333124   0.94632332 
     200    233.75666   -279.12896    204420.41   -23368.877    1696.6696   -25065.546     1.297492   0.94632332 
     300    233.91221   -311.15585    204420.41   -23343.728    1697.7986   -25041.526    1.6887985   0.94632332 
     400    233.62455   -411.11291    204420.41   -23321.137    1695.7107   -25016.847    2.0096943   0.94632332 
     500    240.60597   -493.53701    204420.41   -23305.654    1746.3837   -25052.038    2.3828369   0.94632332 
     600     242.5529   -350.93075    204420.41   -23243.069     1760.515   -25003.584    2.7873073   0.94632332 
     700     238.7873   -522.82778    204420.41   -23241.135    1733.1833   -24974.318    3.1410278   0.94632332 
     800    241.90949   -487.95652    204420.41   -23212.751     1755.845   -24968.596    3.5714379   0.94632332 
     900    246.14254   -388.88002    204420.41   -23232.255    1786.5696   -25018.825    3.9752895   0.94632332 
    1000    240.99827   -293.97011    204420.41   -23257.362    1749.2311   -25006.593    4.4717357   0.94632332 
    1100    237.54011   -179.28136    204420.41   -23236.772    1724.1308   -24960.903    4.7994319   0.94632332 
    1200    241.12981   -313.23131    204420.41   -23246.065    1750.1858   -24996.251    5.1403731   0.94632332 
    1300    242.63863   -481.78374    204420.41   -23209.301    1761.1373   -24970.438    5.4896038   0.94632332 
    1400     245.1008    -377.2913    204420.41   -23249.627    1779.0084   -25028.636    6.0127975   0.94632332 
    1500    236.58756   -350.42467    204420.41   -23265.147     1717.217   -24982.364    6.5759127   0.94632332 
    1600    237.95525   -325.03627    204420.41   -23239.966    1727.1441   -24967.111    7.0279016   0.94632332 
    1700    241.95319   -548.22112    204420.41    -23247.54    1756.1622   -25003.702    7.4912918   0.94632332 
    1800    244.65593   -252.25541    204420.41   -23205.523    1775.7794   -24981.302     8.083524   0.94632332 
    1900    243.24159   -294.14215    204420.41   -23158.008    1765.5137   -24923.522    8.5405124   0.94632332 
    2000     245.9001   -536.56789    204420.41   -23133.624    1784.8099   -24918.434    9.0887268   0.94632332 
    2100    243.10934   -203.67349    204420.41   -23239.429    1764.5538   -25003.983    9.6415827   0.94632332 
    2200    242.30665   -281.35157    204420.41   -23198.168    1758.7277   -24956.896    10.165367   0.94632332 
    2300    240.90361   -384.68672    204420.41   -23164.151    1748.5441   -24912.695    10.501805   0.94632332 
    2400    241.91419   -393.44967    204420.41   -23160.001    1755.8791    -24915.88    10.959914   0.94632332 
    2500    240.45394    -421.3131    204420.41   -23198.752    1745.2802   -24944.032    11.345386   0.94632332 
    2600     244.9581   -352.89929    204420.41    -23217.33    1777.9726   -24995.302    11.685885   0.94632332 
    2700    241.91966   -297.22277    204420.41   -23225.863    1755.9188   -24981.782    12.005445   0.94632332 
    2800      243.268   -197.60411    204420.41   -23180.148    1765.7054   -24945.853    12.433442   0.94632332 
    2900    241.02953   -288.23413    204420.41   -23195.132     1749.458    -24944.59    12.936355   0.94632332 
    3000    247.83142   -345.10065    204420.41   -23201.313     1798.828   -25000.141    13.238564   0.94632332 
    3100    241.64537   -359.62661    204420.41   -23201.734    1753.9279   -24955.662    13.802399   0.94632332 
    3200    239.02546   -284.17186    204420.41   -23262.146    1734.9119   -24997.058    14.131776   0.94632332 
    3300     239.4811   -350.34487    204420.41   -23325.918    1738.2191   -25064.137    14.358395   0.94632332 
    3400    240.01741   -227.74774    204420.41   -23278.782    1742.1118   -25020.894    14.734556   0.94632332 
    3500    239.22401   -301.13409    204420.41   -23275.217     1736.353    -25011.57    15.335373   0.94632332 
    3600    237.85359   -480.82339    204420.41    -23275.65    1726.4062   -25002.057    15.921129   0.94632332 
    3700    249.84271   -394.25656    204420.41   -23254.999    1813.4265   -25068.425    16.543368   0.94632332 
    3800     239.5818   -387.56264    204420.41   -23257.327      1738.95   -24996.277    16.961644   0.94632332 
    3900    242.04712   -303.20307    204420.41   -23262.066    1756.8439    -25018.91    17.073419   0.94632332 
    4000    238.20414   -396.06063    204420.41   -23295.897    1728.9505   -25024.848    17.375159   0.94632332 
    4100    246.56552   -343.40135    204420.41    -23274.78    1789.6398   -25064.419    17.907341   0.94632332 
    4200    242.95462   -327.61158    204420.41   -23255.188    1763.4309   -25018.619    18.538952   0.94632332 
    4300    229.24437    -337.2678    204420.41   -23327.603    1663.9181   -24991.521    19.005638   0.94632332 
    4400    235.86908   -385.33938    204420.41   -23295.377     1712.002   -25007.379     19.65328   0.94632332 
    4500     235.5769   -145.31393    204420.41   -23309.197    1709.8813   -25019.078    20.007336   0.94632332 
    4600    240.52734   -422.38362    204420.41   -23355.991     1745.813   -25101.804    20.248924   0.94632332 
    4700    241.22803   -220.82591    204420.41   -23288.496    1750.8988   -25039.395    20.693956   0.94632332 
    4800    243.19509   -388.50358    204420.41   -23247.189    1765.1762   -25012.365     20.74847   0.94632332 
    4900    246.12877   -238.03299    204420.41   -23202.018    1786.4696   -24988.488    21.201057   0.94632332 
    5000    236.94769   -298.36312    204420.41    -23265.17    1719.8309       -24985     21.58602   0.94632332 
    5100    242.11059   -433.52037    204420.41   -23226.251    1757.3047   -24983.555    21.620296   0.94632332 
    5200    242.16937   -392.71925    204420.41   -23259.437    1757.7312   -25017.168    21.683629   0.94632332 
    5300    235.10798   -246.56388    204420.41   -23336.173    1706.4778   -25042.651    21.884469   0.94632332 
    5400    240.03573   -261.22005    204420.41   -23326.371    1742.2447   -25068.616    22.106316   0.94632332 
    5500    238.56609   -193.71673    204420.41   -23321.781    1731.5777   -25053.359    22.271485   0.94632332 
    5600    241.11292   -297.21191    204420.41   -23333.886    1750.0633   -25083.949    22.597418   0.94632332 
    5700    241.96214   -276.41396    204420.41   -23306.666    1756.2271   -25062.893    22.954911   0.94632332 
    5800    239.83833   -369.47992    204420.41   -23289.183    1740.8119   -25029.995    23.673256   0.94632332 
    5900    237.52544   -456.86613    204420.41   -23297.948    1724.0243   -25021.972    24.128616   0.94632332 
    6000    238.51969   -368.02225    204420.41   -23315.565    1731.2409   -25046.805    24.632305   0.94632332 
    6100    237.49627   -340.97302    204420.41   -23336.987    1723.8127     -25060.8    24.905647   0.94632332 
    6200    238.78634   -272.30717    204420.41   -23345.594    1733.1763    -25078.77    25.336735   0.94632332 
    6300     242.4124   -232.10094    204420.41   -23268.052    1759.4953   -25027.548    25.678089   0.94632332 
    6400    233.77726   0.19379807    204420.41   -23310.278     1696.819   -25007.097    25.962666   0.94632332 
    6500    240.70936   -217.57583    204420.41   -23320.917    1747.1341   -25068.051    26.213965   0.94632332 
    6600    240.22169   -431.76329    204420.41   -23321.114    1743.5945   -25064.708     26.27283   0.94632332 
    6700    238.54407    -428.3797    204420.41   -23347.353    1731.4179   -25078.771    26.617012   0.94632332 
    6800    237.64968   -299.73841    204420.41   -23330.701    1724.9261   -25055.628    27.291342   0.94632332 
    6900    245.29137   -373.08274    204420.41   -23286.308    1780.3916     -25066.7    27.725893   0.94632332 
    7000    249.34437   -475.25323    204420.41    -23302.67    1809.8094    -25112.48    27.933621   0.94632332 
    7100     236.6873    -372.8203    204420.41   -23313.367    1717.9409   -25031.308    27.899269   0.94632332 
    7200    238.25603   -447.54767    204420.41   -23387.537    1729.3272   -25116.864    28.265888   0.94632332 
    7300    231.69475   -370.50258    204420.41   -23423.363    1681.7036   -25105.066    28.723954   0.94632332 
    7400    230.99638   -190.53667    204420.41   -23386.998    1676.6347   -25063.633    29.359768   0.94632332 
    7500    236.87916   -83.471273    204420.41   -23362.293    1719.3335   -25081.626    29.695672   0.94632332 
    7600    245.58942   -411.93604    204420.41   -23325.249     1782.555   -25107.804    30.057465   0.94632332 
    7700    237.73775   -264.70382    204420.41   -23350.171    1725.5654   -25075.737    30.268428   0.94632332 
    7800     235.0384   -336.59636    204420.41   -23422.763    1705.9727   -25128.736    30.433588   0.94632332 
    7900    233.02094   -256.29123    204420.41   -23389.672    1691.3295   -25081.001    30.527058   0.94632332 
    8000    245.89115   -314.32319    204420.41    -23314.68     1784.745   -25099.425     30.56768   0.94632332 
    8100    249.76328   -302.56602    204420.41   -23291.872    1812.8499   -25104.722    31.077611   0.94632332 
    8200    237.49323   -267.08082    204420.41   -23307.696    1723.7906   -25031.487    31.487582   0.94632332 
    8300    242.65808   -259.86609    204420.41   -23263.143    1761.2784   -25024.422    31.943819   0.94632332 
    8400    239.80934   -606.30024    204420.41   -23247.595    1740.6015   -24988.196    32.139755   0.94632332 
    8500    234.89159   -474.11268    204420.41   -23271.185    1704.9071   -24976.093    32.499999   0.94632332 
    8600    243.97684   -309.13925    204420.41   -23277.363    1770.8504   -25048.214    32.855855   0.94632332 
    8700    239.62257   -210.39454    204420.41   -23318.033    1739.2459   -25057.279     32.91088   0.94632332 
    8800    242.74884   -207.32974    204420.41   -23337.912    1761.9373   -25099.849    32.827785   0.94632332 
    8900    239.67547   -349.66756    204420.41   -23392.093    1739.6299   -25131.723    33.113416   0.94632332 
    9000    238.20104    -250.3461    204420.41   -23357.462    1728.9281    -25086.39    33.080815   0.94632332 
    9100    237.05869    -238.1719    204420.41   -23377.099    1720.6366   -25097.735    33.421665   0.94632332 
    9200    244.01801   -207.73467    204420.41    -23330.28    1771.1492   -25101.429    33.634097   0.94632332 
    9300    237.42771   -370.51019    204420.41   -23413.239     1723.315   -25136.554    33.843641   0.94632332 
    9400    242.41544   -485.26731    204420.41   -23396.021    1759.5173   -25155.539    34.167422   0.94632332 
    9500    231.97118   -395.94868    204420.41   -23414.118    1683.7101   -25097.828    34.312274   0.94632332 
    9600    238.25156   -418.85655    204420.41   -23412.218    1729.2948   -25141.513    34.691462   0.94632332 
    9700    240.48917   -221.40652    204420.41   -23376.422    1745.5359   -25121.958    34.878909   0.94632332 
    9800    241.36279   -483.45243    204420.41   -23316.807    1751.8769   -25068.684    34.815306   0.94632332 
    9900    240.26267   -333.67069    204420.41   -23335.999    1743.8919   -25079.891    35.214684   0.94632332 
   10000    237.47071   -157.39045    204420.41   -23333.719    1723.6271   -25057.346    35.490513   0.94632332 
Loop time of 10.6438 on 64 procs for 10000 steps with 8482 atoms

Performance: 405.868 ns/day, 0.059 hours/ns, 939.510 timesteps/s
100.0% CPU use with 64 MPI tasks x no OpenMP threads

MPI task timing breakdown:
Section |  min time  |  avg time  |  max time  |%varavg| %total
---------------------------------------------------------------
Pair    | 0.00082934 | 3.9024     | 8.6096     | 168.3 | 36.66
Neigh   | 0.005089   | 0.23544    | 0.53902    |  36.7 |  2.21
Comm    | 0.19031    | 2.0589     | 8.1864     | 135.9 | 19.34
Output  | 0.15551    | 0.15558    | 0.15626    |   0.0 |  1.46
Modify  | 0.40491    | 4.1868     | 10.166     | 199.7 | 39.34
Other   |            | 0.1047     |            |       |  0.98

Nlocal:    132.531 ave 263 max 0 min
Histogram: 16 0 4 5 7 0 2 14 5 11
Nghost:    806.969 ave 1145 max 520 min
Histogram: 14 10 6 2 2 3 3 1 17 6
Neighs:    0 ave 0 max 0 min
Histogram: 64 0 0 0 0 0 0 0 0 0
FullNghs:  13297.9 ave 29047 max 0 min
Histogram: 16 16 0 0 0 0 2 8 10 12

Total # of neighbors = 851068
Ave neighs/atom = 100.338
Neighbor list builds = 578
Dangerous builds = 0
write_data 	    ${DIR}/data.${NAME}_eq
write_data 	    run_6/data.${NAME}_eq
write_data 	    run_6/data.ibeam_cooling_6_eq

undump              1
unfix               4



################################################
#######         Run Simulation         #########
################################################

reset_timestep      0
timestep	    10.0
log                 ${DIR}/log.run_${NAME}
log                 run_6/log.run_${NAME}
log                 run_6/log.run_ibeam_cooling_6
