
# Set production fixes - Nose/Hoover
#
fix                 4 water temp/csvr ${START_TEMP} ${END_TEMP} 500.0 928347
fix                 4 water temp/csvr 240 ${END_TEMP} 500.0 928347
fix                 4 water temp/csvr 240 227 500.0 928347


## divide "droplet" into core and surface
#region		core_reg cylinder z 135 135 44.6 20 INF units box
#region		surface_reg cylinder z 135 135 44.6 20 INF units box side out
#group		core dynamic all region core_reg
#group		surface dynamic all region surface_reg

## compute pressure core
#compute        peratom_core core stress/atom NULL
#compute        p_core core reduce sum c_peratom_core[1] c_peratom_core[2] c_peratom_core[3]
#variable       press_core equal -(c_p_core[1]+c_p_core[2]+c_p_core[3])/(3*1249982.5)


## compute pressure surface
#compute        peratom_surf surface stress/atom NULL
#compute        p_surf surface reduce sum c_peratom_surf[1] c_peratom_surf[2] #c_peratom_surf[3]
#variable       press_surf equal -(c_p_surf[1]+c_p_surf[2]+c_p_surf[3])/(3*42395)

## compute total pressure of drop
compute        peratom water stress/atom NULL
compute        p water reduce sum c_peratom[1] c_peratom[2] c_peratom[3]
variable       press equal -(c_p[1]+c_p[2]+c_p[3])/(3*58301)


# compute order parameter
compute        3 all orientorder/atom nnn NULL cutoff 3.5

# compute center of mass of bridge
compute 	4 water com

# Run simulation
thermo_style        custom step c_2 press vol etotal ke pe v_press c_1[4] c_4[*]
thermo              200
dump		     1 water custom 400 ${DIR}/prod.${NAME}.dump id type x y z vx vy vz c_3[*] c_peratom[*]
dump		     1 water custom 400 run_6/prod.${NAME}.dump id type x y z vx vy vz c_3[*] c_peratom[*]
dump		     1 water custom 400 run_6/prod.ibeam_cooling_6.dump id type x y z vx vy vz c_3[*] c_peratom[*]
run                 ${STEPS}
run                 5200000
Neighbor list info ...
  update every 1 steps, delay 0 steps, check yes
  max neighbors/atom: 2000, page size: 100000
  master list distance cutoff = 6.67472
  ghost atom cutoff = 6.67472
  binsize = 3.33736, bins = 57 9 12
  2 neighbor lists, perpetual/occasional/extra = 1 1 0
  (1) pair sw, perpetual
      attributes: full, newton on
      pair build: full/bin/atomonly
      stencil: full/bin/3d
      bin: standard
  (2) compute orientorder/atom, occasional, copy from (1)
      attributes: full, newton on
      pair build: copy
      stencil: none
      bin: none
Per MPI rank memory allocation (min/avg/max) = 6.163 | 6.808 | 7.286 Mbytes
Step c_2 Press Volume TotEng KinEng PotEng v_press c_1[4] c_4[1] c_4[2] c_4[3] 
       0    237.47071   -157.39045    204420.41   -23333.719    1723.6271   -25057.346   -11.862541    35.490513    95.095482    14.537789    27.851208 
     200    236.39491   -489.35636    204420.41   -23344.657    1715.8187   -25060.476   -1229.7032    37.551247    95.095564    14.537298    27.861147 
     400    235.90431   -495.50742    204420.41   -23321.041    1712.2577   -25033.299   -1187.3375     38.56998    95.094942    14.537513    27.853635 
     600    242.78303   -179.72844    204420.41   -23196.537    1762.1854   -24958.723    -124.9581    39.351561    95.094461     14.53598    27.876634 
     800    240.97348   -467.49714    204420.41   -23229.277    1749.0512   -24978.328    -1095.513    40.382809    95.095447    14.535186    27.894691 
    1000    240.14288   -514.37255    204420.41   -23267.489    1743.0224   -25010.511    -1285.315    41.715604    95.094989    14.535164    27.889964 
    1200    245.29902   -234.96173    204420.41   -23229.897    1780.4472   -25010.344   -266.26464    43.540942    95.095625    14.535594    27.883959 
    1400     240.3565    -310.0037    204420.41   -23198.257    1744.5729    -24942.83   -577.98675    45.677437    95.097854    14.537222    27.899785 
    1600    241.82894   -266.37559    204420.41   -23201.557    1755.2603   -24956.817   -379.66895    47.069417    95.099195    14.537578    27.899037 
    1800    241.03866   -454.10038    204420.41   -23185.144    1749.5242   -24934.668   -1080.7611    48.666734    95.099676    14.533397    27.889153 
    2000    242.33303   -172.15528    204420.41    -23118.33    1758.9191   -24877.249   -43.037551    50.127236    95.099658    14.530007    27.906624 
    2200    233.88969   -410.90346    204420.41   -23153.542    1697.6351   -24851.178   -911.75943    51.135306    95.098292    14.528117    27.906065 
    2400    245.99555   -98.569899    204420.41   -23136.771    1785.5027   -24922.274    129.89553    52.663896    95.099837    14.525462    27.901019 
    2600    238.26506    -405.3633    204420.41    -23223.93    1729.3928   -24953.323   -895.29835    54.611754    95.099177    14.526059    27.899286 
    2800    243.63642   -448.89064    204420.41   -23155.949    1768.3795   -24924.328   -1046.4572    55.942636    95.098275    14.527815    27.903968 
    3000    244.28602   -342.34236    204420.41   -23190.756    1773.0945   -24963.851   -700.31078    56.962689    95.099894     14.52901    27.909079 
    3200    238.73302   -322.92559    204420.41   -23275.498    1732.7893   -25008.287   -606.63829    59.297925    95.099628    14.528682    27.915547 
    3400    235.78595   -399.40701    204420.41   -23279.299    1711.3987   -24990.698   -872.69872    60.140436    95.099738    14.528147    27.934711 
    3600    241.21707   -171.70979    204420.41   -23275.409    1750.8192   -25026.228   -82.423436    62.095852    95.099584    14.528164    27.949452 
    3800    246.36566   -484.56046    204420.41   -23259.744    1788.1891   -25047.933   -1161.3087      62.6255     95.10063    14.526936    27.948588 
    4000    239.83232   -176.31497    204420.41   -23275.093    1740.7683   -25015.861   -50.458578    63.036873    95.099761    14.528187    27.959047 
    4200    240.55877   -356.84226    204420.41   -23187.852    1746.0411   -24933.893   -720.29107    64.415947    95.099264    14.529451    27.938339 
    4400     235.9096   -360.35564    204420.41   -23230.986    1712.2961   -24943.282   -721.07484    65.597007    95.099692    14.527209     27.92522 
    4600    238.39457   -244.36035    204420.41   -23299.511    1730.3327   -25029.844   -304.07855    67.198958    95.101263    14.524882     27.93399 
    4800    240.56679   -355.01686    204420.41   -23169.394    1746.0993   -24915.494   -693.90803    68.015447    95.101785    14.522891    27.951104 
    5000     236.6718    -228.4562    204420.41   -23189.875    1717.8284   -24907.703   -301.50046    69.162982    95.101788    14.522629    27.935803 
    5200    238.31873   -335.47014    204420.41   -23211.382    1729.7822   -24941.165   -656.80382    71.334294    95.102512     14.52388    27.940521 
    5400    238.42788   -483.05001    204420.41   -23241.145    1730.5745    -24971.72   -1151.0513    72.786185    95.103057    14.522672     27.96378 
    5600    234.40098    -376.6608    204420.41   -23247.105    1701.3462   -24948.452    -770.0978    74.457739    95.103088    14.525246     27.95173 
    5800    244.45999   -236.62033    204420.41   -23191.591    1774.3572   -24965.948   -293.46425    76.397354    95.102636    14.527204    27.982823 
    6000    237.56297   -182.32283    204420.41   -23194.809    1724.2967   -24919.106   -122.81395    78.955721    95.102004    14.529031    28.008627 
    6200    234.95935   -311.02426    204420.41   -23217.507     1705.399   -24922.906   -563.69853    79.995907    95.101851    14.530118    27.997104 
    6400    234.27957   -476.73365    204420.41   -23190.305    1700.4649    -24890.77    -1164.051    82.772171    95.102289    14.530977    27.972627 
    6600    243.02598   -233.66891    204420.41   -23192.708    1763.9488   -24956.657   -315.25929     83.99357    95.100766     14.52963    27.965632 
    6800    237.91095   -449.69055    204420.41   -23205.303    1726.8225   -24932.126   -1087.3477    86.398584     95.10152    14.529419    27.977642 
    7000    240.59682    -465.8748    204420.41   -23155.798    1746.3172   -24902.115   -1096.3553    87.822763    95.103021    14.531311    27.957615 
    7200    237.14484   -370.18147    204420.41   -23290.908    1721.2619    -25012.17   -785.81242    89.734253     95.10215    14.530278       27.937 
    7400    238.28836   -360.37921    204420.41   -23231.004    1729.5619   -24960.566    -737.8518    91.782971    95.101147    14.530507    27.930502 
    7600     244.3016   -241.80141    204420.41   -23155.342    1773.2076    -24928.55   -361.05518    93.629168    95.100929    14.533087    27.949022 
    7800    232.74398   -380.64118    204420.41   -23272.341    1689.3192    -24961.66    -810.8685    94.040399     95.10129    14.536159    27.945298 
    8000    243.15199    -339.0989    204420.41   -23187.331    1764.8634   -24952.194   -659.95594    96.511512    95.099738    14.539057    27.952458 
    8200    245.12411   -425.79285    204420.41   -23203.347    1779.1776   -24982.524   -933.49351     97.64584     95.09791    14.541144    27.954981 
    8400    238.68674   -294.98434    204420.41   -23161.425    1732.4534   -24893.878   -512.63687    100.08516    95.098333    14.540857     27.95834 
    8600    236.30036   -376.14318    204420.41   -23190.948    1715.1324    -24906.08   -789.47082     102.6245       95.098    14.542245    27.971005 
    8800    240.51714   -258.39924    204420.41   -23204.441    1745.7389   -24950.179   -383.46109    104.40141    95.098337    14.542834    27.976197 
    9000    241.09939    -422.2724    204420.41   -23200.062     1749.965   -24950.028   -945.69083     104.5385    95.099512    14.541993    27.978858 
    9200    240.88995   -443.42968    204420.41   -23173.043    1748.4449   -24921.488    -1027.374    106.03496    95.100418    14.541578    27.967627 
    9400    239.41912   -225.53395    204420.41   -23217.079    1737.7692   -24954.848   -287.97126    107.71864    95.099825    14.539795    27.993813 
    9600    237.87967   -482.08539    204420.41   -23247.701    1726.5954   -24974.296   -1164.8005    109.19698    95.097781    14.540027    27.980571 
    9800    245.12183   -223.39524    204420.41   -23123.854    1779.1611   -24903.015   -301.24805    110.13476    95.098814    14.539561    28.005262 
   10000    242.51091   -323.96091    204420.41   -23176.808    1760.2103   -24937.019    -600.0336    111.86961    95.098771    14.539697    28.010979 
   10200    246.12331   -233.25849    204420.41   -23116.252    1786.4301   -24902.682   -327.77953    113.60933    95.101121    14.539588    28.005596 
   10400    243.86646    -377.4617    204420.41   -23144.657    1770.0492   -24914.706   -781.03371    114.97223    95.102821    14.536364     27.98983 
   10600     248.3977   -161.10962    204420.41   -23205.773    1802.9382   -25008.711   -29.562235    115.71849    95.102609    14.535402    27.976466 
   10800    238.35066   -388.16574    204420.41   -23277.795     1730.014   -25007.809   -881.13855     116.3763    95.102644    14.534273    27.980693 
   11000    237.64878   -179.90446    204420.41   -23283.801    1724.9196   -25008.721   -99.036211    118.24016    95.102353    14.533511    27.979521 
   11200    237.40143   -420.65936    204420.41   -23291.502    1723.1243   -25014.627   -927.20259    121.22047    95.102809    14.533601    27.977006 
   11400    233.47537   -532.57541    204420.41   -23243.181    1694.6279   -24937.809   -1343.1566    122.13098    95.102686    14.530067    27.975815 
   11600    246.96407    -420.7368    204420.41   -23140.123    1792.5325   -24932.656   -968.23558    124.10638    95.102794    14.528334    27.983373 
   11800    245.19156   -309.79835    204420.41   -23164.495    1779.6672   -24944.162   -575.70098    125.91505    95.103044     14.52722    27.981692 
   12000    242.19906   -200.60059    204420.41   -23160.399    1757.9468   -24918.346   -170.99133    126.93021    95.104325    14.526048    27.995881 
   12200    246.73871   -379.31282    204420.41   -23183.243    1790.8968    -24974.14   -828.59709    128.33578    95.105093    14.525145    27.991127 
   12400    237.47536   -311.86516    204420.41    -23184.76    1723.6608   -24908.421   -569.74527    129.76764    95.104142    14.525538    27.989127 
   12600    247.63806   -338.61706    204420.41   -23150.232    1797.4245   -24947.657   -663.41221    131.77591    95.102829    14.525014    27.977804 
   12800     246.7981   -265.39745    204420.41   -23215.491    1791.3279   -25006.819   -414.74871    134.33069    95.103333    14.526595    27.965241 
   13000    240.03165   -310.97334    204420.41   -23258.434    1742.2151   -25000.649   -578.08592    135.43054    95.104659    14.526333    27.969981 
   13200     241.2584   -429.90547    204420.41   -23276.361    1751.1192   -25027.481   -964.51569    137.75574    95.107006    14.526987    27.972526 
   13400    235.71413   -418.69079    204420.41   -23325.847    1710.8774   -25036.724   -931.48415    139.23362    95.104747    14.529095    27.996555 
   13600    233.55595   -239.53676    204420.41   -23274.321    1695.2127   -24969.534   -278.52193    139.12937      95.1046    14.527485    27.997079 
   13800    237.99224   -517.86864    204420.41   -23243.576    1727.4126   -24970.989   -1279.2537    140.27066    95.105555    14.526169    27.978562 
   14000    250.48958   -510.19426    204420.41    -23177.09    1818.1216   -24995.212   -1261.1308    142.49763    95.104766    14.529372    27.980587 
   14200    237.33491   -420.84767    204420.41   -23243.316    1722.6415   -24965.957   -983.07514    144.46765    95.106803    14.529527    27.982529 
   14400    233.10349   -398.23556    204420.41    -23310.41    1691.9286   -25002.339   -851.29985    144.44151    95.108664    14.527986    27.997732 
   14600    239.76874   -342.94746    204420.41   -23294.682    1740.3069   -25034.988   -648.56691    145.61208    95.108945    14.530637     27.99683 
   14800    241.94539   -248.28839    204420.41   -23200.636    1756.1056   -24956.742    -340.8162    147.06543    95.108798    14.532334    28.001108 
   15000    240.32066   -371.09555    204420.41   -23271.528    1744.3128   -25015.841   -770.37243    149.83487    95.109286    14.534364    28.001236 
   15200      235.225   -434.43962    204420.41   -23204.486    1707.3271   -24911.813   -986.10015    151.20407    95.107618    14.535039    27.961917 
   15400    243.63139   -532.07838    204420.41   -23269.952     1768.343   -25038.295   -1322.7988    151.98245    95.106949    14.532826    27.924062 
   15600    250.09403   -219.82956    204420.41   -23134.166    1815.2506   -24949.417   -270.88418    152.11194    95.105735    14.534086    27.922034 
   15800    245.62761   -457.40745    204420.41   -23167.959    1782.8322   -24950.791   -1109.3355    153.42221    95.106032    14.535624    27.931646 
   16000    239.79377   -386.00776    204420.41   -23236.347    1740.4885   -24976.835   -847.09048    154.78294     95.10598    14.537556    27.918026 
   16200    242.86715   -188.62525    204420.41   -23189.196    1762.7959   -24951.992   -138.95263     154.1502    95.107463    14.539653     27.91965 
   16400    234.44089   -72.317064    204420.41   -23245.865    1701.6359   -24947.501    255.87557    155.26091    95.107488     14.53903    27.918971 
   16600    248.97002   -304.13523    204420.41   -23148.766    1807.0922   -24955.858   -568.48502    157.78359    95.108855    14.538222    27.913545 
   16800    239.86538   -357.30275    204420.41   -23211.578    1741.0083   -24952.586   -726.36506    158.23145    95.109068    14.536718    27.909793 
   17000    238.39097   -319.54166    204420.41   -23257.104    1730.3066   -24987.411   -597.10539    159.47994    95.109477     14.53519    27.909285 
   17200    234.99679   -404.37128    204420.41   -23202.627    1705.6707   -24908.298   -903.15668    161.06275    95.110271    14.534854    27.918582 
   17400    234.30636   -456.92449    204420.41   -23274.028    1700.6594   -24974.687   -1086.8892    162.92499    95.110001    14.534844    27.905583 
   17600    234.62856   -467.44898    204420.41   -23179.332     1702.998    -24882.33   -1143.7821    163.33382    95.109005    14.534078    27.897888 
   17800    242.99663   -281.45443    204420.41   -23207.445    1763.7357   -24971.181   -443.66328     166.0939    95.108592    14.533691    27.922576 
   18000    246.18184   -452.74117    204420.41   -23161.991    1786.8548   -24948.845   -1072.2021    168.66258    95.107787     14.53116    27.925797 
   18200    236.81228   -316.05988    204420.41   -23189.297    1718.8481   -24908.145   -576.82031    171.05847    95.107744    14.530794    27.942337 
   18400    243.17329   -328.33732    204420.41   -23178.492     1765.018    -24943.51   -610.30294    173.96967    95.107858    14.530085    27.942981 
   18600    239.04912   -453.73119    204420.41   -23151.808    1735.0836   -24886.892   -1063.4461    175.13104    95.109057    14.531782    27.954518 
   18800    237.69302    -403.8558    204420.41   -23232.345    1725.2407   -24957.586   -904.83938    177.22994    95.110779    14.533879    27.954521 
   19000    244.03093   -269.63219    204420.41   -23202.237     1771.243    -24973.48   -423.38168    176.96033    95.111619    14.533716     27.96493 
   19200    237.79264   -307.86063    204420.41   -23200.311    1725.9637   -24926.275   -558.93127    179.51497    95.112216    14.535769     27.95009 
   19400    241.48681   -378.00251    204420.41   -23152.953    1752.7771    -24905.73   -782.76857    182.09366    95.111865    14.540059    27.930403 
   19600    240.81414    -351.8259    204420.41   -23159.632    1747.8946   -24907.527   -663.95778    183.03561    95.110759    14.542636    27.914589 
   19800    241.81095   -397.80727    204420.41   -23171.908    1755.1298   -24927.038   -868.20478    184.75196    95.112511    14.545733    27.907602 
   20000      241.406   -425.38643    204420.41   -23196.897    1752.1905   -24949.087   -917.82052    186.86412    95.114731    14.545176    27.913342 
   20200    231.02141    -351.4538    204420.41    -23295.37    1676.8163   -24972.186   -733.96683    188.05242    95.114476    14.543205    27.916941 
   20400    247.22203   -199.58563    204420.41   -23168.749    1794.4049   -24963.154   -146.92113    188.65377    95.114313    14.542888    27.931566 
   20600    236.10768   -406.68508    204420.41   -23274.748    1713.7339   -24988.482   -886.26284    189.27014    95.115553    14.543642    27.965308 
   20800    238.92483   -500.47509    204420.41   -23192.972    1734.1815   -24927.153   -1183.8549    188.93557    95.116177    14.544753     27.96579 
   21000     241.2449   -404.31342    204420.41   -23232.491    1751.0212   -24983.512   -892.64596     189.9497    95.115749    14.546605    27.961748 
   21200    244.90318   -467.06249    204420.41    -23214.18     1777.574   -24991.754   -1092.4151    190.02053    95.117135    14.547967    27.947839 
   21400    238.99709   -104.24911    204420.41   -23235.335     1734.706   -24970.041    179.52422     191.2899    95.117185    14.550202    27.954378 
   21600    247.36234      -284.34    204420.41   -23131.696    1795.4232   -24927.119   -435.38632    192.53909    95.116795    14.549384    27.953692 
   21800    241.42782   -325.97384    204420.41   -23255.253    1752.3489   -25007.602   -617.80377    194.00093    95.116429    14.548312    27.956728 
   22000    236.30801   -258.47527    204420.41   -23276.662    1715.1879    -24991.85   -394.65623    194.79794    95.113522    14.546999    27.950726 
   22200    235.14512   -333.93709    204420.41   -23290.055    1706.7474   -24996.803   -629.35486    195.97848    95.113187    14.545858    27.956954 
   22400    240.18047    -303.2188    204420.41   -23154.273    1743.2953   -24897.568   -522.21386     198.5846    95.112346    14.545382    27.933523 
   22600    233.67331   -464.27486    204420.41    -23215.98    1696.0646   -24912.045   -1086.0066    200.48563    95.112245    14.546835    27.920716 
   22800    241.34358    -203.0523    204420.41    -23192.78    1751.7374   -24944.517   -170.41771    202.10093    95.110949    14.548459    27.936872 
   23000    235.39533   -428.07134    204420.41   -23281.111    1708.5635   -24989.674   -970.15439    205.01008    95.112307    14.547663    27.941448 
   23200    242.94437   -255.50955    204420.41   -23247.378    1763.3564   -25010.735   -407.91429    206.91335    95.112714    14.547135    27.942228 
   23400    235.43662   -478.63136    204420.41   -23220.089    1708.8631   -24928.952   -1165.7027    206.52863    95.113506    14.543755    27.953996 
   23600    243.22926   -269.70965    204420.41   -23145.333    1765.4242   -24910.757   -425.90095    207.07596    95.112928    14.544864    27.958144 
   23800    239.94148   -358.40778    204420.41   -23158.695    1741.5607   -24900.255   -706.24953    207.65908    95.111806    14.545773    27.957144 
   24000    239.59374   -283.09928    204420.41   -23223.155    1739.0367   -24962.192   -482.04555    208.67671    95.111246    14.545471    27.949412 
   24200    243.03375    -330.4887    204420.41   -23225.492    1764.0052   -24989.497    -616.7986    210.72892     95.11101    14.545812    27.946676 
   24400    233.28967   -417.41299    204420.41   -23257.316      1693.28   -24950.596   -930.21214    213.87506    95.110669    14.547381    27.945952 
   24600    232.61756   -540.77463    204420.41   -23286.271    1688.4017   -24974.673   -1387.6474    214.63065    95.110892    14.547252    27.939167 
   24800    239.81861   -245.91984    204420.41   -23244.817    1740.6688   -24985.486   -334.33308    214.65298    95.107747    14.546533    27.930161 
   25000    236.56262   -415.22726    204420.41   -23226.192    1717.0359   -24943.228    -909.8631    217.04666    95.106084    14.546225    27.913233 
   25200    232.85789   -440.59042    204420.41   -23405.058     1690.146   -25095.204   -1032.0252    217.99248    95.104547    14.546292    27.887965 
   25400    234.90153   -323.11971    204420.41   -23282.185    1704.9793   -24987.165   -620.84011    217.80687    95.104269    14.546652    27.899563 
   25600    252.33799   -194.84213    204420.41   -23088.836    1831.5379   -24920.374   -140.81861    218.57911    95.103899    14.545453    27.896068 
   25800    239.90101    -247.0666    204420.41   -23127.337    1741.2669   -24868.604   -351.24139    220.78683    95.103197    14.544521     27.90053 
   26000     237.2581    -266.0797    204420.41   -23168.935     1722.084   -24891.019   -390.57828    221.33631    95.103779    14.544663    27.899196 
   26200    238.79632   -404.51933    204420.41   -23204.473    1733.2487   -24937.722   -913.21154    222.72885    95.104417     14.54142    27.895313 
   26400    242.97979   -248.48288    204420.41   -23246.537    1763.6135   -25010.151   -380.90061    222.82596    95.106748    14.540415    27.909982 
   26600    240.90471    -349.2846    204420.41   -23185.918     1748.552    -24934.47    -690.9286      225.385    95.107781    14.538519    27.911342 
   26800     240.1591   -285.20802    204420.41   -23193.548    1743.1402   -24936.688   -524.95153    227.02502    95.107601    14.537721    27.904493 
   27000    243.02532   -244.20138    204420.41   -23091.482     1763.944   -24855.426   -333.26318    230.05741    95.107795    14.537929    27.916563 
   27200     242.5745   -270.88897    204420.41   -23177.745    1760.6718   -24938.417   -422.86467    231.54803    95.108199    14.541434    27.920988 
   27400    240.26284   -458.35835    204420.41   -23128.876    1743.8932   -24872.769   -1070.5422    233.66542    95.109522    14.539346    27.928371 
   27600    233.50557   -178.58065    204420.41   -23226.936    1694.8471   -24921.783   -99.942885    235.64676    95.111009    14.538112    27.945647 
   27800    243.80682   -99.412158    204420.41   -23094.671    1769.6163   -24864.288    220.43535    237.41226    95.109902    14.537137    27.951801 
   28000     235.8929    -548.0474    204420.41   -23232.858    1712.1749   -24945.033   -1383.9328    238.57858    95.111286    14.538299    27.924564 
   28200    235.83734   -561.99057    204420.41    -23160.61    1711.7717   -24872.382   -1442.6767    241.95243    95.113198    14.537961    27.932344 
   28400    239.88278   -441.68845    204420.41   -23201.477    1741.1346   -24942.612   -1012.6804    244.25501    95.112999    14.538247    27.942077 
   28600    241.68801   -215.71101    204420.41   -23203.259    1754.2374   -24957.496   -235.82294    246.57445    95.112752    14.536674    27.939801 
   28800    243.59169   -195.35424    204420.41   -23208.385    1768.0549    -24976.44   -150.16425    248.24334    95.113046    14.535032    27.929401 
   29000    247.64473   -442.73385    204420.41   -23173.021     1797.473   -24970.494   -1032.5289    250.15821    95.114653    14.533433    27.921927 
   29200    240.02247   -389.35771    204420.41   -23179.855    1742.1485   -24922.004   -825.76435    251.80179    95.113988    14.530637    27.903532 
   29400    240.93738   -462.72007    204420.41   -23207.993    1748.7891   -24956.782   -1096.8209    253.84676    95.112173    14.527312    27.896437 
   29600    234.62037   -192.32364    204420.41   -23234.542    1702.9385   -24937.481   -199.40588    253.45205    95.111548     14.52669    27.869627 
   29800    241.97764   -431.35403    204420.41   -23338.402    1756.3396   -25094.742   -966.76068    255.11908    95.112776    14.525379    27.866096 
   30000    238.18851   -321.21057    204420.41   -23414.347    1728.8371   -25143.185   -625.05347    256.21861    95.112747    14.523172    27.887779 
   30200    234.14192   -425.89327    204420.41   -23356.594    1699.4659    -25056.06   -941.52141     255.7961     95.11286    14.523057    27.886773 
   30400    240.75891   -331.05724    204420.41   -23367.006    1747.4938     -25114.5   -674.40199    256.23247    95.113662    14.521333    27.908847 
   30600     236.5151   -287.86729    204420.41   -23417.066     1716.691   -25133.757   -508.70393    258.18065    95.113729    14.519556    27.930029 
   30800     242.3983   -360.60832    204420.41   -23344.055    1759.3929   -25103.448   -736.65487    258.37938    95.112492    14.518684    27.938274 
   31000    234.62797   -400.04587    204420.41   -23312.365    1702.9937   -25015.358   -888.19028    260.17082    95.111089    14.518836    27.969897 
   31200    241.50506    -192.9522    204420.41   -23266.416    1752.9095   -25019.325   -132.48028     262.3947    95.110213    14.520724     27.97694 
   31400    240.86777   -301.36062    204420.41   -23246.313    1748.2839   -24994.597   -515.11095    265.11497    95.110479    14.518883    28.007568 
   31600    237.52221   -569.64501    204420.41   -23292.782    1724.0009   -25016.783   -1440.5932    266.58504    95.109432    14.520536    27.994404 
   31800    244.33853   -150.28421    204420.41   -23233.245    1773.4756   -25006.721   -5.7691861    265.52301    95.108382     14.51939    27.997842 
   32000    239.60767    -274.1492    204420.41   -23299.448    1739.1377   -25038.585   -453.04976    267.10492    95.109774    14.519659    27.979759 
   32200    239.71001   -424.41978    204420.41    -23319.82    1739.8806     -25059.7   -929.89924    269.17856        95.11     14.51815     27.98968 
   32400    230.63183   -456.73131    204420.41   -23322.264    1673.9887   -24996.253   -1041.2254    270.94864    95.109783    14.517864    27.982999 
   32600    232.47719   -351.12251    204420.41   -23225.659    1687.3828   -24913.042   -699.12905    273.18989    95.109688      14.5203     27.96876 
   32800    239.91981   -357.79331    204420.41   -23213.389    1741.4034   -24954.793   -687.54595    273.97332     95.10866    14.523979    27.959282 
   33000    244.42326   -293.31651    204420.41    -23205.76    1774.0906   -24979.851   -480.91238      274.203    95.108545    14.523786    27.971716 
   33200    239.47467   -122.70033    204420.41   -23261.301    1738.1724   -24999.473    102.36527    276.96148    95.107725    14.523544    27.944106 
   33400    238.80633   -321.48993    204420.41   -23283.548    1733.3214    -25016.87   -575.03065    278.46512    95.107809    14.521896    27.935603 
   33600    234.08621   -400.90765    204420.41    -23301.63    1699.0615   -25000.692    -861.6328    279.30315    95.107019    14.520896    27.926275 
   33800    245.70027   -229.56598    204420.41    -23158.12    1783.3595   -24941.479   -275.82625    279.91715     95.10561    14.520204     27.91434 
   34000    241.15271   -117.31354    204420.41   -23247.073    1750.3521   -24997.426    122.40058    282.31491    95.107485    14.520559    27.915286 
   34200    235.35239   -474.39735    204420.41   -23249.604    1708.2518   -24957.856   -1118.2611    282.45066    95.108474    14.524893    27.903514 
   34400    236.08032   -166.86457    204420.41   -23318.732    1713.5353   -25032.267   -91.416397    281.98572    95.107156    14.526936    27.894821 
   34600    248.38876   -442.87923    204420.41   -23160.006    1802.8733   -24962.879   -988.26108    286.02028      95.1063     14.52572    27.912026 
   34800    236.74048   -445.96986    204420.41   -23277.109    1718.3269   -24995.436   -1024.7285     286.2556     95.10427    14.525814    27.929129 
   35000    235.89942   -451.23999    204420.41   -23259.703    1712.2222   -24971.925   -1083.8439    286.62678    95.103926    14.527427    27.935618 
   35200    238.63419   -341.76093    204420.41   -23159.037     1732.072   -24891.109   -673.86527    285.85771    95.103005    14.527029    27.929312 
   35400    242.64569   -97.616526    204420.41   -23197.604    1761.1885   -24958.792    159.59512    287.00977    95.104501    14.528278    27.926101 
   35600    236.89246   -380.46325    204420.41   -23224.302      1719.43   -24943.732   -841.07463     289.7514    95.103356    14.533049      27.9271 
   35800    250.71219   -319.16704    204420.41    -23136.82    1819.7374   -24956.558   -560.09721    291.87339    95.102978    14.530035    27.920563 
   36000    243.03429   -91.782059    204420.41   -23260.361    1764.0091    -25024.37    203.76673    293.61907    95.103359    14.528758    27.932416 
   36200    240.06819   -364.74146    204420.41    -23258.39    1742.4803   -25000.871   -751.62667    294.66194    95.102268    14.531287    27.929346 
   36400    240.32589   -344.92473    204420.41   -23183.931    1744.3508   -24928.282   -695.30747    295.42018    95.103074    14.529161    27.951739 
   36600    242.47444   -341.93749    204420.41   -23168.651    1759.9456   -24928.597    -642.5524    297.18509    95.102879    14.526297    27.949247 
   36800    233.51785   -366.16045    204420.41   -23240.024    1694.9362   -24934.961   -757.65432     297.9062    95.103667    14.523955    27.977467 
   37000    235.47076    -274.6614    204420.41   -23231.453     1709.111   -24940.564   -415.44163    300.69722    95.102748    14.523971    27.950352 
   37200    237.14431   -253.84053    204420.41    -23227.11     1721.258   -24948.368   -381.57785    301.92103    95.103913    14.523446     27.94751 
   37400    239.47383   -458.85689    204420.41   -23226.838    1738.1663   -24965.005   -1083.6343    301.89638    95.102752    14.522992    27.951247 
   37600     237.7769    -364.1817    204420.41   -23262.754    1725.8495   -24988.603   -736.84362    301.59703    95.102955    14.521673    27.952257 
   37800    237.68478   -199.72986    204420.41     -23324.8    1725.1809   -25049.981   -173.36285     303.8775    95.102826    14.519763     27.94607 
   38000    240.36713   -346.82849    204420.41   -23217.746    1744.6501   -24962.396   -709.99537    304.99558    95.103046    14.515342    27.936806 
   38200    235.34269   -506.19652    204420.41   -23248.435    1708.1814   -24956.617   -1241.3832    308.82779    95.101808     14.51155    27.934712 
   38400    240.12987   -244.92183    204420.41   -23151.568    1742.9281   -24894.496   -349.05221    311.09063    95.101993    14.509912    27.947866 
   38600    234.20218    -517.3437    204420.41   -23199.638    1699.9032   -24899.542   -1297.3612    311.79202     95.10124    14.509284    27.923941 
   38800    240.19706   -228.01247    204420.41   -23203.104    1743.4157   -24946.519   -304.99367    311.80593    95.101727    14.507084    27.919496 
   39000    248.29303   -433.77445    204420.41   -23166.288    1802.1784   -24968.467   -991.08658    312.56339     95.10202    14.501796    27.903677 
   39200    239.55568   -323.57656    204420.41   -23260.479    1738.7604   -24999.239   -629.51814    313.57831    95.102202    14.503305    27.893087 
   39400    246.68549   -105.55223    204420.41   -23282.562    1790.5105   -25073.072    135.79811     313.7641    95.102069    14.503259    27.873751 
   39600    238.45929   -383.50313    204420.41   -23219.093    1730.8025   -24949.896   -807.93553    316.40616    95.101101    14.503245    27.895087 
   39800     234.8473   -422.12018    204420.41   -23236.773    1704.5857   -24941.358   -953.38263    319.37015    95.101359    14.503802    27.876472 
   40000    239.57129   -317.55022    204420.41   -23213.235    1738.8737   -24952.109   -570.03086     319.2372    95.100166     14.50424    27.861768 
   40200     239.3375   -384.46345    204420.41    -23208.17    1737.1768   -24945.347   -864.62185    320.85253    95.100535    14.505246    27.859744 
   40400    240.42721   -299.47793    204420.41   -23278.449    1745.0862   -25023.535   -558.88674      320.594     95.10115    14.507166    27.862455 
   40600    239.71006   -424.29155    204420.41   -23180.865    1739.8809   -24920.746   -989.32793    322.67552    95.101193    14.507314    27.858881 
   40800    240.24669   -355.40217    204420.41   -23272.773    1743.7759   -25016.549   -717.35232     325.0588    95.102376    14.509172    27.860726 
   41000    236.99365    -138.3083    204420.41   -23272.671    1720.1645   -24992.836    26.743882    325.52669    95.102888    14.513363    27.864951 
   41200    241.28003   -300.84195    204420.41   -23186.311    1751.2762   -24937.588   -507.65934    327.08699    95.104146    14.514261    27.864047 
   41400    245.17343   -271.68273    204420.41   -23275.394    1779.5356   -25054.929   -495.35584    327.72841    95.104728    14.515606    27.879914 
   41600    245.02337   -240.35094    204420.41   -23220.861    1778.4464   -24999.308   -276.85627    328.81745    95.106146    14.515585    27.887728 
   41800    238.36599   -232.41901    204420.41   -23208.742    1730.1253   -24938.867   -306.21921    330.64847    95.107028    14.514342    27.906882 
   42000    243.70912   -204.22246    204420.41   -23238.555    1768.9072   -25007.462   -196.91349    331.54101    95.107781    14.514467    27.908044 
   42200    238.75168   -254.50717    204420.41   -23321.602    1732.9247   -25054.527   -378.02215    333.46941    95.109435    14.511896    27.907433 
   42400    240.03447   -421.32109    204420.41   -23280.193    1742.2356   -25022.429    -958.5721    333.56261    95.110571     14.51347    27.900922 
   42600    241.86361   -293.81427    204420.41   -23275.076     1755.512   -25030.588   -499.91143    334.07765    95.111262    14.511843    27.895771 
   42800    239.68047   -333.39667    204420.41   -23268.726    1739.6662   -25008.392   -673.43753    335.51295     95.11139      14.5118    27.900513 
   43000    242.96013   -436.44657    204420.41   -23284.218    1763.4708   -25047.689   -1011.4248    336.59416    95.112058    14.510282    27.891201 
   43200    236.17744   -372.00915    204420.41   -23248.318    1714.2402   -24962.558   -809.48758    339.98582    95.112324    14.508929    27.866432 
   43400    239.02769   -193.36651    204420.41   -23281.619    1734.9281   -25016.547   -149.24414    341.33527    95.112177    14.505352    27.886777 
   43600      238.248   -442.75086    204420.41   -23299.676    1729.2689   -25028.945   -1074.7415    343.05847    95.111903    14.503585     27.88016 
   43800    240.56838   -438.38084    204420.41    -23323.37    1746.1108   -25069.481   -1026.8637    344.53753    95.111584    14.503195     27.86717 
   44000    231.85519   -330.19435    204420.41   -23364.147    1682.8682   -25047.015   -658.42481    347.82066    95.112281    14.502348     27.84923 
   44200    235.22197   -439.01808    204420.41   -23304.945    1707.3051    -25012.25   -1003.2632    346.91086    95.111533    14.499566    27.868779 
   44400    233.14797    -498.0414    204420.41   -23323.301    1692.2515   -25015.553   -1205.3292    346.34799    95.111219    14.500577    27.860774 
   44600    234.13494   -228.40308    204420.41   -23326.949    1699.4152   -25026.364   -264.13295     344.8667    95.111822    14.499427    27.878214 
   44800    237.46711   -341.03337    204420.41   -23289.716     1723.601   -25013.317   -686.19233    346.05655    95.112283    14.500941    27.897307 
   45000    239.46125   -237.55465    204420.41   -23242.594     1738.075   -24980.669   -305.30718    345.28262    95.112845    14.503647    27.886975 
   45200     239.9169   -615.17281    204420.41   -23223.283    1741.3823   -24964.665    -1611.441    346.63124    95.113116    14.504177    27.886662 
   45400    235.95507   -76.192151    204420.41   -23276.101    1712.6262   -24988.727     235.3649    346.28188    95.112159    14.504415    27.881757 
   45600     246.3672   -511.21376    204420.41   -23189.796    1788.2003   -24977.996   -1258.5232    348.32643    95.110655    14.506709    27.895229 
   45800    242.95231   -367.01537    204420.41   -23239.857    1763.4141   -25003.271   -762.31462    348.17754    95.109937    14.507126    27.889898 
   46000    237.36136   -289.86601    204420.41   -23173.079    1722.8334   -24895.912   -496.69265    349.96134    95.110032    14.507368    27.879335 
   46200    245.64606   -457.93412    204420.41   -23118.156     1782.966   -24901.122   -1051.4772    351.52387    95.109727    14.508705    27.879138 
   46400    237.26641   -373.15135    204420.41   -23212.431    1722.1443   -24934.575    -820.2216    350.54301    95.108829    14.507774    27.852164 
   46600    232.49842   -404.42569    204420.41   -23208.955    1687.5369   -24896.492   -891.59361    350.96658    95.107994    14.507061    27.853814 
   46800    240.30684   -235.89095    204420.41   -23158.685    1744.2125   -24902.898   -292.49662    351.52546    95.108724    14.507014    27.850367 
   47000     241.0757   -386.61007    204420.41   -23162.923    1749.7931   -24912.716   -852.39795    352.79781    95.109423    14.507967    27.855035 
   47200    235.11083    -580.2035    204420.41   -23284.576    1706.4984   -24991.074   -1510.1777    354.91407    95.109387    14.508112    27.855956 
   47400    239.38054   -567.13343    204420.41   -23190.994    1737.4892   -24928.483   -1451.6978    356.35988    95.110276    14.509504    27.860555 
   47600    234.84565   -227.37792    204420.41   -23227.141    1704.5737   -24931.714   -266.85707    359.10712    95.110229    14.511345    27.841158 
   47800    238.82829   -171.70239    204420.41   -23274.667    1733.4808   -25008.147   -111.32855    359.66183    95.110429    14.511713    27.838586 
   48000     236.3013   -13.889616    204420.41   -23303.608    1715.1392   -25018.747    468.97988    360.00187    95.109099    14.512813     27.84718 
   48200    239.96865   -223.73495    204420.41   -23282.989    1741.7578   -25024.747   -259.54855    360.65841    95.109282    14.514969      27.8247 
   48400    235.16776   -521.67487    204420.41   -23304.151    1706.9117   -25011.063   -1286.5358    361.87157    95.109935     14.51613    27.829819 
   48600    233.19305   -298.12767    204420.41   -23346.032    1692.5787   -25038.611    -525.4696     361.8722    95.110345    14.520724    27.824195 
   48800    235.93339   -363.62098    204420.41   -23294.335    1712.4688   -25006.804   -769.74154    362.75673    95.109357    14.520112    27.805506 
   49000    241.02489   -526.60372    204420.41    -23283.63    1749.4243   -25033.054   -1313.1589    363.66089    95.109306    14.520473    27.791653 
   49200    242.12572   -171.76536    204420.41   -23209.347    1757.4145   -24966.761   -67.794691    366.18023    95.108408    14.521439    27.778212 
   49400    230.33752   -247.99991    204420.41   -23282.072    1671.8525   -24953.924   -385.51883    368.82496    95.106589    14.523021    27.776775 
   49600    240.74762   -455.11354    204420.41   -23245.187    1747.4118   -24992.598   -1037.3348     369.8198    95.106182    14.522432    27.762362 
   49800    236.77391   -336.31059    204420.41    -23213.21    1718.5696    -24931.78   -647.51172    369.58397    95.104844    14.521522    27.773197 
   50000     237.7954   -318.03792    204420.41    -23232.84    1725.9838   -24958.824     -565.032    370.38014    95.102682    14.520387       27.762 
   50200    239.67035   -326.19433    204420.41   -23157.897    1739.5927   -24897.489    -597.1379     373.8391    95.103678     14.52182    27.753397 
   50400    241.64936   -279.08834    204420.41    -23190.17    1753.9569   -24944.126    -452.3248    374.86747    95.103294    14.520854    27.740654 
   50600    243.89241   -344.50169    204420.41   -23087.254    1770.2376   -24857.492   -679.74928    378.59647    95.104826    14.521898     27.76524 
   50800    230.63743   -545.26856    204420.41   -23264.714    1674.0293   -24938.743   -1386.2166    381.99883    95.103883    14.519663    27.788783 
   51000    236.00747   -214.50337    204420.41   -23228.028    1713.0065   -24941.035   -227.82372    384.66336    95.105096    14.520558    27.793742 
   51200    238.65358    -242.0596    204420.41   -23252.821    1732.2127   -24985.034   -312.51097    385.63652    95.103863    14.522816     27.79336 
   51400    242.36209   -312.62799    204420.41   -23235.151    1759.1301   -24994.281    -534.7087    386.85994    95.103362    14.522935    27.782788 
   51600    236.94789   -310.37946    204420.41   -23272.767    1719.8324   -24992.599   -528.78654    387.68966    95.103774    14.521455    27.792062 
   51800    238.37454   -272.81972    204420.41   -23254.877    1730.1874   -24985.065   -414.07957     389.4687     95.10388    14.519544    27.808211 
   52000    237.57489   -502.28876    204420.41   -23349.878    1724.3833   -25074.262   -1207.8993    390.34523    95.103898    14.516555    27.813463 
   52200     233.1936   -465.55184    204420.41   -23350.167    1692.5827    -25042.75   -1077.3657    390.74737    95.104174    14.515704    27.839261 
   52400    230.47566    -371.3759    204420.41    -23389.93    1672.8551   -25062.786   -773.35041    391.97618    95.104805    14.517462    27.812495 
   52600    240.03461   -297.11612    204420.41   -23271.596    1742.2366   -25013.833   -493.76385    394.31468    95.106052    14.519539    27.832514 
   52800    243.54123   -334.21874    204420.41   -23179.809    1767.6886   -24947.498   -612.28094    394.21889    95.106228    14.518516    27.822949 
   53000    246.50155   -291.21095    204420.41   -23167.802    1789.1754   -24956.978    -487.1256    394.41004    95.105538    14.518558    27.815343 
   53200    241.01401   -287.74659    204420.41   -23283.677    1749.3454   -25033.023    -455.1657    396.01328    95.105367    14.517051    27.838873 
   53400    240.51481    -63.46045    204420.41   -23299.591     1745.722   -25045.313    287.29085    396.41941    95.105055    14.518692    27.853795 
   53600    234.26347   -497.11623    204420.41   -23350.062    1700.3481    -25050.41   -1219.3799    398.53721     95.10492    14.522285    27.861158 
   53800    230.99373   -384.09118    204420.41   -23286.875    1676.6154   -24963.491   -842.32223    398.72413    95.104306    14.525898    27.826403 
   54000      242.131   -307.50912    204420.41   -23248.975    1757.4528   -25006.428   -581.62154    400.39582     95.10284    14.530355    27.843381 
   54200    243.79231   -392.61001    204420.41   -23239.909     1769.511    -25009.42    -823.6115    401.83215    95.103193    14.527917    27.842333 
   54400    247.70657   -501.19676    204420.41   -23210.248    1797.9218    -25008.17   -1218.7234    401.65213    95.104229    14.527562    27.827558 
   54600    240.19098    -182.1461    204420.41   -23230.999    1743.3716   -24974.371    -91.45204    399.21351    95.104929      14.5266    27.812186 
   54800    235.69724   -361.55264    204420.41   -23238.684    1710.7548   -24949.438   -719.85837    400.36765     95.10575     14.52667    27.824708 
   55000    243.05888   -426.45909    204420.41   -23206.039    1764.1876   -24970.226   -951.08124    401.89219    95.107115    14.524724    27.828818 
   55200    232.70771   -206.37025    204420.41   -23377.544    1689.0559     -25066.6   -192.72867    403.28712    95.106068    14.526054     27.83592 
   55400    236.26256   -330.12173    204420.41   -23334.288     1714.858   -25049.146   -624.72161    405.88303    95.107262     14.52811    27.835587 
   55600    244.28161   -302.48872    204420.41   -23295.768    1773.0625   -25068.831    -508.0563    408.18119    95.107242     14.52657    27.840108 
   55800    246.38899   -307.23409    204420.41   -23215.688    1788.3585   -25004.047   -556.55695    410.87912    95.105635     14.52444    27.840613 
   56000    239.88479   -476.30764    204420.41   -23265.986    1741.1492   -25007.135   -1176.1377    412.92765    95.104387    14.527545    27.845987 
   56200    242.60685   -218.95757    204420.41   -23263.185    1760.9066   -25024.092     -213.305    413.74554    95.105933    14.527505    27.858236 
   56400    240.75764   -452.81696    204420.41   -23361.731    1747.4846   -25109.215   -1056.4206    415.12764    95.104484    14.529314    27.817815 
   56600    227.73489   -513.20356    204420.41   -23431.835    1652.9619   -25084.797    -1250.088    414.38591    95.106076    14.528699    27.806331 
   56800    239.81381   -344.13109    204420.41   -23306.293     1740.634   -25046.927   -635.26716    412.52579    95.107057    14.528673    27.805594 
   57000    230.03843   -348.57456    204420.41   -23354.974    1669.6816   -25024.655   -702.27414    411.55225    95.106242     14.53149    27.814045 
   57200    234.32381   -229.21911    204420.41   -23213.236    1700.7861   -24914.023   -276.10918    412.16183    95.104377     14.53248    27.808187 
   57400    244.11685   -327.61103    204420.41   -23291.127    1771.8666   -25062.993    -610.4087    412.82936    95.101104    14.535035    27.822109 
   57600    236.85108    -279.9252    204420.41   -23307.746    1719.1297   -25026.876   -445.57575    414.33211    95.098707    14.538173    27.833447 
   57800    242.47706   -259.83502    204420.41   -23258.415    1759.9645   -25018.379   -369.50125    416.40429    95.097995    14.540921    27.826218 
   58000    237.10358   -234.61906    204420.41   -23259.443    1720.9624   -24980.406   -315.44643    419.68305     95.09609    14.542479    27.819122 
   58200    243.82343   -360.05843    204420.41   -23216.117    1769.7369   -24985.854   -771.68947    421.85458    95.095466     14.54564    27.814871 
   58400    243.38893   -333.21823    204420.41   -23245.805    1766.5831   -25012.388   -629.52412    422.24681     95.09675    14.541902     27.83004 
   58600      239.553   -274.43493    204420.41   -23294.071    1738.7409   -25032.812   -439.65906    425.12738    95.096117    14.540623     27.83824 
   58800    235.31358   -224.75734    204420.41   -23230.135    1707.9701   -24938.105   -258.43972    428.36471    95.095936    14.540077     27.84929 
   59000    237.91518   -556.71614    204420.41   -23176.813    1726.8532   -24903.666   -1361.3242    432.05794    95.096426    14.542882    27.846065 
   59200    234.86017   -363.99408    204420.41   -23258.159    1704.6791   -24962.838    -733.6179    430.53872    95.097645    14.545447     27.87461 
   59400     239.1745   -307.31172    204420.41   -23250.364    1735.9937   -24986.357   -581.20793    431.89701    95.097476    14.544867    27.877673 
   59600    228.55453   -512.58245    204420.41    -23294.89     1658.911   -24953.801    -1234.566    433.23117    95.097577    14.542874    27.865739 
   59800    235.25132   -269.23695    204420.41   -23240.162    1707.5182   -24947.681   -393.40198    432.09738    95.098307    14.542588    27.863666 
   60000    241.03353   -445.62731    204420.41   -23244.311     1749.487   -24993.798   -1052.3623    433.75464    95.099961    14.541146    27.862368 
   60200     239.3849   -282.02375    204420.41   -23290.297    1737.5208   -25027.818    -430.5145    435.31549    95.100752    14.540954    27.845292 
   60400    237.64307   -440.19704    204420.41   -23254.231    1724.8781   -24979.109   -983.82634    436.17202    95.098478    14.542622    27.855208 
   60600    238.86751   -288.36541    204420.41   -23273.296    1733.7654   -25007.061   -508.32714    437.64314    95.098821    14.539435     27.83776 
   60800    246.29455   -440.14741    204420.41    -23179.98     1787.673   -24967.653   -1037.0562    439.71157    95.098477    14.537952    27.849351 
   61000    241.62449   -348.05038    204420.41   -23256.838    1753.7764   -25010.614    -660.7432    440.65562    95.099439    14.538106    27.846129 
   61200    246.06793   -264.77348    204420.41   -23239.149    1786.0281   -25025.177   -406.58598    443.57224    95.100975    14.541024    27.834862 
   61400    237.18176   -363.67021    204420.41   -23234.413    1721.5298   -24955.943   -734.21615    444.93607    95.100325    14.539777    27.838075 
   61600    234.99665   -386.98949    204420.41   -23248.831    1705.6697   -24954.501   -872.16306    445.43348    95.099906     14.53851    27.837932 
   61800    238.43542    -358.0051    204420.41   -23299.043    1730.6292   -25029.673   -744.35973    446.24755    95.099334    14.537542    27.826081 
   62000    238.53619   -293.60532    204420.41   -23257.907    1731.3606   -24989.268   -502.77369    447.09243    95.101166    14.533734    27.832222 
   62200    237.30637   -248.64495    204420.41   -23257.799    1722.4343   -24980.233    -339.5159    449.17782    95.101907    14.531977    27.828009 
   62400    234.10908   -491.77418    204420.41   -23286.004    1699.2275   -24985.232   -1228.3181    453.32622    95.105088    14.532692    27.846974 
   62600    242.42539   -325.10261    204420.41    -23286.35    1759.5895   -25045.939   -602.26544    455.88152    95.106361    14.534686    27.841939 
   62800    235.00005   -396.28003    204420.41   -23334.628    1705.6944   -25040.322   -860.35914    454.89746    95.106935    14.537272    27.828289 
   63000    240.95629   -315.63199    204420.41   -23243.148    1748.9264   -24992.074   -577.12876    453.54423    95.106392    14.537831    27.831467 
   63200    240.46253   -534.15556    204420.41   -23288.524    1745.3426   -25033.867   -1352.6733    457.53097    95.105978    14.536147    27.827311 
   63400    236.62286   -176.31477    204420.41    -23316.26    1717.4732   -25033.733    -105.4613    461.67144    95.107505     14.53549    27.839118 
   63600    236.03873   -284.35004    204420.41   -23331.186    1713.2334   -25044.419   -488.72957    462.25866    95.107907    14.534564    27.863908 
   63800    230.50043   -237.48971    204420.41   -23331.227    1673.0349   -25004.262    -297.9624    463.83168    95.108986    14.531636    27.864322 
   64000    235.38994   -291.98215    204420.41   -23203.162    1708.5243   -24911.686   -476.14885      467.487    95.110243    14.530511    27.871992 
   64200    240.18101   -320.90554    204420.41   -23213.827    1743.2992   -24957.126   -600.19598    471.99446    95.111093    14.532333    27.872195 
   64400    243.41453   -317.04908    204420.41   -23266.393     1766.769   -25033.162   -560.33468    474.96706    95.112765    14.536555    27.864953 
   64600    236.34075   -611.03124    204420.41   -23290.066    1715.4256   -25005.491   -1596.4025    478.69311    95.114257    14.537338    27.867294 
   64800     240.0828   -432.02827    204420.41   -23284.282    1742.5864   -25026.868   -1027.9917    482.65694    95.116769    14.537032    27.874445 
   65000    244.21075   -323.49878    204420.41   -23156.353    1772.5482   -24928.901   -602.24065    484.85657    95.116847    14.541972    27.888684 
   65200    239.02455   -383.95139    204420.41   -23188.226    1734.9053   -24923.131   -840.94575    489.24308     95.11572    14.542805    27.896843 
   65400    238.99135   -373.57261    204420.41   -23238.084    1734.6643   -24972.749   -746.92652    491.42188    95.115532    14.544119    27.895004 
   65600    242.10527   -508.52995    204420.41   -23160.453     1757.266   -24917.719   -1303.5588    494.42055    95.116135    14.544718    27.910816 
   65800    242.40209   -76.199986    204420.41   -23207.413    1759.4204   -24966.833    218.29656    492.53189     95.11626      14.5457    27.893687 
   66000    240.00496   -474.00506    204420.41   -23145.166    1742.0214   -24887.187   -1145.6827    494.23977    95.116967    14.545164    27.898304 
   66200    244.54672   -371.76095    204420.41     -23203.6    1774.9868   -24978.586   -761.49772    493.56295    95.117076    14.545663    27.892998 
   66400    240.22274   -430.89693    204420.41   -23195.538    1743.6021    -24939.14   -977.48069    496.21155    95.118507    14.546393    27.900556 
   66600    237.64774    -381.4083    204420.41   -23263.373     1724.912   -24988.285    -792.5048    496.38286    95.118651    14.547403    27.893602 
   66800    241.06809   -429.28223    204420.41   -23248.601    1749.7379   -24998.338   -982.63892    499.09913     95.11847    14.549721    27.902415 
   67000    232.32338   -214.86617    204420.41   -23302.073    1686.2664   -24988.339     -241.467    499.48971    95.119574    14.551405    27.890283 
   67200    239.74712   -371.88044    204420.41   -23255.417    1740.1499   -24995.567   -766.05245     501.3702    95.120675    14.549687    27.900583 
   67400    239.29179     -300.877    204420.41   -23215.236     1736.845   -24952.081   -552.02471    504.00482    95.121201    14.545865    27.907451 
   67600    242.58728   -321.34795    204420.41     -23164.4    1760.7646   -24925.165   -630.40424     503.3793     95.12138    14.542984    27.901244 
   67800     240.3285   -308.15773    204420.41   -23207.913    1744.3698   -24952.283   -554.59685    504.57638    95.121599    14.539763    27.887315 
   68000    241.51701   -401.83236    204420.41   -23280.261    1752.9963   -25033.258   -876.69823    506.02007    95.119937    14.539318    27.878431 
   68200    241.20811   -456.91278    204420.41   -23244.431    1750.7542   -24995.185   -1080.9463    505.01409    95.118921    14.542957    27.872512 
   68400    243.04106    -229.2741    204420.41   -23211.719    1764.0583   -24975.777    -279.9472    506.47974     95.11733    14.542853    27.859683 
   68600    236.02411   -415.98439    204420.41   -23231.294    1713.1273   -24944.421    -930.4876    509.88367    95.116669    14.540792     27.86864 
   68800    243.44002    -304.4202    204420.41   -23182.263     1766.954   -24949.217    -574.7486    508.25958    95.118362    14.540269    27.849377 
   69000    241.32802   -468.01566    204420.41   -23207.553    1751.6245   -24959.177   -1131.9739    508.76412    95.118919    14.536827    27.865178 
   69200    235.88014   -363.38993    204420.41   -23259.124    1712.0824   -24971.206   -729.14438    505.98635    95.120336    14.535101     27.87163 
   69400    236.11873   -225.28694    204420.41   -23311.188    1713.8141   -25025.002   -332.12928    503.88692    95.121774     14.53246    27.858552 
   69600    239.77564   -413.52258    204420.41     -23192.6    1740.3569   -24932.957   -934.55487    502.70431    95.124828    14.533171    27.866122 
   69800    237.44639   -130.43291    204420.41   -23253.379    1723.4506   -24976.829   0.17629766    500.74386    95.125682    14.533026    27.867461 
   70000     237.7247   -402.54731    204420.41   -23269.172    1725.4707   -24994.642   -891.94244     503.1333    95.125927    14.531839    27.885735 
   70200    246.04965    -416.5088    204420.41   -23162.074    1785.8954   -24947.969   -958.03033    506.87677    95.127111    14.529979    27.904954 
   70400    242.00211   -381.33572    204420.41   -23181.191    1756.5172   -24937.708   -775.22017    511.27564    95.127831    14.529927    27.907519 
   70600    238.09196   -298.24148    204420.41   -23250.199    1728.1363   -24978.335      -478.07    510.81608    95.127375    14.530747    27.906794 
   70800    238.08944   -246.90241    204420.41   -23253.409     1728.118   -24981.527   -335.84151    509.86885    95.128548    14.531304    27.902214 
   71000    242.26403   -261.44696    204420.41    -23298.69    1758.4183   -25057.108   -407.75391    513.77678    95.129438    14.529479     27.90014 
   71200    235.83835   -430.79577    204420.41    -23347.51     1711.779   -25059.289   -961.92667    515.70111    95.129964    14.528529    27.903978 
   71400    240.23994   -252.10257    204420.41   -23318.064    1743.7269   -25061.791   -374.82229    518.11582    95.129792    14.529133    27.894563 
   71600    241.96092   -210.67653    204420.41    -23219.68    1756.2183   -24975.898   -203.09406    521.55473    95.130228    14.529677    27.900323 
   71800    238.17891   -548.16351    204420.41   -23320.673    1728.7675   -25049.441   -1406.4038    523.05574     95.13113    14.525626    27.923425 
   72000    240.39078   -478.33811    204420.41   -23337.586    1744.8218   -25082.408   -1157.4321    522.52351    95.131779    14.523214    27.930715 
   72200    247.27077   -375.69727    204420.41   -23223.547    1794.7586   -25018.306   -797.69133    521.24149    95.130877    14.522827    27.928657 
   72400    245.93671   -227.12109    204420.41    -23278.35    1785.0756   -25063.426    -256.1522     520.9004    95.129215     14.52123    27.938143 
   72600    240.52521   -520.25035    204420.41   -23252.882    1745.7975    -24998.68   -1276.3464    525.45414    95.128619    14.521409    27.937324 
   72800    239.15892   -238.13593    204420.41    -23270.31    1735.8806    -25006.19   -297.36041     525.9154    95.131194    14.521864    27.938951 
   73000    236.68604   -343.89896    204420.41   -23294.355    1717.9318   -25012.287   -681.46461    530.62102    95.130835    14.521711    27.961295 
   73200    241.40681   -265.33973    204420.41   -23222.996    1752.1964   -24975.193   -368.88773    533.89375    95.132052    14.520618    27.962083 
   73400    241.94873   -293.28458    204420.41   -23200.017    1756.1298   -24956.146   -544.51562    534.00307    95.132235    14.522052    27.967618 
   73600    241.69717   -230.22113    204420.41   -23253.928    1754.3039   -25008.232    -299.7534    535.61644    95.132196    14.524769     27.95583 
   73800    231.96365   -420.54458    204420.41    -23343.52    1683.6553   -25027.175   -955.19226    537.29167    95.131722    14.526915    27.942341 
   74000    237.09852   -265.44667    204420.41   -23330.181    1720.9257   -25051.106   -427.06246    537.92583    95.131722    14.529308    27.942491 
   74200    242.21935   -209.60669    204420.41   -23212.622    1758.0941   -24970.716    -205.4482     540.5219    95.132855    14.530658    27.949782 
   74400    243.28042   -320.78623    204420.41   -23245.106    1765.7956   -25010.902   -600.35875    546.17652    95.134258    14.530353    27.949913 
   74600    239.28705   -398.28389    204420.41   -23258.559    1736.8106   -24995.369     -854.477    549.28072    95.134956    14.531882    27.950544 
   74800    233.34079   -263.25333    204420.41   -23296.442     1693.651   -24990.093   -399.90548    552.54482    95.136569    14.533235    27.953715 
   75000    239.20002    -493.9916    204420.41   -23295.973    1736.1789   -25032.152   -1228.9145    555.16161     95.13802    14.531463      27.9306 
   75200    244.66129   -391.70066    204420.41   -23223.895    1775.8183   -24999.713   -839.64766    553.41845    95.138137    14.528218    27.922197 
   75400    230.15179   -147.40303    204420.41   -23296.193    1670.5044   -24966.697   -10.480629    551.76781    95.139838    14.527201    27.926179 
   75600    233.14717     -408.855    204420.41     -23267.2    1692.2457   -24959.445   -927.63881     553.2786    95.141259    14.527754    27.936203 
   75800    236.54509   -411.35453    204420.41   -23175.228    1716.9087   -24892.137   -886.71631    556.93644    95.140665    14.531557    27.950083 
   76000    243.34404   -299.60812    204420.41   -23154.756    1766.2573   -24921.013   -529.88328    560.38971    95.143185    14.532383    27.953439 
   76200    234.52105   -223.03321    204420.41   -23260.147    1702.2177   -24962.365   -252.25218    564.57215    95.144494    14.531602    27.958544 
   76400    238.53845   -428.18963    204420.41   -23217.998     1731.377   -24949.375   -964.08362    569.42127    95.144905    14.528155      27.9587 
   76600    244.65428   -288.52461    204420.41   -23193.903    1775.7674    -24969.67   -473.18408    569.66699    95.145904     14.52709    27.951913 
   76800    237.01944   -258.55144    204420.41    -23217.18    1720.3517   -24937.532   -374.40422    569.14377    95.145791    14.528819    27.923537 
   77000    241.32592   -317.92383    204420.41   -23226.586    1751.6093   -24978.196   -615.18932    569.64163    95.144921    14.528467     27.92237 
   77200    238.80347   -339.66039    204420.41   -23184.621    1733.3006   -24917.921    -642.0917    570.23225    95.146702    14.525702    27.939986 
   77400     234.5848   -300.45634    204420.41   -23175.576    1702.6804   -24878.256   -521.58981    568.62331    95.145886    14.526836    27.946275 
   77600    238.01064    -178.6714    204420.41   -23271.975    1727.5461   -24999.521   -101.64696    567.85765    95.146131    14.528743    27.934678 
   77800    243.94846   -607.40034    204420.41    -23272.53    1770.6444   -25043.174   -1596.0491    570.00404    95.145661    14.527439    27.925064 
   78000    239.94608   -381.35794    204420.41   -23221.274    1741.5941   -24962.868   -804.00932    571.46508    95.145246    14.528423    27.900393 
   78200    239.40129   -262.16443    204420.41   -23258.316    1737.6398   -24995.956   -396.23262    573.38226    95.143911    14.528723    27.871659 
   78400    244.94827    -213.3703    204420.41   -23194.769    1777.9013    -24972.67   -195.81987    578.73841    95.143111    14.533037    27.886499 
   78600    237.85734    -551.4701    204420.41   -23199.143    1726.4334   -24925.576    -1409.533    580.21593    95.143973    14.531115    27.895174 
   78800     238.1255   -186.66825    204420.41   -23159.647    1728.3797   -24888.026   -139.95919    576.49675    95.143253    14.532148     27.89474 
   79000    240.14315   -534.45025    204420.41   -23176.758    1743.0244   -24919.782   -1383.3169    575.76476    95.143474    14.535765    27.891498 
   79200    238.70689    -287.3613    204420.41   -23146.496    1732.5997   -24879.096   -501.64142     574.0509    95.144342    14.533702    27.907409 
   79400    246.47089   -294.46931    204420.41   -23176.697    1788.9529    -24965.65   -513.06419    571.54236     95.14474    14.534755    27.893831 
   79600    233.97146    53.112091    204420.41   -23273.683    1698.2286   -24971.912    690.57157    569.26336    95.145142    14.535495    27.889077 
   79800    241.09952   -338.26554    204420.41   -23238.071     1749.966   -24988.037   -635.37343    571.66913    95.145049    14.536969    27.871104 
   80000    235.55154   -410.45419    204420.41   -23233.609    1709.6973   -24943.306   -908.60495    574.97261    95.144557    14.535695    27.866942 
   80200    237.11962   -347.94651    204420.41    -23262.83    1721.0788   -24983.908   -682.60033    577.43179    95.143907    14.534397    27.865943 
   80400    236.69097    -430.1091    204420.41   -23295.321    1717.9675   -25013.289   -958.03873    580.36031    95.143438    14.532085    27.870989 
   80600    235.52938   -217.46165    204420.41   -23265.544    1709.5364   -24975.081   -226.76609    583.06764     95.14294    14.531821    27.850453 
   80800    240.07021   -279.05874    204420.41   -23198.374     1742.495   -24940.869    -413.6285    583.83977    95.144868    14.531338     27.84864 
   81000    244.36147   -356.97682    204420.41   -23205.502    1773.6421   -24979.144   -733.79654    584.39986     95.14539     14.53336    27.836898 
   81200    238.34015   -379.68068    204420.41   -23163.451    1729.9378   -24893.389   -826.24342    588.06715    95.145388    14.534259    27.829464 
   81400    246.82913   -300.98781    204420.41   -23128.632    1791.5531   -24920.185   -504.77159     592.8442    95.143505    14.536013    27.820696 
   81600    236.16632   -394.46799    204420.41   -23221.778    1714.1595   -24935.937   -868.47595    596.38096    95.143824    14.536749    27.813636 
   81800    234.30129   -147.97353    204420.41   -23285.787    1700.6226    -24986.41    4.8626177    596.86136    95.145897    14.537835    27.801026 
   82000     239.0903   -530.74094    204420.41   -23220.337    1735.3825    -24955.72   -1341.5911    598.53423    95.146071    14.538528     27.78649 
   82200    240.13089   -119.90039    204420.41   -23169.066    1742.9354   -24912.001    56.669378    597.13703    95.147063    14.539671     27.78719 
   82400    240.24427   -436.58774    204420.41   -23208.652    1743.7584   -24952.411   -981.46183    596.82315    95.145794    14.541984    27.782773 
   82600     243.0639   -271.14437    204420.41   -23148.342     1764.224   -24912.566   -404.78606    596.02342    95.145648     14.54187    27.766297 
   82800    238.31046   -227.79997    204420.41   -23263.252    1729.7222   -24992.974   -287.20971    593.54551    95.145407    14.542783    27.780254 
   83000    241.79836   -401.93366    204420.41   -23179.133    1755.0384   -24934.171   -884.85218    590.83936    95.145652    14.542799    27.776667 
   83200    240.13043   -432.92079    204420.41   -23233.117    1742.9321    -24976.05    -925.2933    590.72748    95.145042    14.541669    27.789027 
   83400    243.24941   -190.75977    204420.41   -23222.491    1765.5705   -24988.061   -131.03736    591.54735    95.146173    14.537945    27.784544 
   83600    229.54714   -407.72464    204420.41   -23313.633    1666.1157   -24979.748   -931.66298     591.6353    95.147674     14.53687    27.783762 
   83800    242.17544   -478.23836    204420.41   -23273.733    1757.7753   -25031.508   -1150.2238    592.54791    95.148734     14.53439    27.796261 
   84000    234.06714   -517.26863    204420.41   -23237.678    1698.9231   -24936.601   -1318.4113     592.1958    95.150741    14.535003    27.801231 
   84200    240.79236   -216.24796    204420.41   -23203.823    1747.7366   -24951.559   -190.21848    592.28743    95.151249    14.535149    27.797868 
   84400    239.58526   -429.29491    204420.41     -23284.2    1738.9751   -25023.175   -947.63839    596.16899    95.150467    14.537012     27.79585 
   84600    245.13081   -475.08701    204420.41   -23211.906    1779.2262   -24991.132   -1109.4353    600.10989    95.149477    14.536886    27.781225 
   84800    241.22369   -350.70794    204420.41   -23271.186    1750.8673   -25022.053   -689.67299    605.29575    95.149517    14.537529    27.780873 
   85000    239.03579   -389.45499    204420.41   -23221.026    1734.9869   -24956.013    -817.4295    606.60714    95.149801    14.535896    27.810818 
   85200    243.67836   -331.12178    204420.41   -23228.418    1768.6839   -24997.101   -664.58036    604.91433    95.149427    14.540466    27.828597 
   85400    233.45164   -283.09564    204420.41   -23345.323    1694.4556   -25039.778   -427.75191    602.23889    95.149696    14.544225    27.842097 
   85600    235.75281   -470.16507    204420.41   -23284.734    1711.1581   -24995.892   -1113.9286    604.89435    95.148945    14.547896    27.837646 
   85800    240.19922   -200.85654    204420.41   -23304.643    1743.4314   -25048.075   -152.30235    606.00063    95.149355    14.548217     27.84321 
   86000    235.99813   -318.54333    204420.41   -23227.746    1712.9388   -24940.685   -580.90665     609.4997    95.149161    14.550867    27.859266 
   86200    240.52553   -419.05234    204420.41   -23211.713    1745.7999   -24957.513   -884.69855    613.74834    95.149025    14.553386     27.85825 
   86400      235.978   -262.55955    204420.41   -23277.191    1712.7926   -24989.983    -403.1155      616.691    95.151073    14.552378    27.873875 
   86600    238.14699   -466.44547    204420.41   -23206.766    1728.5358   -24935.302   -1105.6967    618.95682    95.150183    14.551807    27.882683 
   86800    236.43274   -487.39662    204420.41   -23236.476    1716.0933    -24952.57   -1198.0464     619.6713    95.149167    14.547051    27.889421 
   87000    242.05196   -363.62682    204420.41   -23208.873    1756.8791   -24965.752   -780.35972    621.53893    95.149205    14.544056    27.888209 
   87200    243.02138   -226.23211    204420.41   -23181.105    1763.9154   -24945.021   -239.72524    626.48816    95.150871    14.543135    27.887778 
   87400    230.54374      -327.66    204420.41    -23267.82    1673.3493   -24941.169   -558.41957     627.5251    95.150945    14.542282    27.905636 
   87600    244.77746   -421.22796    204420.41   -23140.809    1776.6615    -24917.47   -940.41439    629.81556    95.152141    14.540397     27.93008 
   87800    242.87913   -239.85951    204420.41   -23219.353    1762.8829   -24982.236   -328.02438    630.85545    95.152445    14.539729    27.936222 
   88000    236.51133   -390.13159    204420.41   -23197.885    1716.6637   -24914.548    -849.7593    633.98807    95.152876    14.542871    27.940943 
   88200    240.08398   -441.16583    204420.41    -23223.25    1742.5949   -24965.845   -1010.5302    634.31346    95.152944    14.543485    27.940678 
   88400    234.83913   -325.69197    204420.41   -23162.393    1704.5264   -24866.919   -602.54005    636.15178    95.150914    14.540977    27.923852 
   88600    236.10773   -260.77705    204420.41   -23206.704    1713.7342   -24920.438   -371.20445    633.95521    95.148343    14.541972    27.921198 
   88800    240.01833    -338.6746    204420.41    -23195.75    1742.1185   -24937.869   -700.66087    634.82298    95.146923    14.542966    27.904996 
   89000     243.8801   -304.92624    204420.41   -23193.333    1770.1482   -24963.482   -525.77426    635.23948    95.148142     14.54238    27.896035 
   89200    239.17645   -304.36551    204420.41   -23211.706    1736.0079   -24947.714    -548.9886    635.62276    95.149755    14.541623    27.878879 
   89400    244.38727   -134.72164    204420.41   -23163.366    1773.8294   -24937.195    63.359169    634.45277    95.151309    14.540835    27.883526 
   89600    231.81823   -268.37193    204420.41   -23296.683    1682.5999   -24979.283   -427.33247    635.89032    95.149874     14.53941    27.871073 
   89800    235.62301   -421.84951    204420.41   -23191.805     1710.216   -24902.021   -913.99551     635.6744    95.149637     14.53651    27.874063 
   90000    241.85365   -460.18069    204420.41   -23209.311    1755.4397   -24964.751   -1083.0159    637.19286    95.148753    14.539039    27.871567 
   90200    240.53921    -249.2627    204420.41   -23262.814    1745.8991   -25008.713   -325.33812    636.52464    95.149034    14.543453    27.871688 
   90400    238.40493   -345.74527    204420.41   -23233.675     1730.408   -24964.083   -692.57258    634.71258    95.148871    14.545103    27.865979 
   90600    241.83731   -335.47155    204420.41   -23216.397    1755.3211   -24971.718   -664.03902    638.46575     95.14888    14.547746    27.887304 
   90800    240.16382   -271.90215    204420.41    -23155.44    1743.1745   -24898.615   -418.66004    642.55785    95.148551    14.547827      27.9109 
   91000    242.10883   -417.92431    204420.41   -23229.389    1757.2919   -24986.681   -965.41293    645.31566    95.147544    14.549477    27.927756 
   91200    238.81508   -245.70344    204420.41   -23277.159    1733.3849   -25010.544   -367.70766    647.18948    95.146826    14.549266    27.938015 
   91400    234.90848   -216.64787    204420.41   -23224.579    1705.0297   -24929.609   -243.04549    647.71738    95.146454    14.548387    27.928566 
   91600    246.41392   -416.74794    204420.41   -23148.876    1788.5394   -24937.415   -917.45314    648.04352    95.147507    14.548517    27.938972 
   91800    244.83922   -457.56723    204420.41   -23178.345    1777.1098   -24955.455   -1070.4929    647.00141    95.147696    14.547451    27.940018 
   92000    239.57343   -278.97736    204420.41   -23160.898    1738.8892   -24899.787   -450.88722    646.10725    95.149191    14.544634    27.929334 
   92200    245.84704   -313.28373    204420.41   -23173.938    1784.4248   -24958.363   -583.39819    646.38505    95.149025    14.540868     27.92639 
   92400    242.90855   -527.45699    204420.41   -23171.637    1763.0964   -24934.734   -1299.0853    649.76892    95.148652    14.540653    27.963235 
   92600     243.3352   -486.78155    204420.41   -23174.821    1766.1932   -24941.014   -1149.6522    649.28175     95.15034    14.540998    27.983934 
   92800    238.30408   -239.65657    204420.41   -23305.194     1729.676    -25034.87   -324.02617    651.63801    95.150338    14.542823    27.986042 
   93000    237.74304   -392.79668    204420.41   -23327.339    1725.6038   -25052.943   -845.47348     654.9049    95.150763     14.54173    28.006895 
   93200    240.87873   -375.79031    204420.41   -23273.234    1748.3635   -25021.597   -825.20929     655.2975    95.149109    14.541598    27.993442 
   93400    238.52811    -442.7614    204420.41   -23389.142     1731.302   -25120.444   -1028.9103    655.05698    95.145982    14.542907    27.988548 
   93600    234.07052   -268.53337    204420.41   -23348.589    1698.9476   -25047.536   -393.83938     655.3942    95.146475    14.545415    27.997415 
   93800    234.43855   -404.51828    204420.41   -23348.105    1701.6188   -25049.724   -885.47873    654.43533    95.144185    14.545214    28.010745 
   94000    238.39072   -253.07364    204420.41   -23342.911    1730.3048   -25073.216   -349.64611    654.68677    95.145134    14.543049    28.003333 
   94200    240.22922   -184.15124    204420.41   -23198.232    1743.6492   -24941.881   -120.38955    654.26263    95.146257    14.542786    27.996669 
   94400    237.38873   -331.06796    204420.41   -23221.817    1723.0321   -24944.849   -633.46658    653.47378    95.147842    14.544039    27.975854 
   94600    234.99954   -264.89634    204420.41   -23224.179    1705.6907   -24929.869    -441.1995    655.96437    95.147336     14.54396    27.994208 
   94800    239.56529   -452.13202    204420.41   -23195.051    1738.8301   -24933.881   -1039.9238    657.69461    95.147978    14.543161    27.995236 
   95000     232.8552   -354.27031    204420.41   -23228.846    1690.1265   -24918.973   -734.48162    659.28316    95.149312    14.544216    27.980596 
   95200    242.03227   -206.87043    204420.41   -23246.495    1756.7361   -25003.231   -193.22076    661.14399    95.149655    14.544591    27.985548 
   95400    237.73288   -490.56289    204420.41   -23167.503      1725.53   -24893.033   -1214.1336    667.34998    95.149248    14.546176    27.986256 
   95600    240.77387   -292.04652    204420.41   -23189.712    1747.6024   -24937.314   -492.85687    670.53423    95.148771     14.54607    27.979148 
   95800    235.42091   -256.48715    204420.41   -23216.317    1708.7491   -24925.066   -395.59241    671.45167    95.148673    14.548052    27.975025 
   96000     243.5355   -240.29849    204420.41    -23188.26     1767.647   -24955.907   -300.34518    671.53269    95.149595    14.548957    27.968205 
   96200    247.41692   -185.97266    204420.41   -23126.532    1795.8194   -24922.351   -143.23677    675.27001    95.150337    14.548019    27.973971 
   96400    237.14826   -358.57595    204420.41   -23193.335    1721.2867   -24914.622   -752.82572    679.90174    95.151672    14.547965    27.978788 
   96600    234.84538   -384.05628    204420.41   -23213.135    1704.5717   -24917.707    -848.5198     683.7767    95.151096    14.549126    27.988171 
   96800    243.64929   -354.22114    204420.41   -23175.459    1768.4729   -24943.932   -734.89966    687.51521    95.150869    14.551773    27.987069 
   97000     240.4668   -424.26097    204420.41   -23185.786    1745.3736   -24931.159    -935.8761    696.06853    95.152206    14.551544    28.000306 
   97200    238.91462   -118.59695    204420.41   -23211.952    1734.1074   -24946.059    48.922045    696.48231     95.15261    14.552913    28.010217 
   97400    237.85359   -422.84637    204420.41   -23217.245    1726.4062   -24943.651   -960.29542    698.32831    95.150793    14.554546    27.969099 
   97600    242.06145   -365.82342    204420.41   -23148.041    1756.9479   -24904.988   -774.71558    702.01951    95.150362    14.551211    27.964694 
   97800    243.57846   -478.31536    204420.41   -23189.712    1767.9588   -24957.671   -1182.1532    701.19046    95.151033    14.548582    27.971457 
   98000    239.84197   -497.67734    204420.41   -23257.327    1740.8384   -24998.165   -1208.7038    699.98407    95.152709     14.54769    27.957859 
   98200    234.38911   -255.25808    204420.41   -23297.066    1701.2601   -24998.326   -367.87138    699.28759     95.15296      14.5463    27.949075 
   98400    242.25979   -306.57883    204420.41   -23191.695    1758.3876   -24950.083   -554.77434    700.75028    95.153467    14.549158    27.934103 
   98600    240.05507   -314.21325    204420.41   -23209.023    1742.3851   -24951.409   -538.30442    704.11148    95.154579    14.551467     27.92873 
   98800    237.58507   -332.09911    204420.41   -23195.662    1724.4572   -24920.119   -661.69264    709.15569    95.156223    14.551461    27.931563 
   99000    238.37698   -279.90978    204420.41     -23283.1    1730.2051   -25013.306   -452.76164    712.09023    95.155581    14.550229    27.940412 
   99200     243.8006   -216.35573    204420.41   -23245.425    1769.5712   -25014.996   -255.81126    717.03218    95.155624     14.55353    27.938284 
   99400    238.29638   -384.09826    204420.41   -23240.539    1729.6201   -24970.159   -854.97603     723.4536    95.156626     14.55722    27.941163 
   99600     242.0397   -331.18506    204420.41   -23213.615    1756.7901   -24970.405   -652.09852    726.77758    95.156306    14.558197    27.944863 
   99800    233.39779   -572.07824    204420.41   -23230.237    1694.0648   -24924.302    -1473.429    731.08855     95.15568    14.557967    27.926953 
  100000    241.71316   -290.76008    204420.41   -23243.844    1754.4199   -24998.264   -502.61012    733.89927    95.156295    14.560167    27.916958 
  100200    237.80295   -289.94188    204420.41   -23312.979    1726.0386   -25039.017    -488.8768    733.20445    95.156147     14.56217    27.913505 
  100400    246.58086   -276.79406    204420.41    -23221.54    1789.7511   -25011.291   -472.43002    738.41897    95.156151    14.560859    27.926273 
  100600    235.96909   -463.65494    204420.41   -23232.026    1712.7279   -24944.754   -1102.3206    737.93971    95.155903    14.560418    27.922093 
  100800    236.90675   -333.84644    204420.41   -23270.586    1719.5337    -24990.12   -648.78377    740.42067    95.155253    14.563315    27.909738 
[...]
 5175800    225.11383   -326.59522    204420.41   -25553.811    1633.9375   -27187.749    -634.4846    4523.3884     93.67818    13.780045    27.642939 
 5176000    222.37841   -314.79075    204420.41   -25568.351    1614.0831   -27182.434   -593.05499     4525.715    93.678074    13.779559    27.661507 
 5176200    223.88671   -136.87173    204420.41   -25588.024    1625.0307   -27213.055    51.624342     4524.974    93.677958    13.779168    27.641533 
 5176400    222.79615   -278.70853    204420.41     -25524.3    1617.1151   -27141.415    -424.7391    4523.1472     93.67809    13.778925    27.650118 
 5176600    231.66045   -264.04045    204420.41   -25455.791    1681.4547   -27137.246    -394.2887     4524.549    93.678543    13.779356    27.653683 
 5176800    225.34102   -260.18876    204420.41   -25508.951    1635.5865   -27144.537   -397.52912    4524.6875    93.678349    13.779789    27.639495 
 5177000    224.98128   -259.28978    204420.41   -25490.538    1632.9754   -27123.513   -390.93765    4523.1947    93.677845    13.778887    27.643104 
 5177200    231.96335   -323.57825    204420.41   -25459.198    1683.6532   -27142.852    -596.8682    4524.2239    93.677819    13.779893    27.638814 
 5177400    231.51722   -213.66293    204420.41   -25422.008    1680.4151   -27102.423   -245.31185     4520.754     93.67807    13.779881    27.645775 
 5177600    226.05609   -230.44469    204420.41   -25514.716    1640.7767   -27155.493    -281.5496    4524.7173    93.677899    13.779462    27.639644 
 5177800    227.89647   -244.89634    204420.41   -25547.347    1654.1347   -27201.482   -331.71269    4523.5843    93.678675     13.78023    27.632403 
 5178000     221.1727   -210.61936    204420.41   -25531.636    1605.3317   -27136.968   -207.06909    4522.8387    93.679209    13.781582    27.632463 
 5178200    223.43563   -200.39968    204420.41   -25529.205    1621.7567   -27150.962   -186.43775    4520.7247    93.679221    13.781828    27.630553 
 5178400    222.60193   -292.06751    204420.41   -25534.956    1615.7055   -27150.662    -481.5884    4522.0564    93.679447    13.781023    27.628101 
 5178600     231.7125   -290.86321    204420.41    -25506.52    1681.8324   -27188.353   -481.10435    4524.3297    93.679468    13.781396    27.631707 
 5178800    231.63578   -215.77271    204420.41   -25511.327    1681.2756   -27192.602   -227.36461    4524.0884    93.680179    13.781791    27.623738 
 5179000    227.79641   -216.76792    204420.41   -25542.611    1653.4084    -27196.02   -209.68627     4525.066     93.68093    13.782078    27.628755 
 5179200    225.74687   -274.22164    204420.41   -25548.735    1638.5323   -27187.268    -438.4939    4523.9475    93.681243    13.781597    27.623779 
 5179400     233.3714   -238.24042    204420.41   -25484.549    1693.8732   -27178.422   -307.02758    4522.0603     93.68135    13.782609    27.639495 
 5179600    223.03307    -208.6317    204420.41    -25546.09    1618.8348   -27164.925   -164.51872    4523.3098    93.680722    13.783679      27.6426 
 5179800    225.75283   -279.83448    204420.41    -25532.32    1638.5756   -27170.895   -465.43591    4522.6748    93.680301    13.785019     27.63763 
 5180000    220.49449    -231.4975    204420.41   -25621.539    1600.4091   -27221.948   -279.39343    4523.1196    93.679493    13.784724    27.629178 
 5180200    223.83521   -235.35303    204420.41   -25597.798     1624.657   -27222.455    -297.1145    4521.4429    93.679464    13.784264    27.634274 
 5180400    231.70491   -256.50731    204420.41   -25530.704    1681.7774   -27212.482   -359.05053    4524.2602    93.679444    13.782794    27.635184 
 5180600    227.93272   -217.34119    204420.41    -25520.98    1654.3978   -27175.378   -217.04909    4524.3693    93.678368    13.782355    27.624826 
 5180800    222.18331   -192.18445    204420.41    -25553.09     1612.667   -27165.757   -137.68379    4520.6704    93.678814    13.782761    27.636472 
 5181000    222.30464   -325.45048    204420.41   -25592.799    1613.5476   -27206.346   -645.00545    4525.7014    93.679214     13.78217    27.626979 
 5181200    224.72764   -120.11532    204420.41   -25574.199    1631.1345   -27205.334    122.17362    4518.5112    93.679571    13.782387    27.636811 
 5181400    233.20505   -380.47321    204420.41   -25487.169    1692.6658   -27179.835   -828.32194    4528.3355     93.67889    13.781257    27.636604 
 5181600     226.5798   -131.74039    204420.41   -25599.995     1644.578   -27244.573    56.838315    4522.7452    93.679696    13.780953    27.635137 
 5181800    232.83908   -254.63709    204420.41   -25495.167    1690.0095   -27185.176   -381.87533    4524.8572    93.679875     13.77886    27.642482 
 5182000     229.2993   -179.87634    204420.41   -25518.666    1664.3168   -27182.983   -90.377179    4522.9302    93.679951    13.778755     27.63838 
 5182200     222.8562    -199.7861    204420.41   -25487.366     1617.551   -27104.917   -133.29666     4520.932    93.679785    13.778123     27.63568 
 5182400    225.79451    -294.8068    204420.41   -25566.854    1638.8781   -27205.732   -523.37549    4527.4581    93.679204    13.778036    27.641724 
 5182600    227.25965   -220.16123    204420.41   -25531.716    1649.5125   -27181.229   -264.70848    4522.5665     93.67836    13.777575     27.63524 
 5182800    227.34833   -362.85378    204420.41    -25507.35    1650.1561   -27157.506   -757.14492     4527.803    93.678785    13.777651    27.636311 
 5183000    234.71105   -135.88722    204420.41   -25488.056    1703.5967   -27191.653    30.206583    4519.9552    93.679294    13.778182    27.624504 
 5183200    225.96578   -238.01179    204420.41   -25504.496    1640.1212   -27144.617   -324.93683    4524.4561    93.679638    13.778708    27.635086 
 5183400    217.35271   -219.17105    204420.41   -25620.988    1577.6052   -27198.593   -217.65139    4523.8263    93.678827    13.779185    27.630789 
 5183600    224.66828   -228.11044    204420.41   -25605.278    1630.7036   -27235.982   -275.49761    4523.8752    93.678022    13.779213    27.629515 
 5183800    222.10489   -277.11567    204420.41    -25576.98    1612.0978   -27189.077    -437.5536    4526.3579    93.676786    13.778094    27.631909 
 5184000    229.07867   -159.85385    204420.41   -25509.663    1662.7154   -27172.378   -33.766483    4520.3269    93.676357    13.778915    27.634971 
 5184200    226.72865     -267.729    204420.41   -25523.265    1645.6583   -27168.923   -391.02848    4526.7943    93.676726      13.7799    27.629721 
 5184400    228.63938   -240.26155    204420.41   -25503.953    1659.5269    -27163.48   -357.58637    4525.1251    93.677686    13.780015    27.635454 
 5184600    227.31602   -231.81636    204420.41   -25549.699    1649.9216   -27199.621   -298.99944     4524.438    93.676144     13.77951    27.638102 
 5184800    223.67272    -218.1696    204420.41   -25526.303    1623.4775    -27149.78   -230.03275    4524.0285    93.676812     13.77889     27.65276 
 5185000    228.68927   -228.78241    204420.41   -25538.717     1659.889   -27198.606   -285.35823    4521.8792    93.677115    13.779477    27.653421 
 5185200    225.68569   -318.60218    204420.41   -25594.482    1638.0882   -27232.571   -580.92524    4526.8015    93.676189    13.779339    27.639908 
 5185400    227.59569   -139.12628    204420.41   -25528.295    1651.9515   -27180.246    36.087679    4522.9359    93.675281    13.778915    27.626615 
 5185600    227.15085   -279.28517    204420.41   -25530.867    1648.7227    -27179.59   -469.26687    4527.3397    93.674344    13.779074    27.630531 
 5185800    224.90192   -108.94498    204420.41   -25511.164    1632.3994   -27143.563    181.72456    4522.2795    93.675113    13.778943    27.637362 
 5186000    231.69035   -358.54337    204420.41   -25520.854    1681.6717   -27202.526    -718.0328    4527.1232    93.674232     13.77711    27.637782 
 5186200    227.78665   -104.23142    204420.41   -25492.793    1653.3376   -27146.131    166.34113    4520.0632    93.673956    13.777201     27.63499 
 5186400    226.34708   -339.92718    204420.41    -25529.54    1642.8888   -27172.429   -652.63148    4528.9398    93.674139    13.776897    27.642485 
 5186600    231.60473   -183.69365    204420.41   -25518.422    1681.0502   -27199.472   -141.70354    4524.5979     93.67327    13.777563    27.640401 
 5186800    228.41648   -252.03118    204420.41   -25526.963     1657.909   -27184.872   -378.13868    4523.4662     93.67215     13.77781    27.648465 
 5187000    230.51692   -205.33924    204420.41   -25487.922    1673.1546   -27161.076   -180.97303    4524.7014    93.670904    13.778718    27.649015 
 5187200    226.94718   -153.22577    204420.41   -25550.482    1647.2445   -27197.727   -28.942361    4522.9307    93.670553    13.778924    27.649661 
 5187400    227.03657   -248.33122    204420.41   -25576.248    1647.8933   -27224.141   -328.38838    4527.6011    93.669435    13.779049    27.649319 
 5187600    229.31494   -138.36434    204420.41    -25488.85    1664.4303    -27153.28    44.827121    4522.9477    93.669501    13.778676    27.637835 
 5187800    225.39741   -307.92917    204420.41   -25538.469    1635.9958   -27174.465   -605.84217    4526.4095    93.669516    13.779016    27.637484 
 5188000     233.3195   -145.69934    204420.41   -25471.211    1693.4965   -27164.707   -6.7258515    4522.3614     93.66961    13.779609    27.634178 
 5188200    232.51046   -339.57237    204420.41   -25517.549    1687.6243   -27205.173   -655.78813      4527.09    93.669335    13.780742    27.623986 
 5188400    227.82412     -165.264    204420.41   -25511.647    1653.6096   -27165.256   -27.054592    4521.5442    93.669231    13.780904    27.627474 
 5188600    230.58057   -243.47753    204420.41   -25554.591    1673.6166   -27228.207   -377.24546    4524.4042    93.668669    13.780474     27.62583 
 5188800    226.15005   -254.67317    204420.41   -25582.953    1641.4587   -27224.412   -343.12803    4523.2264    93.669247    13.780409    27.631535 
 5189000    225.22154   -216.30761    204420.41   -25542.353    1634.7193   -27177.072   -225.54208    4522.2041    93.669048    13.780693    27.639826 
 5189200    220.85759   -252.18466    204420.41   -25643.753    1603.0446   -27246.797   -387.30054    4523.9627    93.669072    13.780148    27.636442 
 5189400    223.13554   -205.66709    204420.41   -25594.121    1619.5786     -27213.7    -197.1328    4521.6205    93.669396    13.780478    27.639379 
 5189600    227.04669   -272.71475    204420.41   -25519.677    1647.9667   -27167.644   -427.65471     4525.731     93.66921    13.779833    27.644852 
 5189800    226.82432   -201.17942    204420.41   -25551.178    1646.3527   -27197.531   -150.75376    4522.4789    93.669374    13.780127    27.633547 
 5190000    228.50905   -265.99608    204420.41   -25537.583    1658.5809   -27196.164   -389.60876    4524.0246    93.668475    13.779353    27.641927 
 5190200    228.67153   -260.15749    204420.41   -25561.417    1659.7603   -27221.177   -371.77298     4524.902     93.66879    13.780283    27.639487 
 5190400    230.80599   -221.79586    204420.41   -25462.692    1675.2527   -27137.945   -266.56186    4524.2126    93.668731     13.78041    27.639983 
 5190600    224.36137   -357.18416    204420.41   -25518.809     1628.476   -27147.285   -718.90988    4528.8119    93.668665    13.781063    27.638622 
 5190800    224.43052    -233.1504    204420.41   -25493.051    1628.9779   -27122.029   -299.64218    4522.4415    93.668999     13.78297    27.624829 
 5191000    228.55448   -279.15592    204420.41   -25525.295    1658.9107   -27184.205   -461.56018    4526.6063    93.669276    13.784123    27.634236 
 5191200    228.64638   -256.30252    204420.41   -25521.846    1659.5777   -27181.423   -370.28988    4523.8003    93.670076    13.784526    27.638118 
 5191400     230.0739   -343.39567    204420.41   -25499.612    1669.9391   -27169.551   -692.03351    4527.1668    93.670466    13.786051    27.636969 
 5191600     229.2191   -214.57903    204420.41    -25524.22    1663.7346   -27187.955   -206.44016    4524.7592    93.670362    13.786425     27.63474 
 5191800    230.60188   -285.86883    204420.41   -25483.994    1673.7713   -27157.765   -470.97709    4522.5737    93.670018    13.787559    27.642652 
 5192000     236.2758   -284.56943    204420.41   -25453.376    1714.9542   -27168.331   -454.99112    4527.9203    93.669924    13.787825     27.63472 
 5192200    232.99646   -160.89578    204420.41   -25522.188    1691.1518   -27213.339   -74.623931    4523.0876    93.670468    13.787161    27.638965 
 5192400    230.86619   -268.64969    204420.41   -25533.376    1675.6897   -27209.066   -435.42954    4524.9039    93.670688    13.786433    27.630824 
 5192600    225.93023   -216.30082    204420.41    -25560.34    1639.8632   -27200.204   -266.13393    4523.8598    93.671646    13.786124    27.642627 
 5192800    231.55102   -143.88414    204420.41   -25513.541    1680.6604   -27194.201    78.666141    4524.8852    93.671097     13.78727    27.634878 
 5193000    224.90166   -236.07813    204420.41   -25585.341    1632.3976   -27217.739   -311.47228    4524.4936    93.671328    13.789394    27.627667 
 5193200    225.11992   -237.47094    204420.41   -25511.539    1633.9817   -27145.521   -296.26982    4526.8228    93.669917    13.789247    27.637376 
 5193400     228.1497   -263.39727    204420.41   -25511.097    1655.9727    -27167.07   -403.13156    4526.2524    93.669114    13.789146    27.632574 
 5193600    233.30276   -204.68384    204420.41   -25499.745     1693.375    -27193.12   -141.01375    4525.5987    93.669194    13.790191    27.625092 
 5193800    226.75243   -296.96217    204420.41   -25524.659    1645.8309    -27170.49   -542.06941    4526.3909    93.668713        13.79    27.637867 
 5194000    219.28918   -128.78813    204420.41    -25629.02    1591.6606    -27220.68     74.81056    4522.3613    93.668397    13.788883    27.633895 
 5194200    224.64464   -189.93874    204420.41   -25570.523     1630.532   -27201.055   -92.503532    4526.2626    93.667834     13.78836    27.636481 
 5194400    229.81148   -272.02898    204420.41    -25514.74    1668.0343   -27182.774   -454.20218    4525.1191    93.666779    13.789022    27.644484 
 5194600    230.48856   -200.86388    204420.41   -25488.102    1672.9488   -27161.051   -162.38248    4526.8117    93.668241    13.789444    27.634918 
 5194800    224.18002   -221.74641    204420.41   -25518.639    1627.1597   -27145.799   -241.69178    4524.3171    93.667539    13.789325    27.628282 
 5195000    222.19668   -239.66471    204420.41   -25530.496     1612.764    -27143.26   -343.32543    4524.6866    93.668091    13.788958    27.627852 
 5195200     229.1788   -136.96616    204420.41   -25525.101    1663.4422   -27188.544    62.049623    4526.4678    93.667503    13.788077    27.636852 
 5195400    225.71676   -314.24813    204420.41   -25532.271    1638.3137   -27170.585   -629.38402    4524.9273    93.668028     13.78682    27.629105 
 5195600    222.47434   -290.19006    204420.41   -25578.804    1614.7794   -27193.584   -481.92139    4527.3346    93.668511    13.786517    27.634209 
 5195800     230.4265    -174.9138    204420.41   -25467.476    1672.4984   -27139.974   -90.405094    4522.4484    93.668403    13.786472    27.632263 
 5196000    228.81822   -330.14377    204420.41   -25542.465     1660.825    -27203.29   -622.84671    4527.6736    93.668636    13.786746    27.631131 
 5196200    229.45772   -141.83595    204420.41    -25549.21    1665.4667   -27214.677     48.78619    4523.6096     93.66924    13.786087    27.631737 
 5196400     233.2522   -260.81183    204420.41   -25518.212    1693.0081    -27211.22   -388.38612    4524.6886    93.668722    13.787034     27.63966 
 5196600    232.44595   -234.67959    204420.41   -25501.958     1687.156   -27189.114   -274.62419    4524.3519    93.668136    13.787356    27.643131 
 5196800    228.12576   -207.77536    204420.41   -25505.326    1655.7989   -27161.125   -210.82152    4524.7251    93.667647    13.787643    27.636169 
 5197000    234.46154   -251.92683    204420.41   -25460.302    1701.7858   -27162.088   -363.27921    4524.0368    93.666394    13.788689    27.637617 
 5197200    226.29408   -269.52307    204420.41   -25541.254    1642.5041   -27183.758   -396.12701    4525.9524    93.665962    13.789414    27.633958 
 5197400    224.47285   -307.17121    204420.41   -25543.699    1629.2851   -27172.984   -578.12656    4526.4664    93.665172      13.7901     27.62846 
 5197600    220.10948     -228.721    204420.41   -25572.373    1597.6146   -27169.988   -305.58247    4525.1562    93.664693    13.790448    27.629186 
 5197800    227.67903   -260.28705    204420.41   -25604.969    1652.5564   -27257.525   -360.53533    4524.1254    93.664166    13.789845    27.644847 
 5198000     231.4031   -201.39084    204420.41   -25484.074    1679.5867   -27163.661   -165.22589    4521.7416    93.664148    13.791318    27.651202 
 5198200    229.58752   -249.14244    204420.41   -25493.308    1666.4088   -27159.717   -302.86949    4528.3319    93.664001    13.792314    27.637641 
 5198400    225.78266   -195.92092    204420.41   -25559.835    1638.7921   -27198.627   -141.34113    4524.0517    93.662926    13.792998    27.638222 
 5198600    219.92006   -233.34669    204420.41    -25605.66    1596.2397     -27201.9   -266.80102    4524.1556    93.662206    13.793737    27.635036 
 5198800    225.30792   -266.37844    204420.41   -25526.772    1635.3463   -27162.118   -397.75329    4525.6242    93.661939    13.794673    27.633922 
 5199000    230.92451   -187.13845    204420.41    -25472.31     1676.113   -27148.423    -119.0921     4523.361    93.662236    13.796388    27.632735 
 5199200    235.07091   -230.21705    204420.41   -25534.777    1706.2087   -27240.986   -242.82151    4526.6992    93.660809    13.796219    27.648285 
 5199400     226.7727   -229.51124    204420.41   -25529.599     1645.978   -27175.577   -293.49069    4521.6373    93.660223    13.795668    27.644329 
 5199600    228.39727   -242.20586    204420.41   -25510.391    1657.7696   -27168.161    -298.3443    4526.2913    93.659819    13.795855     27.63703 
 5199800    226.62512   -226.12728    204420.41   -25532.411    1644.9069   -27177.318   -257.83583    4522.7781    93.659842    13.796387    27.642616 
 5200000    233.12485   -291.98882    204420.41       -25488    1692.0837   -27180.083   -481.44432    4525.3494    93.660002    13.796868    27.631071 
Loop time of 5390.22 on 64 procs for 5200000 steps with 8482 atoms

Performance: 833.510 ns/day, 0.029 hours/ns, 964.711 timesteps/s
100.0% CPU use with 64 MPI tasks x no OpenMP threads

MPI task timing breakdown:
Section |  min time  |  avg time  |  max time  |%varavg| %total
---------------------------------------------------------------
Pair    | 0.4228     | 1831.4     | 4093.6     |3559.6 | 33.98
Neigh   | 4.5933     | 221.94     | 569.9      |1145.3 |  4.12
Comm    | 109.41     | 1151.8     | 3531.3     |2935.7 | 21.37
Output  | 136.67     | 136.73     | 136.94     |   0.3 |  2.54
Modify  | 221.8      | 1990.5     | 5079.2     |4440.5 | 36.93
Other   |            | 57.92      |            |       |  1.07

Nlocal:    132.531 ave 258 max 0 min
Histogram: 16 0 1 8 7 0 2 12 6 12
Nghost:    803.734 ave 1106 max 520 min
Histogram: 14 8 6 2 2 4 2 2 18 6
Neighs:    0 ave 0 max 0 min
Histogram: 64 0 0 0 0 0 0 0 0 0
FullNghs:  13228.1 ave 28673 max 0 min
Histogram: 16 16 0 0 0 0 2 8 11 11

Total # of neighbors = 846598
Ave neighs/atom = 99.8111
Neighbor list builds = 543410
Dangerous builds = 0
write_data 		${DIR}/data.${NAME}_run
write_data 		run_6/data.${NAME}_run
write_data 		run_6/data.ibeam_cooling_6_run
Total wall time: 1:30:01
