

### IMPORT ATOMS ###
read_data ../Box_Setup/data.Ibeam_240K
  orthogonal box = (0 0 0) to (157.504 40.4305 33.9212)
  10 by 4 by 4 MPI processor grid
  reading atoms ...
  9248 atoms
  reading velocities ...
  9248 velocities
group water type 2
1952 atoms in group water
group graphite type 1
7296 atoms in group graphite


# Define potential
#
pair_style          sw
pair_coeff * * MLC_e.sw C mW

# Add velocity/set timestep
#

fix		1 graphite setforce 0.0 0.0 0.0
velocity 	graphite set 0.0 0.0 0.0
velocity            water create ${START_TEMP} ${SEED} rot yes dist gaussian
velocity            water create 240 ${SEED} rot yes dist gaussian
velocity            water create 240 20287 rot yes dist gaussian
timestep            5.0

# Define output
#
compute 1 water msd
compute 2 water temp


thermo	            100
thermo_style custom step c_2 press vol etotal ke pe c_1[4] density

# Neighbor lists
#
neigh_modify        delay 0 every 1 check yes


# Set fixes
#
fix                 2 water momentum 10 linear 1 1 1 rescale
fix                 3 all nve
fix                 4 water temp/csvr ${START_TEMP} ${START_TEMP} 500.0 928347
fix                 4 water temp/csvr 240 ${START_TEMP} 500.0 928347
fix                 4 water temp/csvr 240 240 500.0 928347

# Run 0.05 ns equilibration
#
dump                1 all custom 100 ${DIR}/eq.${NAME}.dump id type x y z vx vy vz
dump                1 all custom 100 run_15/eq.${NAME}.dump id type x y z vx vy vz
dump                1 all custom 100 run_15/eq.ibeam_cooling_15.dump id type x y z vx vy vz
run                 10000
Neighbor list info ...
  update every 1 steps, delay 0 steps, check yes
  max neighbors/atom: 2000, page size: 100000
  master list distance cutoff = 6.67472
  ghost atom cutoff = 6.67472
  binsize = 3.33736, bins = 48 13 11
  1 neighbor lists, perpetual/occasional/extra = 1 0 0
  (1) pair sw, perpetual
      attributes: full, newton on
      pair build: full/bin/atomonly
      stencil: full/bin/3d
      bin: standard
Per MPI rank memory allocation (min/avg/max) = 0.4647 | 3.681 | 4.743 Mbytes
Step c_2 Press Volume TotEng KinEng PotEng c_1[4] Density 
       0          240   -299.33439    216009.12   -18704.344    1395.7345   -20100.079            0   0.94393226 
     100    237.01742   -118.64183    216009.12   -18708.265    1378.3891   -20086.654   0.84568744   0.94393226 
     200    244.52004   -107.52008    216009.12   -18761.781    1422.0211   -20183.802    1.1322616   0.94393226 
     300    233.09781   -428.49338    216009.12    -18744.11    1355.5944   -20099.704    1.5537561   0.94393226 
     400    229.74378   -474.13515    216009.12   -18752.326    1336.0888   -20088.415    1.9286018   0.94393226 
     500    232.56266   -439.25334    216009.12   -18728.429    1352.4822   -20080.911    2.1771264   0.94393226 
     600    241.76075   -424.56396    216009.12    -18638.12    1405.9742   -20044.094    2.5477683   0.94393226 
     700    243.91301   -113.91161    216009.12   -18636.903    1418.4908   -20055.394    2.8917294   0.94393226 
     800    243.00526   -207.04361    216009.12   -18608.136    1413.2118   -20021.348      3.38562   0.94393226 
     900     239.9094    -417.5321    216009.12   -18634.475    1395.2076   -20029.682     3.880632   0.94393226 
    1000    236.31466   -316.04233    216009.12   -18664.926    1374.3022   -20039.228    4.1012168   0.94393226 
    1100    241.53692   -232.88441    216009.12   -18635.534    1404.6725   -20040.207    4.5602797   0.94393226 
    1200    241.09051    -287.3778    216009.12   -18629.831    1402.0764   -20031.907    4.9942772   0.94393226 
    1300    246.99327   -300.64814    216009.12   -18590.489    1436.4043   -20026.893     5.532559   0.94393226 
    1400    235.45996   -210.41327    216009.12   -18611.881    1369.3316   -19981.213    6.0181034   0.94393226 
    1500    244.50793   -203.38231    216009.12   -18617.084    1421.9507   -20039.035    6.3805095   0.94393226 
    1600    238.71516   -212.88916    216009.12   -18597.571    1388.2625   -19985.834    6.9095414   0.94393226 
    1700    238.81681   -279.43406    216009.12   -18597.491    1388.8536   -19986.344    7.3706951   0.94393226 
    1800    240.35201    -215.9642    216009.12   -18568.829    1397.7816   -19966.611    7.6624795   0.94393226 
    1900     242.3272   -435.65511    216009.12   -18531.522    1409.2685    -19940.79    8.0895123   0.94393226 
    2000    244.76825   -273.45522    216009.12   -18509.164    1423.4645   -19932.628    8.6698053   0.94393226 
    2100    242.73234   -283.14081    216009.12   -18595.033    1411.6246   -20006.658     9.227779   0.94393226 
    2200    240.98692   -344.23137    216009.12   -18580.193     1401.474   -19981.667    9.7661673   0.94393226 
    2300    240.64215   -369.86552    216009.12    -18549.43     1399.469   -19948.899    10.155414   0.94393226 
    2400    242.87822   -222.20352    216009.12   -18544.729     1412.473   -19957.202    10.609264   0.94393226 
    2500    243.32238   -384.10511    216009.12   -18573.338     1415.056   -19988.394    10.956394   0.94393226 
    2600    238.78906   -229.81037    216009.12    -18567.89    1388.6922   -19956.582    11.290197   0.94393226 
    2700    237.82872   -241.09036    216009.12   -18564.055    1383.1073   -19947.162    11.759982   0.94393226 
    2800    243.74637   -237.94149    216009.12    -18518.71    1417.5218   -19936.232    12.252577   0.94393226 
    2900    242.98242   -316.28724    216009.12   -18524.696    1413.0789   -19937.775    12.667132   0.94393226 
    3000    248.09939   -308.60931    216009.12   -18517.033     1442.837    -19959.87    13.006203   0.94393226 
    3100    247.95921   -292.33207    216009.12   -18510.561    1442.0218   -19952.583    13.712966   0.94393226 
    3200    235.39016   -246.79871    216009.12    -18565.92    1368.9257   -19934.846    14.241441   0.94393226 
    3300    232.45101   -340.43053    216009.12   -18644.467    1351.8329     -19996.3    14.660192   0.94393226 
    3400    244.41875   -252.89575    216009.12   -18593.184     1421.432   -20014.616    15.190856   0.94393226 
    3500    234.32858    -210.2679    216009.12   -18590.139     1362.752   -19952.891    16.052223   0.94393226 
    3600     237.2908   -268.48519    216009.12   -18575.511     1379.979    -19955.49    16.449575   0.94393226 
    3700    243.27869   -201.90072    216009.12   -18565.652    1414.8019   -19980.454    16.869604   0.94393226 
    3800    239.56462     -170.038    216009.12   -18546.923    1393.2025   -19940.126    17.373906   0.94393226 
    3900    240.04535   -231.39017    216009.12   -18574.329    1395.9982   -19970.328    17.859588   0.94393226 
    4000    235.11758   -305.56396    216009.12   -18630.668    1367.3405   -19998.008    18.033672   0.94393226 
    4100    237.41472   -441.46156    216009.12   -18623.544    1380.6997   -20004.244    18.593924   0.94393226 
    4200    243.65679   -390.65058    216009.12   -18608.653    1417.0008   -20025.654    18.986084   0.94393226 
    4300    238.05431   -216.34088    216009.12   -18658.891    1384.4192    -20043.31    19.471618   0.94393226 
    4400    238.43086   -96.523228    216009.12   -18632.829    1386.6091   -20019.438    19.825142   0.94393226 
    4500    241.54825   -279.14388    216009.12   -18677.663    1404.7385   -20082.402    19.975655   0.94393226 
    4600    240.81385    -494.2985    216009.12   -18724.188    1400.4675   -20124.656    20.465324   0.94393226 
    4700    240.16244   -343.15986    216009.12   -18646.674    1396.6792   -20043.353    20.920015   0.94393226 
    4800    245.01701   -357.55705    216009.12   -18616.287    1424.9112   -20041.198    21.245153   0.94393226 
    4900     237.1033   -189.29235    216009.12   -18579.025    1378.8886   -19957.913    21.717465   0.94393226 
    5000    242.55244   -134.44692    216009.12   -18623.076    1410.5784   -20033.654    22.154299   0.94393226 
    5100    242.25565   -301.46485    216009.12   -18614.016    1408.8524   -20022.868    22.584702   0.94393226 
    5200    239.95987   -386.14272    216009.12   -18628.633    1395.5011   -20024.134    22.737754   0.94393226 
    5300    230.44062   -277.62095    216009.12   -18677.895    1340.1414   -20018.036    23.152365   0.94393226 
    5400    241.47157   -429.72421    216009.12   -18659.216    1404.2925   -20063.509    23.209086   0.94393226 
    5500    238.77333     -288.353    216009.12   -18643.559    1388.6008    -20032.16    23.531244   0.94393226 
    5600    235.99379   -269.95299    216009.12   -18677.718    1372.4361   -20050.154    23.770385   0.94393226 
    5700    244.06348   -391.05581    216009.12    -18628.84    1419.3659   -20048.206    24.214014   0.94393226 
    5800    241.44541   -370.17169    216009.12   -18614.133    1404.1404   -20018.273    24.188477   0.94393226 
    5900    239.29326   -260.47622    216009.12   -18631.263    1391.6244   -20022.888    24.476041   0.94393226 
    6000    233.86502   -271.33144    216009.12    -18640.28    1360.0561   -20000.336    24.705962   0.94393226 
    6100    241.16923   -366.10116    216009.12    -18662.01    1402.5342   -20064.545    25.127851   0.94393226 
    6200    236.90436   -284.50585    216009.12    -18659.06    1377.7316   -20036.792    25.726107   0.94393226 
    6300    244.98514   -283.71591    216009.12   -18613.067    1424.7259   -20037.793    26.122003   0.94393226 
    6400    240.12892   -295.35701    216009.12   -18647.211    1396.4842   -20043.695    26.670307   0.94393226 
    6500     233.3699   -170.56767    216009.12   -18663.654    1357.1768   -20020.831    27.199777   0.94393226 
    6600    236.86122   -152.56819    216009.12   -18693.932    1377.4808   -20071.413    27.596762   0.94393226 
    6700    239.85705   -363.64066    216009.12   -18702.885    1394.9032   -20097.788    27.741038   0.94393226 
    6800    235.34861   -303.09903    216009.12   -18690.804    1368.6841   -20059.488    28.223306   0.94393226 
    6900     238.8684   -274.24432    216009.12   -18643.673    1389.1536   -20032.827    28.296159   0.94393226 
    7000    241.07565   -250.70567    216009.12   -18624.209      1401.99   -20026.199    28.535487   0.94393226 
    7100    240.33809   -233.00506    216009.12   -18640.237    1397.7007   -20037.937    28.594892   0.94393226 
    7200    240.40116   -292.34742    216009.12   -18684.678    1398.0675   -20082.745    28.651617   0.94393226 
    7300    240.17876   -304.17236    216009.12   -18721.643    1396.7741   -20118.417    28.816542   0.94393226 
    7400    236.18184   -255.51327    216009.12   -18694.684    1373.5297   -20068.214    29.630872   0.94393226 
    7500    238.32999    -236.1289    216009.12   -18682.209    1386.0224   -20068.232    30.352409   0.94393226 
    7600    241.10307   -167.43269    216009.12   -18648.388    1402.1494   -20050.538    31.093037   0.94393226 
    7700    241.86209   -389.38117    216009.12   -18653.551    1406.5636   -20060.115    31.568954   0.94393226 
    7800    235.26165   -363.55855    216009.12   -18712.832    1368.1783    -20081.01    31.933976   0.94393226 
    7900    239.24385   -198.31387    216009.12   -18690.607    1391.3371   -20081.944    32.323377   0.94393226 
    8000    241.06433   -218.66649    216009.12   -18640.346    1401.9242    -20042.27    32.776307   0.94393226 
    8100     237.5492   -326.01285    216009.12   -18625.417    1381.4817   -20006.898     33.09938   0.94393226 
    8200    237.52504   -272.41315    216009.12   -18633.262    1381.3412   -20014.603    33.160159   0.94393226 
    8300    250.46436   -276.01322    216009.12   -18592.544    1456.5906   -20049.135    33.392075   0.94393226 
    8400    252.89237     -384.593    216009.12   -18574.809    1470.7109    -20045.52    33.930128   0.94393226 
    8500    242.96421   -306.62525    216009.12   -18615.713     1412.973   -20028.686     34.37695   0.94393226 
    8600    240.15325   -221.72565    216009.12   -18635.941    1396.6258   -20032.567    34.443774   0.94393226 
    8700    240.99877   -387.79869    216009.12   -18658.864    1401.5429   -20060.407    35.293174   0.94393226 
    8800    242.16268   -338.08207    216009.12    -18653.85    1408.3117   -20062.161    35.640656   0.94393226 
    8900    230.48243   -333.54127    216009.12   -18671.879    1340.3845   -20012.263    36.137224   0.94393226 
    9000    240.44681   -312.58488    216009.12   -18647.877     1398.333    -20046.21    36.653069   0.94393226 
    9100     238.5593   -361.54454    216009.12   -18663.476     1387.356   -20050.832    36.855592   0.94393226 
    9200    239.55997   -394.86361    216009.12   -18620.098    1393.1755   -20013.274     36.90358   0.94393226 
    9300    237.00305   -196.57355    216009.12   -18671.709    1378.3055   -20050.015    37.112284   0.94393226 
    9400    233.66673   -188.04267    216009.12   -18652.086     1358.903   -20010.989    37.883895   0.94393226 
    9500    237.75495   -214.97535    216009.12    -18688.15    1382.6783   -20070.828      38.5678   0.94393226 
    9600    239.66449   -366.32943    216009.12   -18706.419    1393.7833   -20100.202    39.115697   0.94393226 
    9700    232.09671   -483.56859    216009.12   -18670.613    1349.7724   -20020.385    39.477499   0.94393226 
    9800    242.07288   -200.50944    216009.12    -18625.95    1407.7895   -20033.739    40.036363   0.94393226 
    9900    241.92337   -183.46514    216009.12   -18651.843      1406.92   -20058.763    40.297301   0.94393226 
   10000    241.09457   -411.29728    216009.12    -18653.91       1402.1    -20056.01    40.626674   0.94393226 
Loop time of 14.612 on 160 procs for 10000 steps with 9248 atoms

Performance: 295.648 ns/day, 0.081 hours/ns, 684.371 timesteps/s
97.6% CPU use with 160 MPI tasks x no OpenMP threads

MPI task timing breakdown:
Section |  min time  |  avg time  |  max time  |%varavg| %total
---------------------------------------------------------------
Pair    | 0.00048232 | 2.9647     | 11.785     | 237.3 | 20.29
Neigh   | 0.00032401 | 0.095225   | 0.36378    |  39.3 |  0.65
Comm    | 0.013973   | 3.5104     | 11.659     | 220.0 | 24.02
Output  | 0.17469    | 0.17486    | 0.18173    |   0.1 |  1.20
Modify  | 0.36817    | 7.6796     | 14.271     | 222.1 | 52.56
Other   |            | 0.1871     |            |       |  1.28

Nlocal:    57.8 ave 196 max 0 min
Histogram: 72 21 27 0 0 0 0 0 13 27
Nghost:    535.256 ave 912 max 0 min
Histogram: 24 0 0 8 6 38 36 10 17 21
Neighs:    0 ave 0 max 0 min
Histogram: 160 0 0 0 0 0 0 0 0 0
FullNghs:  5900.81 ave 23593 max 0 min
Histogram: 105 15 0 0 0 0 0 1 20 19

Total # of neighbors = 944130
Ave neighs/atom = 102.09
Neighbor list builds = 571
Dangerous builds = 0
write_data 	    ${DIR}/data.${NAME}_eq
write_data 	    run_15/data.${NAME}_eq
write_data 	    run_15/data.ibeam_cooling_15_eq

undump              1
unfix               4



################################################
#######         Run Simulation         #########
################################################

reset_timestep      0
timestep	    10.0
log                 ${DIR}/log.run_${NAME}
log                 run_15/log.run_${NAME}
log                 run_15/log.run_ibeam_cooling_15
