
# Set production fixes - Nose/Hoover
#
fix                 4 water temp/csvr ${START_TEMP} ${END_TEMP} 500.0 928347
fix                 4 water temp/csvr 240 ${END_TEMP} 500.0 928347
fix                 4 water temp/csvr 240 227 500.0 928347


## divide "droplet" into core and surface
#region		core_reg cylinder z 135 135 44.6 20 INF units box
#region		surface_reg cylinder z 135 135 44.6 20 INF units box side out
#group		core dynamic all region core_reg
#group		surface dynamic all region surface_reg

## compute pressure core
#compute        peratom_core core stress/atom NULL
#compute        p_core core reduce sum c_peratom_core[1] c_peratom_core[2] c_peratom_core[3]
#variable       press_core equal -(c_p_core[1]+c_p_core[2]+c_p_core[3])/(3*1249982.5)


## compute pressure surface
#compute        peratom_surf surface stress/atom NULL
#compute        p_surf surface reduce sum c_peratom_surf[1] c_peratom_surf[2] #c_peratom_surf[3]
#variable       press_surf equal -(c_p_surf[1]+c_p_surf[2]+c_p_surf[3])/(3*42395)

## compute total pressure of drop
compute        peratom water stress/atom NULL
compute        p water reduce sum c_peratom[1] c_peratom[2] c_peratom[3]
variable       press equal -(c_p[1]+c_p[2]+c_p[3])/(3*58301)


# compute order parameter
compute        3 all orientorder/atom nnn NULL cutoff 3.5

# compute center of mass of bridge
compute 	4 water com

# Run simulation
thermo_style        custom step c_2 press vol etotal ke pe v_press c_1[4] c_4[*]
thermo              200
dump		     1 water custom 400 ${DIR}/prod.${NAME}.dump id type x y z vx vy vz c_3[*] c_peratom[*]
dump		     1 water custom 400 run_15/prod.${NAME}.dump id type x y z vx vy vz c_3[*] c_peratom[*]
dump		     1 water custom 400 run_15/prod.ibeam_cooling_15.dump id type x y z vx vy vz c_3[*] c_peratom[*]
run                 ${STEPS}
run                 5200000
Neighbor list info ...
  update every 1 steps, delay 0 steps, check yes
  max neighbors/atom: 2000, page size: 100000
  master list distance cutoff = 6.6747184
  ghost atom cutoff = 6.6747184
  binsize = 3.3373592, bins = 48 11 14
  2 neighbor lists, perpetual/occasional/extra = 1 1 0
  (1) pair sw, perpetual
      attributes: full, newton on
      pair build: full/bin/atomonly
      stencil: full/bin/3d
      bin: standard
  (2) compute orientorder/atom, occasional, copy from (1)
      attributes: full, newton on
      pair build: copy
      stencil: none
      bin: none
Per MPI rank memory allocation (min/avg/max) = 6.105 | 6.802 | 7.324 Mbytes
Step c_2 Press Volume TotEng KinEng PotEng v_press c_1[4] c_4[1] c_4[2] c_4[3] 
       0    238.77348   -206.07537    263624.46   -25856.135    1932.3697   -27788.505   -426.01606     38.16054    78.604408    18.373647    27.402586 
     200    239.81611   -426.90406    263624.46   -25878.815    1940.8076   -27819.622   -1402.7349    39.612919    78.604381    18.374579    27.405066 
     400    242.30642   -206.62593    263624.46   -25824.691    1960.9614   -27785.652    -387.8978    41.548041     78.60448    18.373401    27.402522 
     600    242.60661   -492.15747    263624.46   -25710.963    1963.3909   -27674.354   -1724.2017    42.665844    78.603372    18.373638    27.399168 
     800     240.7561   -349.15142    263624.46   -25699.706    1948.4149   -27648.121   -1077.3199    42.965108    78.603693    18.371909    27.385394 
    1000    235.90436   -321.01559    263624.46   -25762.094    1909.1502   -27671.244   -928.93873    43.935737    78.603756    18.371419     27.37025 
    1200    236.51928   -390.82853    263624.46    -25688.69    1914.1267   -27602.817   -1267.9206    45.234807    78.603325    18.369784    27.369405 
    1400    240.04875      -352.16    263624.46   -25660.428    1942.6904   -27603.118    -1023.121    47.033498    78.602445    18.369103    27.367352 
    1600    240.70041   -367.70181    263624.46   -25667.252    1947.9642   -27615.216   -1133.6418    48.757225    78.602283    18.370257    27.352943 
    1800    244.63883   -278.11568    263624.46   -25642.603    1979.8374   -27622.441   -737.22761    49.529412    78.602577    18.371478    27.372655 
    2000    240.42167    -299.3989    263624.46   -25618.968    1945.7084   -27564.676   -803.44321     51.70155    78.602694    18.373617    27.375247 
    2200    241.42394   -260.98044    263624.46    -25717.95    1953.8196    -27671.77   -640.16144    53.097622    78.603245    18.372716    27.375584 
    2400    245.62556   -90.048555    263624.46    -25673.52    1987.8229   -27661.343    140.37048    54.286688    78.602125    18.374415    27.351662 
    2600    236.29772   -134.51484    263624.46   -25753.269    1912.3336   -27665.603   -107.54259    55.335653    78.601961     18.37595    27.347495 
    2800     244.2462   -370.56496    263624.46   -25639.993    1976.6599   -27616.653   -1118.2485    56.038772    78.601929    18.376495    27.343404 
    3000    244.03817   -233.21498    263624.46   -25648.062    1974.9763   -27623.039   -565.41497    56.906134    78.602746    18.373609    27.339712 
    3200     240.0082   -406.06573    263624.46   -25722.629    1942.3622   -27664.991   -1300.9982    58.471655    78.602921    18.374491    27.336906 
    3400    238.60414   -176.12772    263624.46   -25747.812    1930.9993   -27678.811   -326.14043    60.636134    78.603713    18.374602     27.33802 
    3600     236.7908   -221.35305    263624.46   -25730.669    1916.3241   -27646.994    -479.7558    62.814185    78.606139    18.373555    27.330395 
    3800    240.80978   -267.60968    263624.46   -25696.116    1948.8493   -27644.965   -688.60126    65.028185    78.607033    18.372254    27.336055 
    4000    238.56247   -345.36675    263624.46   -25743.561    1930.6621   -27674.223   -1013.6192    67.897988    78.607346    18.371535    27.325785 
    4200    242.65205    -377.8481    263624.46   -25654.583    1963.7586   -27618.341    -1170.494    69.441325    78.607477    18.371686    27.327567 
    4400    239.95446   -219.87779    263624.46   -25680.902    1941.9273   -27622.829   -498.72622    71.019201     78.60841    18.369063    27.305447 
    4600    237.69056   -333.09683    263624.46   -25785.693    1923.6058   -27709.299   -983.12185    72.703409    78.610377    18.367316    27.288814 
    4800    247.09607   -282.50308    263624.46   -25683.643    1999.7236   -27683.367   -796.30376    73.783434    78.610525    18.367275    27.292392 
    5000    240.01853   -324.58777    263624.46   -25698.232    1942.4458   -27640.678   -951.86092    74.906958    78.610468    18.367505    27.298965 
    5200    239.65776   -264.48141    263624.46   -25718.875    1939.5261   -27658.401   -666.86869    75.900869    78.611104    18.370327    27.280937 
    5400    239.74914   -391.52466    263624.46   -25750.868    1940.2656   -27691.133    -1246.805    77.633056    78.611495    18.371762    27.266104 
    5600    235.79322   -325.58004    263624.46   -25752.878    1908.2508   -27661.129   -933.38065    79.578807    78.611539     18.37458    27.261128 
    5800    238.46052   -185.09144    263624.46   -25718.644     1929.837   -27648.481   -355.23998    81.327683    78.612603    18.377453    27.257878 
    6000    236.98695   -267.79922    263624.46   -25774.754    1917.9115   -27692.665   -641.98417     83.58316    78.612691    18.376921    27.250265 
    6200    243.43553   -164.45243    263624.46   -25782.166    1970.0992   -27752.265   -194.14471    84.307683    78.612562     18.37952    27.259465 
    6400    235.18823   -298.11027    263624.46   -25764.188    1903.3547   -27667.543   -808.07594    85.860932    78.611953    18.379968    27.241009 
    6600    239.23231    -221.5523    263624.46   -25748.599     1936.083   -27684.682    -500.3672    87.470493     78.61249    18.378275    27.253096 
    6800    235.43793   -369.08443    263624.46   -25708.397    1905.3755   -27613.772   -1164.3421    88.658775    78.613103     18.37876    27.253788 
    7000    242.88722   -362.43989    263624.46   -25675.354    1965.6618   -27641.015   -1103.3686     91.32274    78.614596    18.379555    27.264067 
    7200    231.70308   -109.61261    263624.46   -25810.493    1875.1497   -27685.642    12.666503    92.143866    78.613198    18.380439    27.257141 
    7400    237.66798   -268.96014    263624.46   -25697.226     1923.423   -27620.649   -705.79629    94.284027    78.612182    18.380468    27.254223 
    7600    243.68967   -301.43477    263624.46   -25579.966     1972.156   -27552.122   -848.04053    96.699912    78.612089    18.379288    27.254182 
    7800    235.79191   -315.24776    263624.46   -25729.977    1908.2402   -27638.218   -885.23474    97.968452    78.611303    18.378849    27.287501 
    8000    241.52543   -177.11107    263624.46   -25603.581     1954.641   -27558.222   -259.21372    99.397534    78.611822    18.380651    27.282383 
    8200    249.58978   -242.57534    263624.46   -25634.158    2019.9049   -27654.063   -599.18677    100.80638    78.610441    18.380218    27.283837 
    8400    245.61234   -300.23555    263624.46    -25583.56     1987.716   -27571.276   -873.96284     102.2666    78.611925    18.379372    27.269323 
    8600    239.76166   -313.03422    263624.46    -25636.19     1940.367   -27576.557   -919.18469    103.79717    78.612302    18.376754    27.258057 
    8800     243.3819   -92.302571    263624.46   -25661.535    1969.6652   -27631.201    67.454014    105.86647     78.61163    18.376551    27.256983 
    9000    242.40043   -276.03179    263624.46   -25652.216    1961.7222   -27613.938   -722.63571    108.91505     78.61403    18.379226    27.242606 
    9200    248.25896   -212.92603    263624.46   -25623.678    2009.1348   -27632.813   -430.58762     111.7413    78.614736     18.38111    27.232235 
    9400    237.83931   -285.56847    263624.46   -25698.664    1924.8096   -27623.474   -792.86839    113.68018    78.614068    18.381634    27.213392 
    9600    238.42843   -361.39432    263624.46   -25707.438    1929.5773   -27637.015   -1145.8862    114.58904    78.613385    18.379317    27.205729 
    9800     243.5959   -155.36355    263624.46   -25598.961    1971.3971   -27570.358   -209.32977    117.24356    78.612518    18.379726    27.220014 
   10000    239.82837   -272.52069    263624.46   -25660.084    1940.9068   -27600.991   -745.84229    118.82906     78.61248    18.379549    27.237335 
   10200    244.88803   -272.17913    263624.46   -25585.567    1981.8541   -27567.421   -713.74616    120.32783    78.612925    18.381469    27.256263 
   10400    242.65061   -160.35946    263624.46   -25611.571    1963.7469   -27575.318   -198.66815      121.833    78.613934    18.381566    27.255126 
   10600    244.61567   -235.55237    263624.46   -25711.833      1979.65   -27691.483   -578.30431    124.54568    78.614961    18.381293    27.262012 
   10800    234.70296   -363.36215    263624.46   -25786.898    1899.4274   -27686.326   -1159.0263    127.06247      78.6163    18.380215    27.257066 
   11000    243.66815   -288.22564    263624.46   -25778.899    1971.9818   -27750.881   -801.90362    128.99158    78.617941    18.379563    27.278546 
   11200    236.13411    -149.0456    263624.46   -25768.046    1911.0096   -27679.055   -145.94115     129.1201    78.618607    18.381489    27.274432 
   11400    240.64945   -236.07112    263624.46   -25697.923    1947.5518   -27645.475   -594.88338     131.3943    78.618518    18.379523    27.285423 
   11600    238.59787   -326.21065    263624.46   -25615.764    1930.9486   -27546.712   -917.47064    135.07977    78.618947    18.379328    27.278887 
   11800    248.08691   -303.84082    263624.46   -25631.238    2007.7423    -27638.98   -845.11719    137.66079    78.618007    18.378208     27.28209 
   12000    235.34102   -271.23103    263624.46   -25624.778    1904.5912    -27529.37     -734.439    140.98792    78.618166    18.378724    27.295944 
   12200    238.33313   -313.75215    263624.46   -25638.645     1928.806   -27567.451   -897.59487    141.85769    78.617404    18.378422    27.314306 
   12400    237.40443   -247.89742    263624.46   -25701.097    1921.2901   -27622.387   -624.50864    141.12201    78.616889    18.378067    27.316516 
   12600    240.16262    -302.5329    263624.46   -25645.153    1943.6119   -27588.764   -848.55649    140.87666    78.616876    18.378194    27.318204 
   12800    240.81484   -324.09663    263624.46   -25666.844    1948.8902   -27615.734   -961.16631    141.28141    78.617883     18.37834     27.30426 
   13000    239.08536   -267.91797    263624.46   -25727.703    1934.8937   -27662.597   -693.08038    142.95826    78.617907    18.377386    27.308858 
   13200    236.30691   -425.51604    263624.46   -25748.748     1912.408   -27661.156   -1465.9906     144.8701    78.618804    18.374974    27.323757 
   13400    236.38865   -254.82571    263624.46   -25827.103    1913.0695   -27740.172   -599.57142    146.13296      78.6191    18.377163    27.346412 
   13600    242.21159   -339.13142    263624.46   -25781.029     1960.194   -27741.223   -1017.8346    148.27677    78.621818    18.378584    27.364331 
   13800    246.24774   -391.17495    263624.46   -25698.333    1992.8582   -27691.191   -1281.4644    151.66484    78.622649    18.380431    27.361989 
   14000    246.94337   -362.11955    263624.46   -25638.588    1998.4878   -27637.076   -1087.3991    153.91932    78.623868    18.380594    27.381944 
   14200    241.58545   -171.91238    263624.46   -25753.156    1955.1267   -27708.283   -273.03531    155.87362    78.623769    18.377825    27.406021 
   14400    240.18926   -128.25595    263624.46   -25775.962    1943.8275   -27719.789    -65.62763    158.88352    78.622816    18.380342    27.406036 
   14600    239.04229    -309.8426    263624.46   -25763.566    1934.5451   -27698.112    -902.1885    161.83751    78.624642    18.379753    27.407712 
   14800    243.04441   -284.67345    263624.46   -25740.398    1966.9339   -27707.332   -756.14382    164.68154    78.625492    18.379435    27.396782 
   15000    241.05313   -164.99321    263624.46   -25794.688    1950.8187   -27745.507   -273.67998    167.00239    78.625754    18.378835    27.398001 
   15200    240.68551   -170.71084    263624.46   -25776.387    1947.8436   -27724.231   -290.01906    168.32858    78.627247    18.378415    27.405965 
   15400    236.53776   -178.18558    263624.46   -25799.502    1914.2763   -27713.778   -293.77654    170.59882    78.629666    18.376416    27.388336 
   15600    248.21037   -204.07668    263624.46   -25662.614    2008.7415   -27671.356   -389.79547    171.64492    78.629849    18.376276    27.377445 
   15800    240.68659   -319.04257    263624.46   -25657.969    1947.8523   -27605.822   -896.36386    173.52657    78.629639    18.376498    27.384675 
   16000    242.30439   -388.52825    263624.46   -25726.897     1960.945   -27687.842   -1225.2729    176.32693    78.631454     18.37706    27.389669 
   16200    237.74187   -329.13084    263624.46   -25692.691     1924.021   -27616.712   -955.63349    177.13872    78.631268    18.377905     27.38934 
   16400    238.89974   -179.38458    263624.46   -25709.829    1933.3915    -27643.22   -286.91603    178.64594    78.633138    18.376533    27.391527 
   16600    243.47616   -195.00789    263624.46    -25649.78     1970.428   -27620.208   -362.32573    181.33132    78.636484    18.377416    27.404615 
   16800    246.53169   -174.94499    263624.46   -25687.697    1995.1561   -27682.853   -260.93322     183.1774    78.637247    18.375361    27.426437 
   17000    231.78414   -141.97934    263624.46    -25756.78    1875.8057   -27632.585   -108.47672    185.32823    78.637252    18.376533    27.437258 
   17200    237.00831   -165.78451    263624.46   -25754.212    1918.0844   -27672.296   -232.56829    187.57499     78.63645    18.376982    27.442159 
   17400    233.65198   -325.98604    263624.46   -25835.245    1890.9219   -27726.167   -971.64121    189.40563     78.63453    18.377534    27.443442 
   17600     238.9118   -204.09456    263624.46   -25771.034    1933.4891   -27704.523   -383.06177    189.69498    78.633384    18.376901    27.442225 
   17800    234.45116   -194.54161    263624.46   -25778.446    1897.3896   -27675.836   -363.81452    193.23117    78.632674    18.377733     27.43388 
   18000    235.00994   -266.31144    263624.46    -25703.26    1901.9118   -27605.172   -629.55796    192.57585    78.632981     18.37843    27.424395 
   18200    234.97614   -307.19024    263624.46   -25718.676    1901.6383   -27620.315   -827.50953    191.53906    78.631955     18.37853    27.427021 
   18400    239.85883   -262.17797    263624.46    -25695.61    1941.1534   -27636.764   -638.21445    191.67985    78.632545    18.377295     27.42238 
   18600    242.42688    -335.3664    263624.46   -25663.452    1961.9363   -27625.388   -982.46902    192.98129    78.632832    18.378076    27.407811 
   18800    236.25357   -176.70716    263624.46   -25696.181    1911.9764   -27608.157   -250.17976    195.09345     78.63338    18.375149    27.421638 
   19000    240.18682   -266.07238    263624.46   -25602.923    1943.8078   -27546.731   -630.72994    198.79637    78.634223    18.374315     27.43226 
   19200     238.0857   -247.54362    263624.46   -25636.461    1926.8036   -27563.264   -561.05887    201.27618    78.632882    18.372491    27.444088 
   19400    244.11146   -428.43428    263624.46   -25606.266    1975.5695   -27581.835   -1374.9798    202.74536    78.631998    18.372602    27.430588 
   19600    241.56066   -195.00839    263624.46     -25645.9    1954.9261   -27600.826   -348.44762    203.32025     78.63186     18.37201    27.433083 
   19800    241.48542   -342.53167    263624.46   -25677.655    1954.3172   -27631.972   -981.41333    202.65781     78.63137    18.372541    27.423357 
   20000    240.06223   -239.07178    263624.46    -25690.98    1942.7994   -27633.779     -546.625    202.87913    78.630577    18.372531    27.409315 
   20200    238.50587   -363.67521    263624.46   -25726.044     1930.204   -27656.248   -1111.0568    204.27314    78.629481    18.373779    27.407269 
   20400    240.76632   -270.80749    263624.46   -25626.204    1948.4976   -27574.702   -737.07607    205.26698    78.627049    18.371479    27.415599 
   20600    233.15682   -195.60805    263624.46   -25754.337    1886.9146   -27641.252   -377.09598    206.72197    78.626303    18.371602    27.423866 
   20800    240.57976   -446.31644    263624.46   -25656.098    1946.9878   -27603.086   -1509.9977    207.45272     78.62611    18.374246    27.413272 
   21000    239.05991   -234.35224    263624.46   -25705.447    1934.6878   -27640.135   -510.00063    208.81602    78.626903    18.374495    27.406573 
   21200    235.10123   -296.71423    263624.46   -25682.375    1902.6506   -27585.026   -826.12422    211.99083    78.626813    18.376179    27.394756 
   21400    240.59956   -368.29241    263624.46   -25699.112     1947.148    -27646.26   -1118.9528    213.25716    78.626891    18.378609    27.398414 
   21600    244.24992   -432.24883    263624.46   -25539.926      1976.69   -27516.616   -1450.8555    216.38664    78.626891    18.380238    27.391456 
   21800    243.29171   -185.13317    263624.46   -25675.445    1968.9353    -27644.38   -305.20938    219.43086     78.62648    18.381079    27.397386 
   22000     241.2329   -411.67543    263624.46   -25735.572    1952.2735   -27687.845   -1295.6278    222.36995    78.625927    18.383093    27.398417 
   22200    227.28508   -177.77536    263624.46   -25798.668    1839.3952   -27638.063   -261.08556    224.70591    78.627609    18.384837    27.407322 
   22400    238.41694   -325.94698    263624.46   -25641.176    1929.4843    -27570.66   -947.79649    228.46095    78.627543    18.385675    27.396971 
   22600    235.86355   -172.94203    263624.46   -25645.771      1908.82   -27554.591   -241.43887    233.16957    78.626369    18.385341    27.381937 
   22800     239.9423   -222.39642    263624.46    -25617.25    1941.8289   -27559.079   -508.58301    235.14682    78.628185    18.386026    27.392081 
   23000    241.00641   -230.48569    263624.46   -25686.161    1950.4406   -27636.602   -492.89511    236.56242    78.628798    18.391284    27.405956 
   23200    248.17597   -245.86658    263624.46   -25618.052    2008.4631   -27626.515   -554.61389    237.68806    78.628793    18.392124    27.404444 
   23400    241.84359   -247.59208    263624.46   -25649.288    1957.2158   -27606.504   -594.27429    238.90207    78.630212    18.394952    27.425095 
   23600    240.87876   -282.65504    263624.46   -25575.761    1949.4075   -27525.168   -732.50226     241.9582    78.629655    18.395683    27.403326 
   23800    240.39733   -367.62579    263624.46   -25623.573    1945.5114   -27569.084   -1138.5995    241.57532    78.629626    18.395849    27.402638 
   24000     238.2764   -230.01567    263624.46   -25636.038    1928.3469   -27564.385   -481.84074    239.59587    78.628855    18.396906      27.3872 
   24200    234.48803   -296.39059    263624.46    -25651.35     1897.688   -27549.038   -808.69538    239.20693    78.628408    18.397338    27.398741 
   24400    241.61365   -281.88883    263624.46   -25727.163    1955.3549   -27682.518    -764.2122    243.61097    78.629332    18.395352    27.393467 
   24600    235.58237   -277.55794    263624.46    -25766.63    1906.5444   -27673.175   -758.75831     244.7974    78.630597    18.394318    27.379893 
   24800    241.43585   -281.30864    263624.46   -25777.248     1953.916   -27731.164   -760.72712     246.4686    78.631104    18.390348    27.369953 
   25000    237.11361   -148.80767    263624.46   -25749.961    1918.9365   -27668.898   -168.97271    246.44773    78.632562    18.391466    27.371189 
   25200    230.26666   -243.68924    263624.46   -25880.705    1863.5249    -27744.23   -563.62084    246.64656    78.631757    18.391425    27.360257 
   25400    235.82306   -216.38882    263624.46   -25791.134    1908.4923   -27699.626   -477.64205    246.21269    78.630542    18.392262    27.357565 
   25600    241.55822   -235.25556    263624.46   -25657.378    1954.9063   -27612.284   -562.24697      248.499    78.631463    18.391427    27.366877 
   25800    241.43689    -226.4701    263624.46    -25697.24    1953.9244   -27651.164   -519.38724    250.32687     78.62956    18.389315    27.381209 
   26000    244.61131   -339.43157    263624.46   -25747.422    1979.6147   -27727.036      -1045.8    253.22918    78.628581    18.388052    27.387512 
   26200    235.34927   -200.06689    263624.46   -25722.337    1904.6579   -27626.995   -388.87132    253.65484    78.628434    18.384525    27.392529 
   26400    241.59867   -284.04523    263624.46   -25772.365    1955.2337   -27727.599    -760.7627    253.74685      78.6281    18.380802     27.41544 
   26600    241.11849   -226.45569    263624.46   -25614.334    1951.3477   -27565.682   -493.79208    256.11743    78.627659     18.37999    27.432029 
   26800    247.07732   -257.48757    263624.46   -25661.714    1999.5718   -27661.286   -634.07754    258.93349    78.626966    18.380335    27.441219 
   27000    244.77661   -205.16744    263624.46   -25672.573    1980.9525   -27653.526   -390.21143    261.32276    78.626194    18.379781    27.448039 
   27200    240.56847   -154.11417    263624.46   -25663.556    1946.8964   -27610.453   -143.52514    262.64287     78.62638    18.379666     27.47029 
   27400    246.84968   -231.37422    263624.46   -25634.148    1997.7296   -27631.877   -509.23366    263.70266    78.628353    18.379783    27.463612 
   27600    235.91013   -298.79821    263624.46   -25802.416    1909.1969   -27711.613   -802.95089    264.67307    78.627248    18.380318    27.457723 
   27800    241.62556   -214.97457    263624.46   -25649.381    1955.4513   -27604.832   -441.00212    266.87522    78.627938    18.380093     27.48846 
   28000    238.84901   -348.54969    263624.46   -25775.196     1932.981   -27708.177     -1051.94    268.93334    78.628774    18.380704    27.475441 
   28200    238.85882   -213.49619    263624.46   -25724.008    1933.0604   -27657.068   -438.11909    270.66394    78.630199    18.380132     27.50774 
   28400    242.11187   -241.53564    263624.46   -25678.024     1959.387   -27637.411   -550.19669    272.74236    78.631821    18.379387    27.497915 
   28600    239.94735   -238.13467    263624.46   -25724.501    1941.8698   -27666.371   -570.50713    275.21808    78.630315    18.377896    27.493131 
   28800    239.32252   -172.25524    263624.46   -25731.225     1936.813   -27668.038   -259.63106    277.23037    78.628949    18.377054     27.47853 
   29000     243.5257   -195.16298    263624.46   -25655.029    1970.8289   -27625.858   -319.33723    279.73516    78.629421    18.376185    27.479006 
   29200    241.32108   -324.59049    263624.46   -25600.922    1952.9872   -27553.909   -968.96194    281.57142    78.629602    18.376773    27.502522 
   29400    237.07104   -99.852649    263624.46   -25617.106     1918.592   -27535.698    82.108612    282.11304    78.629721    18.376873    27.516021 
   29600    243.22906    -422.5512    263624.46   -25607.162    1968.4283   -27575.591   -1380.0233    284.42797    78.629683    18.375928    27.517244 
   29800    235.49863   -201.77118    263624.46   -25759.291    1905.8667   -27665.157   -415.28541    285.34592    78.629559    18.375104    27.505018 
   30000    234.40596   -304.95443    263624.46   -25820.538    1897.0238   -27717.562   -841.21059    286.43733    78.629352    18.375165    27.505551 
   30200    234.93077   -149.58022    263624.46   -25792.901    1901.2711   -27694.172   -112.07374    289.36147    78.629238    18.376002     27.50758 
   30400    243.00415   -443.48161    263624.46   -25745.944    1966.6081   -27712.552   -1489.8338    292.34144    78.630174    18.375778    27.514131 
   30600    240.57112   -213.47257    263624.46   -25804.978    1946.9178   -27751.896   -435.80707     291.5086    78.630824    18.375086    27.512443 
   30800    239.64864   -212.88601    263624.46   -25751.376    1939.4523   -27690.829   -439.51082    292.65538    78.632532    18.374645    27.505001 
   31000    240.58835   -310.14765    263624.46    -25722.01    1947.0573   -27669.068   -897.65209    294.97099    78.633608    18.375412    27.498763 
   31200    239.16444   -268.05048    263624.46   -25704.461    1935.5337   -27639.994   -672.50392    295.30079    78.633885    18.377392    27.484695 
   31400    239.20264   -341.89447    263624.46   -25712.237    1935.8428    -27648.08   -1051.0206      298.116    78.634764    18.379783    27.482065 
   31600    243.07787   -296.77754    263624.46   -25699.258    1967.2047   -27666.463   -812.59231    299.11825    78.636146    18.383099    27.483945 
   31800    239.69415   -298.44414    263624.46   -25636.592    1939.8206   -27576.413   -818.92036    300.33094    78.635413    18.383882    27.468521 
   32000    240.79287   -280.11392    263624.46   -25692.794    1948.7124   -27641.507   -784.93424     301.4692    78.635791    18.384106    27.471294 
   32200    233.94326   -345.66922    263624.46   -25801.157    1893.2792   -27694.436   -1056.1463    303.23197    78.636245    18.382512    27.459353 
   32400    232.95574   -45.733399    263624.46   -25768.341    1885.2873   -27653.629    285.34588    304.00264    78.636605    18.382082    27.478481 
   32600    242.62021   -215.39423    263624.46   -25607.936     1963.501   -27571.437   -422.53806    306.10285    78.635983    18.381747    27.495654 
   32800    242.69165   -292.06452    263624.46   -25629.146     1964.079   -27593.225   -817.95108    308.99055    78.636288    18.379584    27.496041 
   33000    242.17148   -342.99721    263624.46   -25668.542    1959.8694   -27628.412   -1017.8164    310.98267    78.636121     18.37836    27.523825 
   33200    240.84836   -205.19434    263624.46   -25764.592    1949.1616   -27713.753   -415.17665    313.10374    78.634047    18.377675    27.527784 
   33400    238.44176   -253.37978    263624.46   -25742.042    1929.6851   -27671.727   -617.07406    314.76805    78.633131    18.379411    27.550552 
   33600    243.25482   -206.63725    263624.46   -25761.658    1968.6368   -27730.295   -428.97263    316.12277    78.632154    18.378999    27.553135 
   33800    239.44385   -325.18606    263624.46   -25626.705    1937.7949     -27564.5   -958.96868    317.23961    78.629951    18.380406    27.551173 
   34000    236.46467   -200.29745    263624.46   -25738.042    1913.6848   -27651.726   -432.68978    317.97159    78.630004    18.380272    27.546812 
   34200    239.77827   -328.46031    263624.46   -25689.435    1940.5014   -27629.936   -935.16794    318.36078    78.627785    18.376648    27.536807 
   34400    239.79117   -338.03831    263624.46   -25752.436    1940.6058   -27693.042   -1024.6109    318.62308    78.627108     18.37301    27.545471 
   34600    245.44793   -372.87217    263624.46    -25627.88    1986.3854   -27614.265   -1158.1146    316.62851    78.625475    18.374911    27.532243 
   34800    240.18695   -350.79282    263624.46   -25727.099    1943.8088   -27670.908   -1017.0233    314.96438    78.623447    18.374397    27.542948 
   35000    240.22739   -283.75394    263624.46   -25704.499     1944.136   -27648.635   -742.71962    314.82347    78.625419    18.374583    27.543535 
   35200    244.75634   -157.83402    263624.46   -25665.101    1980.7884   -27645.889   -207.07739    313.03193     78.62526    18.373016    27.547947 
   35400    238.37315   -342.89323    263624.46   -25707.107    1929.1299   -27636.236    -1020.404    314.56805    78.625265    18.371995    27.528437 
   35600    242.11017     -274.962    263624.46   -25707.133    1959.3732   -27666.506   -724.09122    314.67323    78.625227    18.372103    27.527218 
   35800    246.51106   -184.35752    263624.46    -25575.94    1994.9892   -27570.929    -306.9282    314.35152    78.624956    18.369553     27.50429 
   36000    236.60788   -133.66342    263624.46   -25760.266    1914.8437   -27675.109   -68.612737    316.14388    78.626898    18.368488    27.507375 
   36200     237.5616   -199.66822    263624.46   -25735.232    1922.5621   -27657.795   -372.27994    319.04399    78.626918    18.366837    27.519543 
   36400    234.64346   -206.88421    263624.46   -25698.681    1898.9459   -27597.627   -444.81125    318.19425    78.625003    18.366291    27.499326 
   36600    238.16951   -229.38068    263624.46   -25649.808    1927.4819    -27577.29    -511.0657    317.90348    78.625781    18.367574     27.50309 
   36800    235.46843   -276.46509    263624.46   -25763.091    1905.6223   -27668.713   -738.85888     318.4521     78.62597    18.368466    27.512968 
   37000    244.64191   -219.51768    263624.46   -25680.407    1979.8624    -27660.27   -504.32804    319.89849    78.625373    18.370459    27.517754 
   37200    242.74989   -249.41952    263624.46   -25753.209    1964.5504   -27717.759   -559.86843    321.63042    78.625714    18.370497    27.527446 
   37400    235.44807   -406.17501    263624.46   -25742.722    1905.4575    -27648.18   -1304.8241    322.11084    78.625187    18.370908    27.524108 
   37600     239.4965   -249.56803    263624.46   -25715.452    1938.2211   -27653.673   -596.11231     322.8008    78.624681    18.368366    27.525002 
   37800     237.1825   -470.48958    263624.46   -25809.098    1919.4941   -27728.592   -1612.8347    326.02896    78.626206     18.36572    27.518966 
   38000     235.0202   -259.18124    263624.46   -25703.228    1901.9948   -27605.223    -649.2325    327.91307    78.625683     18.36527    27.517355 
   38200    238.96694   -280.47409    263624.46   -25667.652    1933.9353   -27601.587   -740.78012    329.20245     78.62576    18.363875    27.501003 
   38400    237.23056   -256.14828    263624.46   -25639.865     1919.883   -27559.748   -620.30432    331.91175    78.625519    18.362014    27.496261 
   38600    237.86273   -360.34201    263624.46   -25669.256    1924.9991   -27594.255   -1141.3269    333.82228    78.625999    18.361753    27.492043 
   38800    240.62624   -380.93217    263624.46   -25755.504    1947.3639   -27702.868   -1198.7161    335.39494    78.624107    18.361628    27.492212 
   39000    242.83461   -307.21854    263624.46   -25638.275    1965.2361   -27603.511   -813.69633    336.37081    78.623918    18.361933    27.491333 
   39200    238.72611   -313.43176    263624.46   -25742.699    1931.9863   -27674.685   -903.32924     337.0754    78.625076    18.361918    27.485178 
   39400    241.42827    -226.2967    263624.46   -25680.211    1953.8547   -27634.066   -505.57801     337.8686    78.625428    18.362932     27.49785 
   39600    244.89103   -355.22368    263624.46   -25655.938    1981.8784   -27637.817   -1073.4064    339.68123     78.62344    18.362877    27.497822 
   39800    239.74506   -293.75956    263624.46   -25724.361    1940.2326   -27664.594   -790.80958    340.86627    78.624212    18.362503    27.509709 
   40000    237.02515   -136.82437    263624.46   -25745.699    1918.2207    -27663.92   -114.41932    342.05929    78.623393    18.363132    27.517034 
   40200    240.13788   -229.39321    263624.46   -25679.543    1943.4117   -27622.954   -516.49753    342.90817    78.623759    18.362672    27.486664 
   40400     239.0692   -281.18021    263624.46   -25720.604     1934.763   -27655.367   -717.34469    343.03523    78.624452    18.362267    27.473547 
   40600    241.01282   -385.34715    263624.46   -25632.695    1950.4925   -27583.187   -1205.0509    345.96889    78.623082    18.361066    27.471108 
   40800    240.80947    -244.7338    263624.46   -25642.321    1948.8468   -27591.168   -549.03806     346.0078    78.623017    18.357784    27.475224 
   41000    235.38885   -462.19526    263624.46   -25680.842    1904.9782   -27585.821   -1534.4351    349.58679    78.623725    18.355305    27.467191 
   41200    241.82462   -242.61783    263624.46   -25604.522    1957.0623   -27561.585   -536.89151    352.28147    78.624316    18.354831    27.495256 
   41400    238.37113    -300.7835    263624.46   -25663.249    1929.1135   -27592.362   -850.25231    352.09295    78.626054    18.355448    27.500899 
   41600    235.74647   -372.35423    263624.46   -25664.656    1907.8725   -27572.529   -1159.3248    354.81212    78.627179    18.357413    27.495371 
   41800    242.93232     -455.725    263624.46   -25692.659    1966.0268   -27658.686   -1537.9479    355.75896    78.626561    18.358386    27.498885 
   42000    239.29537   -311.53833    263624.46   -25708.965    1936.5934   -27645.558   -839.36834    356.57394     78.62631    18.356985    27.491957 
   42200    241.68832   -270.78453    263624.46   -25747.691    1955.9592    -27703.65   -674.42274    359.06126    78.624355    18.355153    27.474548 
   42400    238.11213   -174.59365    263624.46   -25724.555    1927.0175   -27651.573    -235.3124    360.69804    78.623552    18.355677     27.46454 
   42600    240.33707   -205.82837    263624.46   -25714.385    1945.0237   -27659.408   -389.70033     361.0235     78.62143    18.355673     27.45703 
   42800    244.68971   -243.43463    263624.46   -25711.865    1980.2492   -27692.114   -539.83567    359.74367    78.621975    18.355487    27.466692 
   43000    237.20118   -336.43158    263624.46   -25759.479    1919.6453   -27679.125   -982.98241    358.59126     78.62493    18.356431    27.452127 
   43200    234.58542   -442.37878    263624.46   -25756.719    1898.4762   -27655.195   -1431.6044    360.07882    78.625151    18.357036    27.436486 
   43400    242.91734   -268.95645    263624.46   -25737.626    1965.9056   -27703.532   -655.46132    362.05054    78.623514    18.356294    27.417709 
   43600    241.65321   -433.63935    263624.46    -25747.07    1955.6751   -27702.745   -1419.9267    364.88424    78.623429    18.355243    27.424195 
   43800    235.48516   -392.26537    263624.46   -25815.912    1905.7577    -27721.67   -1221.2827    365.76872    78.623668    18.353308    27.428478 
   44000    236.42084   -333.13368    263624.46   -25840.828      1913.33   -27754.158   -977.34355    367.52486     78.62522     18.35444     27.43977 
   44200     240.2891    -208.4896    263624.46   -25748.558    1944.6355   -27693.193   -396.36141    368.05923    78.624422    18.355067     27.44674 
   44400     236.7007   -290.71543    263624.46   -25773.024    1915.5949   -27688.619   -786.51186    368.14284     78.62227    18.356297    27.435348 
   44600    236.16224   -496.46854    263624.46   -25767.349    1911.2373   -27678.586   -1688.9426    369.69927    78.623241    18.358237    27.440233 
   44800    233.77423   -409.70046    263624.46    -25736.58    1891.9113   -27628.492   -1302.1185    370.11679    78.621323    18.360546    27.441841 
   45000     238.6373   -187.96577    263624.46    -25727.59    1931.2676   -27658.857   -328.61782    371.01229    78.621545    18.364768    27.423662 
   45200    237.76863   -342.04416    263624.46   -25687.422    1924.2375   -27611.659   -1018.4737    372.52664    78.621512    18.365699    27.413501 
   45400    236.80466   -294.38336    263624.46    -25764.52    1916.4363   -27680.956    -787.5812     373.6537    78.621136    18.366296    27.392681 
   45600    238.28405   -434.50144    263624.46    -25679.05    1928.4088   -27607.459   -1423.0708    375.63592    78.619833    18.366628    27.386064 
   45800    241.57329   -284.35743    263624.46   -25709.108    1955.0283   -27664.136   -737.26798    376.05412    78.621048    18.367221    27.380734 
   46000    243.70565   -416.27291    263624.46   -25677.671    1972.2853   -27649.956   -1339.9671     378.4164      78.6213    18.367208    27.378944 
   46200    239.24195   -354.80879    263624.46   -25650.475     1936.161   -27586.636   -1032.6949    380.42523    78.621051    18.364562     27.37864 
   46400    237.70978   -384.49746    263624.46   -25724.261    1923.7613   -27648.023   -1209.4241    382.44593    78.621242    18.364994    27.382681 
   46600    240.71565    -225.9121    263624.46   -25702.648    1948.0875   -27650.736   -513.74794    383.63974    78.620469    18.365181    27.391881 
   46800    240.32424   -267.30523    263624.46   -25652.061    1944.9199   -27596.981   -719.76533    384.43885     78.62083    18.365446    27.381956 
   47000      237.334   -210.07909    263624.46   -25723.027    1920.7202   -27643.748   -450.45838    386.61384     78.62088    18.366488    27.387603 
   47200    237.21087     -231.962    263624.46   -25759.549    1919.7236   -27679.273    -524.4017    390.41312    78.621268    18.367976    27.391447 
   47400    240.31102    -398.3918    263624.46   -25757.621    1944.8129   -27702.434   -1284.5902    389.51133    78.621326    18.365856    27.393267 
   47600    239.59729   -342.44536    263624.46   -25738.268    1939.0367   -27677.305   -1009.2104    388.28409    78.622087    18.365644    27.382516 
   47800    232.88436   -371.97236    263624.46   -25748.996    1884.7097   -27633.706   -1146.3553    390.34622    78.621191    18.367207    27.380493 
   48000    238.84582   -296.31786    263624.46   -25753.683    1932.9551   -27686.639   -805.32696    392.45051    78.620828     18.36932    27.382341 
   48200    237.01826   -260.48702    263624.46   -25790.897    1918.1649   -27709.062   -649.95777     391.8111    78.621432    18.369375    27.389788 
   48400    240.49028   -113.07735    263624.46   -25768.075    1946.2636   -27714.339    20.229833    392.46727    78.620034    18.368506    27.365644 
   48600    241.43646   -244.58093    263624.46    -25833.62     1953.921   -27787.541   -564.56353    393.69034    78.621302    18.367596    27.372962 
   48800    234.85063   -344.15225    263624.46   -25791.014    1900.6225   -27691.636   -1064.2074    393.57925    78.621057    18.370115    27.357588 
   49000    242.74924   -436.84905    263624.46   -25767.406    1964.5452   -27731.952   -1476.6368    394.75516     78.61986    18.371496    27.353871 
   49200    240.15636   -513.14355    263624.46   -25716.633    1943.5612   -27660.194   -1770.0964     394.2231    78.618784    18.373216    27.351969 
   49400    231.75678   -245.75758    263624.46   -25786.979    1875.5843   -27662.563   -573.35643    394.97634    78.619728    18.372668     27.36224 
   49600     244.6709   -302.61837    263624.46   -25764.356    1980.0969   -27744.453   -834.64925    397.86254      78.6205    18.373394    27.340238 
   49800    238.84846   -276.23691    263624.46   -25794.657    1932.9765   -27727.633   -724.54199    400.24566    78.621942    18.375248    27.338602 
   50000    235.48586   -603.69497    263624.46   -25770.969    1905.7633   -27676.733   -2175.2024    402.30718    78.622352     18.37506    27.360123 
   50200    233.29192   -117.89166    263624.46   -25725.697     1888.008   -27613.705   -24.977714    403.77774    78.622488    18.376716    27.360956 
   50400    240.01362   -282.75361    263624.46   -25733.075    1942.4061   -27675.481   -735.86989    404.73809    78.624444    18.380154    27.379554 
   50600    244.92178   -331.02679    263624.46   -25625.917    1982.1273   -27608.044   -968.04389    402.85902    78.625901    18.381741    27.378418 
   50800    238.00481    -206.9165    263624.46   -25775.367     1926.149   -27701.516   -438.16146     405.5609    78.626961    18.384649    27.397478 
   51000    236.89504   -163.66415    263624.46   -25740.107    1917.1677   -27657.275   -184.34933    407.16336     78.62562     18.38589    27.409435 
   51200     233.8833   -405.43829    263624.46   -25793.834     1892.794   -27686.628   -1325.7424    408.19304    78.625838    18.385202    27.424614 
   51400    234.42873   -275.03326    263624.46   -25736.232    1897.2081    -27633.44   -688.57726    409.01367    78.627587     18.38803    27.445254 
   51600    240.13784   -241.99281    263624.46   -25718.976    1943.4113   -27662.387   -560.07969     409.6942    78.628589    18.388798    27.456535 
   51800    240.03968   -232.00468    263624.46   -25693.344     1942.617   -27635.961   -485.08293    411.84819    78.628558     18.38819    27.457834 
   52000    239.65368    -313.4309    263624.46   -25738.017    1939.4931    -27677.51   -881.40172    411.14833    78.626932    18.387066    27.459089 
   52200    233.25851    -291.1263    263624.46   -25804.078    1887.7376   -27691.816   -766.28741    411.32869    78.627697    18.387084    27.472108 
   52400    235.21278   -212.17841    263624.46   -25838.341    1903.5533   -27741.895   -418.57703    412.67053    78.629107    18.384995     27.48464 
   52600    238.20271    -333.3142    263624.46   -25694.517    1927.7505   -27622.267   -974.84696    414.39222    78.629759    18.385546    27.473434 
   52800    245.80431   -151.11019    263624.46   -25651.405    1989.2695   -27640.675   -181.19371    413.05366    78.631409    18.388654    27.453337 
   53000     246.5118   -107.51414    263624.46   -25633.165    1994.9952    -27628.16    20.611439    413.80772      78.6328    18.388598    27.449009 
   53200    240.60761   -265.76215    263624.46   -25776.762    1947.2131   -27723.975   -678.56944    417.32884    78.634395    18.386682    27.449192 
   53400    240.50853   -303.86678    263624.46    -25729.79    1946.4113   -27676.201   -846.02774    416.73308    78.635046    18.387783    27.449047 
   53600    238.28861   -290.33874    263624.46   -25822.649    1928.4458   -27751.095    -778.1282    418.21762    78.634596    18.388538    27.429093 
   53800    244.39044   -156.07601    263624.46   -25772.308    1977.8272   -27750.135    -202.5821    418.82658     78.63356    18.389595    27.433515 
   54000    236.59964   -265.99186    263624.46    -25833.12    1914.7771   -27747.897   -695.35967    420.06314    78.633208    18.389609    27.433216 
   54200     247.3744   -295.26108    263624.46   -25713.467    2001.9761   -27715.443   -826.67732    422.69297    78.632661    18.388761     27.42952 
   54400    242.10546   -293.15488    263624.46   -25716.365    1959.3351     -27675.7   -754.83931    424.01379    78.633484    18.390696    27.433279 
   54600    242.81323   -160.04669    263624.46   -25719.993     1965.063   -27685.056   -223.14829    424.12033    78.634164    18.391043    27.435046 
   54800    242.42234   -373.81222    263624.46   -25669.902    1961.8996   -27631.801   -1172.5393    426.72792    78.634178    18.392129    27.448649 
   55000    243.33807   -300.45306    263624.46   -25677.118    1969.3105   -27646.428   -850.89705    427.52595    78.633334    18.392725    27.462637 
   55200    240.82821   -390.08819    263624.46   -25796.807    1948.9985   -27745.805   -1255.1495    429.10112    78.634165    18.394815      27.4614 
   55400    241.67724   -225.63217    263624.46   -25736.296    1955.8696   -27692.166   -478.71203    429.45958    78.633692    18.392944    27.467529 
   55600    239.21016   -234.85942    263624.46   -25693.628    1935.9037   -27629.531   -547.82131    429.68811     78.63299    18.392487    27.487523 
   55800    245.42989   -176.46258    263624.46   -25666.663    1986.2394   -27652.902   -288.85213    431.32778     78.63246    18.392842    27.471674 
   56000    240.69733   -229.99629    263624.46    -25658.59    1947.9393   -27606.529   -545.78303    433.30948     78.63209    18.392579    27.477699 
   56200    239.97695   -171.72583    263624.46   -25647.975    1942.1093   -27590.085   -246.85461    433.85268    78.631995    18.392266    27.476477 
   56400     235.4741   -145.90406    263624.46   -25722.978    1905.6682   -27628.647   -125.31772    435.22818    78.633645    18.390703    27.463821 
   56600     236.1339   -368.99149    263624.46    -25788.38    1911.0078   -27699.388   -1172.8826    435.13498    78.634183     18.39179    27.449744 
   56800    240.47092   -196.85531    263624.46   -25695.161    1946.1069   -27641.268   -355.24619      435.883    78.633292    18.389454    27.458423 
   57000    238.96303   -400.29849    263624.46   -25785.748    1933.9037   -27719.651   -1290.9225    437.21206    78.633848    18.390229    27.477725 
   57200    238.86289   -181.68341    263624.46    -25659.42    1933.0933   -27592.513   -307.02483    438.88969     78.63597    18.391266    27.473651 
   57400    238.50314   -286.09984    263624.46   -25723.706    1930.1819   -27653.888   -787.88073    439.84345    78.635151    18.392477    27.458328 
   57600    234.14896   -261.91995    263624.46   -25777.611     1894.944   -27672.555   -668.03115    440.94965    78.635742    18.393174    27.452989 
   57800    240.55868   -203.33799    263624.46   -25697.906    1946.8171   -27644.723   -403.08185     441.5256    78.636446    18.393231    27.448981 
   58000    240.56139   -350.36258    263624.46   -25695.696    1946.8391   -27642.535   -1053.7058    443.54502    78.637931    18.392051    27.455736 
   58200    242.07374   -339.08251    263624.46   -25675.593    1959.0784   -27634.671    -1035.021    443.90525    78.636635     18.39282    27.475253 
   58400    241.92181   -237.60266    263624.46   -25689.793    1957.8489   -27647.641    -560.1329    446.20089     78.63389    18.390763    27.462047 
   58600    232.56389   -217.15443    263624.46   -25707.492    1882.1161   -27589.609   -454.80662    448.01604    78.631795    18.391993    27.460635 
   58800    238.17461   -319.67178    263624.46   -25721.408    1927.5231   -27648.931   -938.24526    447.46971    78.631105    18.393809    27.466121 
   59000    242.59954   -92.621975    263624.46   -25623.334    1963.3337   -27586.668    138.27595    450.34201    78.630648    18.392614    27.476032 
   59200    243.74575   -393.29166    263624.46   -25655.473    1972.6098   -27628.083   -1250.0915    450.96713    78.629663    18.391901    27.464544 
   59400    235.50732   -337.52623    263624.46   -25670.791     1905.937   -27576.728    -975.9047    451.93506    78.629335    18.389345     27.46591 
   59600    242.54018   -285.88478    263624.46   -25686.875    1962.8533   -27649.728   -807.20497    452.12633    78.628868    18.390072    27.453027 
   59800    235.03883   -409.02988    263624.46   -25815.803    1902.1456   -27717.949   -1281.6059    451.99936    78.628031      18.3911    27.447633 
   60000    237.58008   -304.22488    263624.46    -25757.93    1922.7117   -27680.641   -851.64801    453.85747    78.628474    18.391525    27.458114 
   60200     238.7999   -266.67633    263624.46   -25759.548    1932.5835   -27692.131   -678.26759    454.74041    78.628733    18.391359     27.45597 
   60400    243.73232   -192.11958    263624.46   -25674.787    1972.5011   -27647.288   -320.13931      455.901    78.629565    18.393723    27.455351 
   60600    239.16657   -301.58021    263624.46   -25725.746    1935.5509   -27661.297   -849.79519    457.54264    78.633394    18.392809    27.441275 
   60800    251.35745   -198.54603    263624.46    -25638.08    2034.2106   -27672.291    -393.7305     459.6857    78.633606    18.391147    27.444057 
   61000    239.11772   -258.54338    263624.46   -25725.443    1935.1556   -27660.599   -631.86586    463.12383    78.634773    18.391776    27.463022 
   61200    235.12087   -225.72792    263624.46   -25691.331    1902.8095   -27594.141   -475.64662    465.86962    78.635151    18.391544    27.476672 
   61400    235.75592   -219.12003    263624.46   -25684.493    1907.9489   -27592.442   -442.66544    469.45192    78.635816     18.39155    27.460372 
   61600    238.45403   -185.73395    263624.46   -25716.946    1929.7844    -27646.73   -333.18272    468.09001    78.635089    18.391988    27.457611 
   61800    240.50184   -430.62212    263624.46   -25726.034    1946.3572   -27672.391   -1414.6498    473.90277    78.635309    18.391382    27.455312 
   62000    242.98397   -286.05911    263624.46   -25703.902    1966.4448   -27670.347   -780.16796    475.68798    78.634582    18.390767    27.455422 
   62200    242.19275   -340.11585    263624.46   -25687.774    1960.0415   -27647.815    -1019.597    476.18824    78.633245    18.389942    27.465647 
   62400    238.07936   -400.02127    263624.46   -25712.012    1926.7522   -27638.765   -1276.6229    474.91153    78.632379    18.388514    27.458338 
   62600    239.53518   -242.83939    263624.46   -25725.773    1938.5341   -27664.307   -575.75405    476.46318    78.629972    18.389941    27.445025 
   62800    239.29095   -281.69055    263624.46   -25738.065    1936.5576   -27674.622    -758.0835    477.56713    78.629944    18.388118    27.441187 
   63000    233.82131   -184.98794    263624.46    -25747.58    1892.2923   -27639.873    -312.6762    477.56141    78.630582    18.388417    27.436551 
   63200    244.86087    -385.3181    263624.46   -25658.257    1981.6344   -27639.892   -1188.2595    481.67587    78.629236    18.389866    27.455104 
   63400    236.13346   -135.27115    263624.46   -25767.279    1911.0043   -27678.283    -99.37638    480.53502    78.631429    18.389591     27.43419 
   63600    234.86287   -386.38304    263624.46   -25769.229    1900.7216   -27669.951   -1233.6357    482.84432      78.6323    18.390548     27.43048 
   63800    239.65448   -271.52032    263624.46   -25865.238    1939.4995   -27804.737   -734.77748    483.55966    78.631106    18.390953    27.429891 
   64000     242.1477   -195.25063    263624.46   -25706.131    1959.6769   -27665.808   -326.42356    487.12954    78.631309     18.38971    27.435949 
   64200    239.01881   -283.47751    263624.46   -25695.681    1934.3552   -27630.036   -745.08546    489.76162     78.63251    18.389098    27.454645 
   64400    238.39366   -204.71639    263624.46   -25754.883    1929.2959   -27684.179   -422.52917    487.90294    78.632126    18.390239    27.456076 
   64600    234.98141   -114.68602    263624.46   -25809.927    1901.6809   -27711.608   -11.511035    488.23507    78.631486    18.390723    27.452604 
   64800    239.83566   -238.89642    263624.46   -25744.692    1940.9658   -27685.658   -571.91568    489.65107    78.631338    18.388362    27.469625 
   65000    244.60991   -267.51452    263624.46   -25656.255    1979.6033   -27635.858   -660.45732    488.70347    78.630132    18.388234    27.453079 
   65200    236.37928    -218.8075    263624.46   -25730.991    1912.9937   -27643.984   -456.20055    488.42232    78.629914    18.387254    27.455552 
   65400    242.49344   -296.62612    263624.46   -25687.149     1962.475   -27649.624   -805.98919    489.65225    78.631503    18.387279    27.457349 
   65600    239.79271   -413.51705    263624.46   -25641.924    1940.6182   -27582.542   -1325.8936    489.50662    78.631786    18.386314    27.446418 
   65800    239.67074   -114.72215    263624.46   -25722.745    1939.6312   -27662.376   -31.010699     489.0728    78.631307    18.385049    27.441599 
   66000    236.69336   -375.50985    263624.46   -25690.824    1915.5356    -27606.36   -1188.0579    492.16827     78.62985    18.385758    27.434619 
   66200    240.42182   -264.64711    263624.46   -25761.125    1945.7096   -27706.835   -699.80711    494.02301    78.628562    18.385799    27.410567 
   66400    236.16051   -304.37596    263624.46   -25772.132    1911.2232   -27683.356   -833.52479    493.34666    78.626851    18.385769    27.385988 
   66600    236.08622   -218.90044    263624.46   -25796.056     1910.622   -27706.678   -480.72271    493.74587    78.624959    18.385871    27.385157 
   66800    232.30295    -288.8841    263624.46   -25829.137    1880.0044   -27709.141   -789.30094    495.59884    78.625921    18.386768    27.399056 
   67000    236.53093   -236.11035    263624.46   -25867.295     1914.221   -27781.516   -555.56996     497.1454    78.624946    18.386413    27.414042 
   67200    228.21382   -266.75414    263624.46   -25769.443    1846.9114   -27616.354    -667.7506    499.68126    78.625301    18.387396    27.420394 
   67400    241.47931   -323.43862    263624.46   -25710.142    1954.2677   -27664.409   -966.98584    500.16045    78.623309    18.388384    27.415013 
   67600    245.92598   -166.49512    263624.46   -25569.428    1990.2542   -27559.682   -200.01347    501.50396    78.623506    18.390183    27.403676 
   67800    234.42622   -270.09788    263624.46   -25655.314    1897.1878   -27552.502    -674.2341    501.64478    78.621567    18.391307    27.400606 
   68000    238.57303   -308.98266    263624.46   -25678.589    1930.7475   -27609.337    -860.6437    502.22985    78.621985    18.392844    27.406186 
   68200    238.34858   -299.97379    263624.46   -25704.189     1928.931    -27633.12   -818.32124    504.57896    78.624249    18.394532    27.399166 
   68400     240.9689   -241.08873    263624.46   -25622.448     1950.137   -27572.585   -555.11462    506.32468    78.624231    18.396485    27.400987 
   68600    242.76473   -232.84702    263624.46   -25688.614    1964.6705   -27653.284   -504.36762    507.61857    78.622457    18.397938     27.41987 
   68800    245.35602   -139.64288    263624.46   -25695.893    1985.6416   -27681.534   -97.930928    510.99561    78.622436    18.398539    27.428521 
   69000    241.31053   -310.86281    263624.46   -25714.938    1952.9018    -27667.84   -852.16713    513.76559    78.621659    18.398144    27.415927 
   69200    240.14861   -100.43398    263624.46   -25726.502    1943.4985       -27670    63.151173    515.30084    78.621054    18.395489    27.401499 
   69400    241.06402   -221.53838    263624.46   -25811.388    1950.9068   -27762.294   -464.86897     516.4157    78.620812    18.397368    27.391223 
   69600    246.88121   -276.53559    263624.46   -25589.718    1997.9847   -27587.703   -740.00022     518.6244    78.618737    18.396425    27.376137 
   69800    244.59665   -233.85438    263624.46   -25731.329    1979.4961   -27710.825   -525.00296    519.10165    78.616339    18.398394    27.366831 
   70000    241.26554   -376.37267    263624.46   -25721.749    1952.5377   -27674.287   -1156.2015    520.78328    78.615482    18.399457    27.394275 
   70200    241.14211   -137.99896    263624.46    -25721.79    1951.5388   -27673.329   -93.090271    524.34561    78.614788    18.399571    27.397854 
   70400    245.18791   -479.61977    263624.46   -25680.698    1984.2811   -27664.979   -1626.3593    527.77972    78.614821    18.398823    27.401511 
   70600    238.36522   -129.04493    263624.46   -25726.004    1929.0658    -27655.07   -63.968797    527.96621     78.61709    18.401015      27.4033 
   70800     242.9887   -169.42072    263624.46   -25738.962    1966.4831   -27705.445   -258.88978    530.34657    78.617432    18.402376    27.404322 
   71000    242.46306   -277.76918    263624.46     -25746.5    1962.2291   -27708.729   -696.73591    532.87685    78.618752    18.402901    27.398629 
   71200    236.07496   -283.36873    263624.46    -25705.98    1910.5309   -27616.511   -767.12886    533.25768      78.6189    18.403001    27.390881 
   71400    238.41917   -266.92065    263624.46   -25724.356    1929.5023   -27653.858   -669.52974    534.51571    78.619501    18.402702    27.387008 
   71600    236.42693   -136.60235    263624.46   -25700.129    1913.3793   -27613.508   -84.456181    535.72478    78.620214    18.402258     27.39319 
   71800    234.57947    -447.0272    263624.46   -25780.224     1898.428   -27678.652   -1537.4088     541.0816     78.61998    18.403015    27.388442 
   72000    239.85235   -219.03759    263624.46   -25714.988    1941.1009   -27656.089   -485.39097    541.86398    78.619487    18.404864    27.403557 
   72200    246.05764   -243.34278    263624.46   -25548.919    1991.3197   -27540.239   -579.89495    545.65929     78.62018     18.40427    27.420027 
   72400    234.08086   -219.48797    263624.46   -25681.676    1894.3928   -27576.069   -487.62027    546.85596    78.622055    18.405468    27.420029 
   72600    246.29678   -136.45558    263624.46   -25586.865     1993.255    -27580.12   -106.77104    546.87072    78.623829    18.404459    27.412478 
   72800    240.21725      -322.26    263624.46   -25673.591     1944.054   -27617.645   -952.51598    550.44453    78.625472    18.403135    27.406238 
   73000    234.77821   -353.27695    263624.46   -25693.594    1900.0364    -27593.63   -1088.9061    553.04029    78.625199    18.404111    27.405767 
   73200    246.52608   -138.90697    263624.46   -25612.889    1995.1108       -27608   -148.48782    554.32947    78.624445    18.405314    27.399783 
   73400    244.10741   -197.16976    263624.46   -25631.066    1975.5367   -27606.603   -350.71836     558.4751    78.623405    18.406474    27.398959 
   73600    242.47778   -163.72129    263624.46   -25610.344    1962.3482   -27572.693    -197.3572    559.34565    78.622676    18.407402    27.408505 
   73800    234.89936   -167.27341    263624.46   -25759.586    1901.0169   -27660.603   -234.44106    560.99908    78.622607    18.405213    27.412144 
   74000    240.74018     -290.957    263624.46   -25787.435     1948.286   -27735.721   -802.68827    564.31693    78.622062    18.404527    27.397413 
   74200    240.89389   -281.80165    263624.46   -25737.039      1949.53   -27686.569   -741.91142    565.72995    78.623119    18.405228    27.411697 
   74400     239.5883   -278.10462    263624.46   -25675.404     1938.964   -27614.368   -782.05609    567.26945    78.621994     18.40676    27.417316 
   74600    241.15639   -283.95669    263624.46   -25754.499    1951.6544   -27706.154   -776.36114    568.23547    78.621811    18.407861    27.436108 
   74800    238.50013   -254.29939    263624.46   -25720.861    1930.1575   -27651.019   -615.73534    566.40659    78.620823    18.407609    27.423573 
   75000    236.78993   -262.22505    263624.46   -25715.318     1916.317   -27631.635   -677.69021     567.2169    78.621701     18.40765    27.433657 
   75200    245.34163   -155.21421    263624.46   -25635.982    1985.5251   -27621.508   -193.66782    568.99328    78.622133     18.40873    27.454352 
   75400    239.29373   -261.71913    263624.46   -25731.183    1936.5801   -27667.763    -674.4659    568.52362    78.622169    18.408678    27.457595 
   75600    235.54963     -182.052    263624.46    -25667.38    1906.2794   -27573.659   -267.01694    568.58098    78.624028    18.409517    27.475584 
   75800    248.21739   -347.11884    263624.46   -25593.839    2008.7984   -27602.637   -1000.0968    569.93298     78.62497    18.408243    27.481416 
   76000    237.85455   -212.11939    263624.46   -25616.988    1924.9329   -27541.921   -466.77256    569.43293    78.625626    18.408379      27.4913 
   76200    239.67178   -336.49547    263624.46   -25710.918    1939.6396   -27650.557   -1006.0695    571.62714    78.626743    18.407662    27.482728 
   76400     243.6596    -339.6202    263624.46   -25712.655    1971.9126   -27684.568   -1033.2244    574.40945    78.625421    18.406238    27.482612 
   76600    242.53943   -236.41873    263624.46   -25691.494    1962.8472   -27654.341   -573.72455    577.67034    78.625808    18.405257    27.483618 
   76800    236.38423   -298.60855    263624.46   -25753.624    1913.0338   -27666.658    -834.8981    581.15896    78.624155    18.403034    27.477491 
   77000    244.57168   -272.90315    263624.46   -25687.328     1979.294   -27666.622   -718.61872    580.69417    78.624276    18.403239    27.478707 
   77200     240.6233   -120.54506    263624.46   -25723.442    1947.3401   -27670.782   -60.598676      582.292    78.623889    18.407109    27.469067 
   77400    241.35158   -163.51734    263624.46   -25707.761    1953.2341   -27660.995   -217.14406    584.41819     78.62418    18.408913    27.473368 
   77600    231.92241   -255.52693    263624.46   -25805.325    1876.9247    -27682.25   -646.39434    590.27384    78.622768    18.408067    27.479704 
   77800    236.02159    -277.9683    263624.46   -25775.824    1910.0989   -27685.923   -755.32487    591.67123    78.621687    18.407479    27.467309 
   78000    236.66453   -272.93718    263624.46   -25753.575    1915.3022   -27668.877   -680.51497    591.49023    78.621618    18.407427    27.477548 
   78200    237.12793   -48.877934    263624.46    -25778.27    1919.0525   -27697.322    287.21832    593.03867    78.621462    18.408458    27.464677 
   78400    241.54111   -194.95831    263624.46   -25749.817    1954.7679   -27704.585   -403.98128    591.28046    78.621077    18.409113    27.478715 
   78600    241.41766   -309.12854    263624.46   -25683.946    1953.7688   -27637.715   -856.54647    592.57422    78.620682    18.409777    27.478527 
   78800    249.85534   -118.73464    263624.46   -25671.964    2022.0541   -27694.018   -45.693107     590.9024    78.619321    18.411999    27.484843 
   79000    236.87592   -138.04473    263624.46   -25656.365     1917.013   -27573.377   -137.31561    594.09307    78.621033    18.414634    27.463147 
   79200    240.26568   -225.14863    263624.46   -25664.784    1944.4459    -27609.23   -513.33758     596.8381    78.620901    18.414906    27.456527 
   79400    247.22076   -118.68325    263624.46   -25674.183    2000.7328   -27674.916    -15.27982    599.73897    78.621908     18.41764    27.443193 
   79600    236.87106    -427.3647    263624.46    -25811.87    1916.9736   -27728.844   -1413.2195    601.10622    78.624124    18.419277    27.446995 
   79800     238.8829   -289.19596    263624.46   -25783.752    1933.2552   -27717.007   -790.37179    602.03317    78.624069    18.420353    27.450445 
   80000    244.56459   -241.93402    263624.46   -25818.434    1979.2366    -27797.67   -564.89045    602.97055    78.623176    18.421511    27.436551 
   80200    240.75699   -125.18726    263624.46   -25851.224    1948.4221   -27799.646   -54.928558    604.38764    78.624187    18.424299    27.402455 
   80400    236.11102   -144.71015    263624.46   -25845.924    1910.8227   -27756.747   -134.88125    603.36347    78.627472     18.42539    27.394889 
   80600    237.70164   -294.28471    263624.46   -25757.872    1923.6954   -27681.567   -829.82299    603.51205    78.628765    18.424903    27.386416 
   80800    237.02938   -429.18829    263624.46   -25768.683    1918.2549   -27686.938    -1414.082    605.75643    78.630474    18.423181    27.398133 
   81000    242.37598   -169.54472    263624.46   -25784.124    1961.5244   -27745.648   -265.19258    605.15979    78.629897    18.422153    27.407007 
   81200    244.29516   -223.28742    263624.46   -25754.062    1977.0561   -27731.119   -475.98198    606.98433    78.629198    18.422416    27.420477 
   81400    237.41065   -456.96278    263624.46   -25754.972    1921.3405   -27676.312   -1548.5498    608.84584    78.630524    18.423383    27.429692 
   81600    234.04817   -355.34404    263624.46   -25795.896    1894.1282   -27690.024   -1072.1454    607.81917     78.63084    18.422944    27.438611 
   81800     235.5211   -332.00827    263624.46   -25862.109    1906.0485   -27768.158   -974.28109      608.575    78.629416    18.422878     27.44173 
   82000    233.50402   -81.839353    263624.46   -25752.903    1889.7245   -27642.628    95.819354    607.88807    78.629528    18.422974     27.43126 
   82200    241.35531   -351.91656    263624.46   -25660.096    1953.2642    -27613.36   -1036.8697    610.03565    78.630084    18.426471    27.418335 
   82400     242.4933   -328.58412    263624.46   -25701.052    1962.4738   -27663.526   -980.68349    610.13239    78.630611    18.426218    27.407781 
   82600    242.50477     -129.367    263624.46   -25673.429    1962.5667   -27635.996   -41.165007    610.51434    78.632039    18.426617    27.394587 
   82800    235.82452     -290.739    263624.46   -25748.032    1908.5041   -27656.536   -788.56281    613.72144    78.630776     18.42478      27.3879 
   83000    240.17778   -280.77744    263624.46   -25657.951    1943.7346   -27601.686   -726.83292    615.51782    78.630195    18.423073    27.382416 
   83200    238.69632   -398.19128    263624.46   -25671.399    1931.7453   -27603.145   -1269.8044    614.72587    78.631167     18.42232      27.3776 
   83400    239.09989   -322.24585    263624.46   -25698.453    1935.0113   -27633.465   -880.13078    616.62121    78.632791     18.42401    27.378381 
   83600    238.05716   -162.33244    263624.46   -25780.053    1926.5726   -27706.625   -221.23154    617.83893    78.633939    18.422716    27.354185 
   83800    237.47376   -206.10545    263624.46   -25736.601    1921.8512   -27658.452   -409.04713    620.06444    78.634757    18.422888    27.343961 
   84000    240.45938   -280.21478    263624.46   -25703.729    1946.0135   -27649.742   -741.18198    622.39868    78.633923    18.422461    27.349625 
   84200       245.21   -263.13462    263624.46   -25688.984    1984.4598   -27673.444   -663.73062    620.50099     78.63434    18.424698    27.338905 
   84400    240.06764   -306.16056    263624.46   -25726.017    1942.8432    -27668.86   -897.91386    621.38929    78.634185    18.426829    27.337863 
   84600     242.8787    -184.6787    263624.46   -25645.824    1965.5928   -27611.417   -293.41429    620.93126     78.63399    18.428833    27.345068 
   84800    241.58718   -414.06601    263624.46   -25708.065    1955.1408   -27663.206   -1361.0955    623.86651    78.633208    18.429503    27.335613 
   85000    241.82867   -246.33924    263624.46   -25714.009     1957.095   -27671.104   -625.21403    624.13502    78.633969    18.428453    27.322083 
   85200    239.28396   -237.57844    263624.46   -25757.342     1936.501   -27693.843   -525.30863    627.22737    78.634557    18.429359    27.332819 
   85400    231.54794    -321.1113    263624.46   -25806.758    1873.8942   -27680.653   -966.07564    632.50691    78.632205    18.430592    27.349532 
   85600     239.2736   -245.75684    263624.46   -25798.242    1936.4172   -27734.659   -606.31625    633.18545    78.634187    18.426919    27.350019 
   85800    242.44144   -174.83548    263624.46   -25762.657    1962.0542   -27724.711   -284.35735    637.80114    78.634001    18.426513    27.355377 
   86000    236.76441    -289.3411    263624.46   -25706.904    1916.1106   -27623.015   -840.79732    641.52966    78.632156    18.424681    27.355781 
   86200    239.32066   -414.11953    263624.46     -25672.2     1936.798   -27608.998   -1321.2784    644.33638    78.628933    18.426168    27.337173 
   86400    235.39554   -311.47734    263624.46   -25758.105    1905.0324   -27663.137   -895.28371    646.52234    78.628188    18.427381    27.346708 
   86600    240.85575   -252.46776    263624.46    -25672.86    1949.2213   -27622.081   -614.53398    647.92556    78.628718    18.427327    27.333859 
   86800    239.73222   -341.91989    263624.46   -25758.615    1940.1287   -27698.744    -1003.974     647.6297      78.6278    18.428638     27.33542 
   87000    244.17534   -305.09887    263624.46   -25676.712    1976.0865   -27652.798   -849.06613    649.44862    78.628415    18.429248    27.337886 
   87200    239.77228    -117.7222    263624.46   -25715.128    1940.4529   -27655.581    -9.919833    649.57587    78.628086    18.429495    27.358264 
   87400    238.37522    -374.5281    263624.46   -25768.401    1929.1466   -27697.547    -1198.105    652.31662    78.628874    18.430504    27.354734 
   87600    237.90706   -292.25383    263624.46   -25722.739    1925.3579   -27648.097   -759.68417    651.82167    78.629012    18.431213    27.359392 
   87800    239.17295   -341.28805    263624.46   -25715.556    1935.6026   -27651.159   -1013.1361    651.58719    78.629924    18.431782     27.35574 
   88000    240.21309    -260.5871    263624.46   -25707.175    1944.0204   -27651.195   -667.27812    652.80442    78.631905    18.429899    27.361338 
   88200    237.28936   -293.03322    263624.46   -25777.176    1920.3589   -27697.535   -812.31656     655.7316     78.63318    18.426239    27.373809 
   88400    238.12605   -284.13826    263624.46   -25717.546    1927.1301   -27644.677    -739.2986    657.41013    78.632774    18.427386    27.376267 
   88600    238.27537   -150.47879    263624.46   -25748.346    1928.3386   -27676.685   -139.11384    658.11839    78.632579    18.427827    27.380549 
   88800    235.93086   -242.43166    263624.46   -25753.475    1909.3647    -27662.84   -604.37973    659.16717    78.633266    18.430286    27.379207 
   89000    241.90042   -351.57163    263624.46   -25725.005    1957.6758    -27682.68   -1084.6539    661.13982    78.634125    18.429063    27.373285 
   89200    244.28603   -324.54471    263624.46   -25720.358    1976.9823    -27697.34    -976.2135    662.73925    78.633867    18.427597    27.368785 
   89400    244.03596   -239.53488    263624.46   -25721.211    1974.9585    -27696.17   -550.68747    665.36156    78.632321    18.426218     27.38271 
   89600    233.70752   -361.78237    263624.46   -25834.412    1891.3714   -27725.783   -1122.0764    665.04209     78.63114    18.426096    27.407341 
   89800    238.58846   -256.51482    263624.46   -25692.583    1930.8724   -27623.455   -668.84759    662.64362    78.631563    18.424084    27.436882 
   90000    236.79033   -311.46921    263624.46   -25673.751    1916.3203   -27590.072   -904.46432    664.98737    78.631023    18.422884    27.442141 
   90200    240.83404   -284.81352    263624.46   -25725.641    1949.0456   -27674.687   -763.81254    667.26554    78.630619    18.423024     27.42728 
   90400      239.766   -161.34686    263624.46   -25730.132    1940.4021   -27670.534   -199.30317    668.36687    78.631554    18.424722    27.389047 
   90600    244.97669   -285.96937    263624.46    -25696.06    1982.5717   -27678.632   -776.45993    669.22873    78.631512    18.424626    27.386139 
   90800    238.98191   -195.43772    263624.46   -25714.304    1934.0565   -27648.361   -359.54001    668.93299    78.631398    18.423356    27.386261 
   91000    236.82674   -372.73776    263624.46   -25712.547     1916.615   -27629.162   -1170.1109    668.78728    78.629239    18.423715    27.374986 
   91200    234.59419   -286.02757    263624.46   -25812.374    1898.5471   -27710.921   -791.79032    668.36444    78.627616    18.424016    27.369467 
   91400    241.54037   -233.36756    263624.46   -25755.743    1954.7619   -27710.505   -575.98998    671.61156    78.625868    18.424423    27.367574 
   91600    244.76777   -233.75858    263624.46   -25649.964    1980.8809   -27630.845   -536.87224    672.91476    78.627102    18.421996    27.364838 
   91800    243.30968   -395.26697    263624.46    -25648.66    1969.0807   -27617.741   -1236.8637    677.41725    78.627245    18.418799    27.358338 
   92000    242.22202   -309.32226    263624.46   -25706.575    1960.2784   -27666.853   -854.25597    681.97027    78.626728    18.416672    27.350241 
   92200    234.52536   -300.48061    263624.46   -25754.768    1897.9901   -27652.758   -818.76878    684.32068    78.626777    18.416881    27.353339 
   92400    237.74508   -393.19526    263624.46   -25702.559     1924.047   -27626.606   -1283.9171    685.18498    78.626397     18.41744    27.354412 
   92600    240.63385   -300.97317    263624.46   -25641.881    1947.4255   -27589.307   -803.78391    684.59185    78.628491    18.418834    27.357694 
   92800    240.73289   -346.83477    263624.46   -25724.843    1948.2271    -27673.07   -985.43864     687.8211    78.629697    18.418654    27.369036 
   93000     239.3153   -338.87729    263624.46   -25726.124    1936.7547   -27662.878   -1011.3466    688.83472    78.629739    18.417608     27.35109 
   93200      235.662   -300.75662    263624.46   -25719.852    1907.1889   -27627.041   -836.49966    686.81846    78.630586    18.416745    27.336226 
   93400    235.61121   -319.91822    263624.46   -25778.963    1906.7778   -27685.741   -903.86955    689.56219    78.631201    18.416296    27.336647 
   93600     235.4681   -264.63356    263624.46   -25743.343    1905.6196   -27648.962   -655.88675    690.48104    78.632362    18.416979    27.358781 
   93800    243.07507   -224.73294    263624.46   -25761.156     1967.182   -27728.338   -474.10815    693.30641    78.632369    18.415964    27.344734 
   94000    233.90026   -242.12662    263624.46    -25783.25    1892.9313   -27676.181   -577.59162    695.63194    78.633235    18.414623    27.331099 
   94200    246.66916   -296.53189    263624.46   -25681.606    1996.2686   -27677.875   -792.92445    696.40288    78.632496    18.416488    27.327305 
   94400    239.67774   -325.96281    263624.46    -25738.37    1939.6878   -27678.058    -949.9942    698.47255    78.633067    18.416035    27.331731 
   94600     238.0631   -349.30075    263624.46   -25743.002    1926.6207   -27669.622   -1079.8488    697.72318     78.63308    18.417289    27.333581 
   94800    239.71282   -206.90403    263624.46   -25758.374    1939.9717   -27698.345   -429.76596    694.36595    78.632358    18.419338    27.322784 
   95000    239.81723   -240.78638    263624.46   -25771.832    1940.8167   -27712.648   -548.14717    694.89007    78.632852    18.422421    27.344026 
   95200     238.9423      -301.01    263624.46   -25793.595    1933.7359   -27727.331   -853.36467    693.66077    78.632664    18.422363    27.363673 
   95400    231.61989   -326.27981    263624.46   -25771.269    1874.4765   -27645.746    -951.0754    692.06064    78.632308    18.421779    27.355179 
   95600    242.80834    -230.7065    263624.46   -25754.481    1965.0235   -27719.504   -517.59782    691.02897    78.630676    18.420986    27.360702 
   95800     243.1046   -225.60597    263624.46   -25739.696     1967.421   -27707.117   -514.01814    691.42075    78.627269    18.422724    27.352851 
   96000    240.63698   -387.50964    263624.46   -25733.145    1947.4509   -27680.596   -1230.2864     692.1124    78.628213    18.422332     27.34931 
   96200    242.07681   -361.93113    263624.46   -25695.658    1959.1033   -27654.762   -1137.9621    689.40034    78.628259    18.422444    27.356378 
   96400    235.58556   -431.01024    263624.46   -25717.761    1906.5702   -27624.331   -1413.8889    688.87041    78.628414    18.424366    27.378414 
   96600    234.31921   -344.55975    263624.46   -25737.724    1896.3218   -27634.046   -1056.9287    691.14076     78.62739    18.425018     27.37211 
   96800    236.59418   -300.98224    263624.46   -25648.155    1914.7329   -27562.888   -816.35232    693.43143    78.627525    18.423768     27.39524 
   97000    241.64514   -203.80172    263624.46    -25719.58    1955.6098    -27675.19   -418.11958    696.24883    78.628177    18.424314    27.403433 
   97200    241.05436   -228.07921    263624.46    -25729.64    1950.8287   -27680.468    -509.5121    698.54241    78.629615    18.426829    27.397645 
   97400    239.19354   -190.71699    263624.46   -25726.015    1935.7693   -27661.784   -308.37603    700.16761    78.628486    18.427195    27.395394 
   97600    239.95784   -386.97217    263624.46   -25674.884    1941.9546   -27616.839   -1236.9338    704.70699    78.627403    18.426217    27.401492 
   97800     241.1953   -134.56214    263624.46   -25711.793    1951.9693   -27663.762   -98.715888    703.08394    78.624863    18.427978    27.431181 
   98000    241.27997   -276.88003    263624.46   -25735.138    1952.6545   -27687.792   -717.71168    707.66173    78.623291    18.428829    27.449917 
   98200     235.7804   -378.39113    263624.46   -25778.743    1908.1471    -27686.89   -1199.1613    708.93732    78.622218    18.427069    27.457504 
   98400     232.4741   -233.04306    263624.46   -25772.973    1881.3894   -27654.362   -529.18819    707.41392    78.622135    18.425609    27.431438 
   98600    235.18163   -362.51745    263624.46   -25765.894    1903.3013   -27669.195   -1140.1743    707.51454    78.622111    18.423538    27.443501 
   98800    242.12738   -281.71589    263624.46   -25678.111    1959.5125   -27637.624   -752.25366    709.37799     78.62351    18.424344    27.419649 
   99000    240.47192   -354.50023    263624.46   -25749.394    1946.1151   -27695.509    -1070.133    710.26532    78.624044    18.424997     27.41613 
   99200    236.70044   -303.21481    263624.46   -25745.622    1915.5928   -27661.215   -840.77148    708.66196    78.623851    18.422666    27.421443 
   99400      233.415   -275.39265    263624.46   -25752.029    1889.0041   -27641.033   -715.76583    709.52958    78.625651    18.420899    27.429853 
   99600    245.58879   -292.50585    263624.46   -25698.424    1987.5254   -27685.949    -828.2933    707.40053    78.624227    18.420687    27.419376 
   99800     242.6099   -278.81596    263624.46   -25729.858    1963.4175   -27693.275   -715.06823    709.17469    78.624119    18.420736    27.417184 
  100000    249.73346   -260.63574    263624.46   -25736.614    2021.0677   -27757.681   -629.07669    711.00193    78.622403    18.422784    27.425876 
  100200    243.48809   -228.58803    263624.46   -25845.599    1970.5246   -27816.124   -526.59757    714.26779    78.621413    18.421639    27.426086 
  100400    237.03729   -438.44103    263624.46   -25758.783    1918.3189   -27677.102   -1442.8501    716.83941    78.620239    18.418169    27.413283 
  100600    230.64919   -271.36888    263624.46   -25789.664    1866.6207   -27656.284   -676.90461    717.29353    78.620541    18.418721    27.403217 
  100800    237.40819   -242.63585    263624.46   -25842.071    1921.3205   -27763.392   -545.47329    717.92092    78.621513    18.418856    27.402685 
[...]
 5176000    225.61818   -359.55312    263624.46   -28504.835    1825.9052    -30330.74   -808.91351    6619.6043    78.861317    20.184053    26.936459 
 5176200    223.46127    -384.3094    263624.46   -28453.715    1808.4495   -30262.165   -927.63368    6623.1967    78.860314    20.182564    26.941207 
 5176400    229.17511   -426.30772    263624.46    -28472.18    1854.6911   -30326.871   -1093.1315    6632.7081    78.861086    20.181916      26.9344 
 5176600    226.47972   -368.30773    263624.46   -28404.349    1832.8775   -30237.227   -807.53421    6621.7666    78.861936    20.183182    26.932895 
 5176800     222.3381   -416.54301    263624.46    -28441.39    1799.3598    -30240.75   -1017.8605    6617.9058    78.861546    20.184275    26.935501 
 5177000    230.49502   -377.96442    263624.46   -28442.875     1865.373   -30308.248   -857.69438       6627.9    78.862503    20.183884    26.932952 
 5177200    229.53688   -418.42245    263624.46   -28405.831    1857.6189    -30263.45   -1075.6346    6624.9387    78.862915     20.18426    26.931039 
 5177400    227.35013   -455.28815    263624.46   -28375.602    1839.9217   -30215.524   -1277.9374     6621.315    78.861554     20.18437    26.931539 
 5177600    227.47664   -373.82649    263624.46   -28365.562    1840.9455   -30206.508   -919.53746    6625.5855    78.860618    20.185925    26.931791 
 5177800    230.54921   -423.68409    263624.46   -28440.558    1865.8115    -30306.37   -1114.0352    6625.2954    78.861731    20.185142    26.932055 
 5178000    221.87373   -354.47101    263624.46     -28468.6    1795.6017   -30264.202   -746.81647    6617.1074    78.862078    20.185042    26.928639 
 5178200    224.47694   -489.54936    263624.46   -28440.565    1816.6693   -30257.235   -1370.9556    6622.9114    78.860991    20.183651    26.930624 
 5178400     231.4615   -352.48581    263624.46   -28425.157    1873.1946   -30298.351   -760.79012    6626.7458    78.862348    20.183075    26.931408 
 5178600    229.20331   -292.07429    263624.46   -28440.996    1854.9193   -30295.915    -534.8917     6618.179    78.862238    20.184382    26.937778 
 5178800    231.41812   -414.68028    263624.46   -28400.607    1872.8435    -30273.45   -1087.7376    6621.8977     78.86092    20.181799    26.929541 
 5179000    224.24604   -501.52389    263624.46   -28470.457    1814.8006   -30285.257   -1442.0224    6625.7421    78.860834    20.180635    26.929891 
 5179200    230.76509   -326.12252    263624.46   -28485.364    1867.5586   -30352.922   -630.34039    6614.1696     78.86052    20.180472    26.937653 
 5179400    227.21108   -483.24286    263624.46   -28363.111    1838.7964   -30201.907   -1424.8859    6621.1238    78.858188    20.181954    26.931804 
 5179600    223.91806   -393.20295    263624.46   -28451.721    1812.1463   -30263.867   -990.88798    6627.6046    78.857309    20.180745    26.929973 
 5179800     224.3128    -454.5184    263624.46   -28486.936    1815.3409   -30302.277   -1245.9896    6619.4009    78.857725    20.179117    26.928584 
 5180000    219.03337   -500.69272    263624.46   -28560.963     1772.615   -30333.578   -1424.7891    6614.5072    78.855909    20.179115    26.937133 
 5180200    222.80864    -547.5627    263624.46   -28518.055    1803.1679   -30321.223   -1639.8465    6630.2219    78.855599    20.177845    26.929347 
 5180400     228.0368     -461.396    263624.46   -28408.712    1845.4788   -30254.191    -1248.254    6625.1367    78.856669    20.178714    26.933412 
 5180600    227.29083   -543.91898    263624.46   -28443.754    1839.4418   -30283.196   -1618.7566    6617.2945    78.854972    20.176905    26.930669 
 5180800    225.28019   -441.01286    263624.46   -28509.586    1823.1699   -30332.756   -1169.9485    6625.1922    78.854799    20.176924    26.932052 
 5181000     232.5559   -515.23706    263624.46   -28418.582    1882.0515   -30300.634   -1492.5423    6630.0594    78.856938     20.17721    26.936065 
 5181200    222.81929   -366.11892    263624.46   -28496.144    1803.2541   -30299.398   -801.75088    6612.6848    78.857174    20.177247    26.931188 
 5181400    226.99588    -511.0929    263624.46   -28452.289    1837.0548   -30289.344   -1464.9897    6626.1464    78.855841    20.175989    26.931784 
 5181600    224.07053   -511.89233    263624.46    -28491.03    1813.3802    -30304.41   -1462.6576    6629.8434    78.856531    20.177603    26.931054 
 5181800    222.41186    -485.2604    263624.46   -28417.436    1799.9567   -30217.393   -1382.8231    6623.4722    78.856989    20.178867    26.929604 
 5182000    227.81159   -402.49373    263624.46   -28422.262    1843.6563   -30265.919   -1051.7828    6618.7272    78.855986    20.177671    26.930995 
 5182200    227.95039   -463.61484    263624.46   -28399.965    1844.7795   -30244.745   -1302.6316    6633.5176    78.856058    20.179121    26.933333 
 5182400    226.74375   -472.63111    263624.46   -28480.962    1835.0143   -30315.977   -1310.9927    6626.1161    78.857657    20.178972    26.930603 
 5182600    228.43888   -503.40766    263624.46   -28470.894    1848.7328   -30319.627   -1423.0245    6618.7598    78.855807    20.180136    26.931981 
 5182800     236.2043   -444.63402    263624.46   -28437.114    1911.5776   -30348.692   -1205.1285    6627.0834    78.856339    20.179863    26.923275 
 5183000    234.05667   -470.69439    263624.46   -28388.247     1894.197   -30282.444   -1296.9442    6628.9728    78.858488    20.179749    26.926556 
 5183200    229.95553   -389.97711    263624.46   -28436.926    1861.0069   -30297.933   -936.15607    6618.0215    78.858148    20.181505    26.927297 
 5183400    223.18356   -342.49015    263624.46   -28526.885    1806.2021   -30333.088   -701.81351    6626.7287    78.857652    20.180884    26.927387 
 5183600    225.98056   -485.20216    263624.46   -28499.926    1828.8379   -30328.764   -1360.7781    6629.5391    78.858687     20.18056    26.934281 
 5183800    226.96375   -457.64053    263624.46   -28478.311    1836.7947   -30315.105    -1246.281    6623.1527       78.859     20.18057    26.929742 
 5184000    225.92335   -372.98825    263624.46   -28443.891    1828.3749   -30272.266   -885.70902    6622.1608      78.8593    20.180161    26.925614 
 5184200    222.73022   -472.69277    263624.46   -28431.395    1802.5333   -30233.928   -1338.5143    6629.6644    78.859587    20.181344    26.935313 
 5184400    227.61226    -401.4847    263624.46    -28437.08    1842.0431   -30279.123   -1025.7656    6619.2675    78.859834     20.18052    26.928986 
 5184600    225.72455   -445.15289    263624.46   -28443.691    1826.7661   -30270.457   -1209.0023     6623.215    78.859283     20.18053    26.929641 
 5184800    227.72666   -495.48234    263624.46   -28449.283    1842.9689   -30292.252     -1399.11    6628.9246    78.860038    20.181383    26.928343 
 5185000    225.42777   -393.13516    263624.46    -28434.61    1824.3643   -30258.974    -956.7122    6619.3067    78.860495    20.181609    26.932388 
 5185200    224.77834   -474.00039    263624.46   -28472.169    1819.1085   -30291.278   -1281.2671    6623.5966    78.859482    20.182216    26.934312 
 5185400    223.87417   -462.44495    263624.46   -28439.511    1811.7911   -30251.302   -1266.0808    6629.1399    78.860925    20.181251    26.925628 
 5185600    225.01114     -421.867    263624.46   -28454.141    1820.9925   -30275.134   -1066.6468    6623.9373    78.861495    20.181116    26.926212 
 5185800    229.56319   -391.93991    263624.46   -28411.035    1857.8318   -30268.867   -962.33322    6621.0999    78.861086    20.181589     26.92601 
 5186000    232.56884   -490.47779    263624.46   -28376.991    1882.1562   -30259.147   -1403.2357    6629.2155    78.861806    20.179902    26.931339 
 5186200    230.13818   -445.56902    263624.46   -28418.666    1862.4851   -30281.151   -1225.8308    6630.1355    78.863072    20.178568    26.933427 
 5186400    229.03093   -344.38722    263624.46   -28428.678    1853.5243   -30282.202   -749.52763     6621.211    78.862465    20.179976    26.930957 
 5186600    221.50352   -371.34026    263624.46   -28447.893    1792.6057   -30240.499   -854.29287    6632.7109    78.862242    20.179185    26.938001 
 5186800    227.66137   -428.50118    263624.46   -28354.891    1842.4406   -30197.332   -1150.2652     6625.036    78.863644    20.180479    26.931166 
 5187000    228.00573   -379.14599    263624.46   -28358.912    1845.2274   -30204.139   -887.11578    6620.9914    78.862254    20.180004    26.926501 
 5187200    222.94275   -445.88853    263624.46   -28510.848    1804.2532   -30315.102    -1183.117    6633.0597    78.863722    20.181536    26.925525 
 5187400    222.79444   -448.45747    263624.46    -28515.31     1803.053   -30318.363   -1207.8194     6623.208    78.864312    20.182723    26.927934 
 5187600    226.68949   -382.73041    263624.46   -28428.744    1834.5752   -30263.319   -920.27245    6619.7222    78.865221    20.181735    26.923475 
 5187800    227.74506   -569.33319    263624.46    -28463.14    1843.1179   -30306.257   -1778.4095    6632.3902     78.86494    20.181714     26.92868 
 5188000    234.17254     -436.882    263624.46    -28380.38    1895.1348   -30275.515   -1209.9337    6627.5935    78.866129    20.181833    26.924865 
 5188200    224.97795   -482.89797    263624.46   -28398.519    1820.7239   -30219.243   -1322.4376    6617.6164     78.86625    20.182841    26.928396 
 5188400    227.71188   -468.45634    263624.46   -28448.825    1842.8493   -30291.674   -1300.3012    6626.3586    78.865627    20.183397    26.925306 
 5188600    220.73752   -479.08726    263624.46   -28489.395    1786.4065   -30275.802   -1352.8603    6627.4945    78.866157    20.182406    26.923985 
 5188800    225.42669   -460.37232    263624.46   -28470.921    1824.3555   -30295.277   -1302.5163    6620.0323    78.866178    20.181251    26.928703 
 5189000    229.94738     -464.533    263624.46   -28440.869     1860.941    -30301.81   -1272.6532     6623.574    78.866919    20.181828     26.93093 
 5189200     223.5673   -452.26467    263624.46    -28535.68    1809.3076   -30344.988   -1243.7459    6630.2427    78.868154    20.181899    26.931509 
 5189400    223.60934   -431.80502    263624.46   -28466.513    1809.6479   -30276.161   -1148.2335    6620.3569    78.867716    20.181273    26.930522 
 5189600    226.19309   -423.95789    263624.46   -28428.681    1830.5579   -30259.239   -1092.4156    6620.6606    78.867633    20.179017    26.927556 
 5189800    225.97811   -454.04136    263624.46   -28470.485    1828.8181   -30299.304   -1181.3275    6626.3034    78.868273    20.179942    26.927234 
 5190000    224.74128   -437.07752    263624.46   -28463.824    1818.8085   -30282.633   -1162.8808    6623.1691      78.8686     20.18114    26.924741 
 5190200    226.43617   -452.06843    263624.46   -28491.986    1832.5251   -30324.511   -1214.4001    6624.1217    78.868437    20.181348    26.925957 
 5190400     234.1931     -583.977    263624.46   -28322.739    1895.3011   -30218.041    -1812.165    6628.5208    78.868512    20.180162    26.928592 
 5190600    230.23186   -398.15068    263624.46   -28454.173    1863.2433   -30317.416   -978.32435    6619.8928     78.86811    20.179441     26.92839 
 5190800    227.27293   -486.84819    263624.46   -28450.913    1839.2969    -30290.21   -1354.7501    6627.6903    78.867273    20.179004    26.926673 
 5191000    224.91931   -466.05144    263624.46   -28475.174    1820.2493   -30295.424   -1298.3016    6628.0377    78.867631    20.178414    26.926071 
 5191200    228.45872   -472.38874    263624.46   -28445.402    1848.8934   -30294.295   -1307.1384    6623.4695    78.867486    20.178097    26.926349 
 5191400    227.52554   -454.40053    263624.46   -28454.791    1841.3413   -30296.132   -1209.5342     6624.379    78.866021    20.176862     26.92918 
 5191600    227.55588   -578.72004    263624.46   -28472.048    1841.5868   -30313.634   -1757.5537    6631.3118    78.866709    20.175583    26.936849 
 5191800     228.2788   -534.58296    263624.46   -28368.117    1847.4373   -30215.554   -1612.8955    6619.4892    78.867655    20.174649    26.932099 
 5192000    234.72951   -433.77101    263624.46   -28366.138    1899.6422   -30265.781     -1145.44    6620.2343    78.866368    20.173652    26.934004 
 5192200     228.0855   -430.37273    263624.46   -28432.406     1845.873   -30278.279   -1119.5731    6629.3426    78.867334    20.174016    26.933146 
 5192400    224.39288   -482.61851    263624.46   -28420.419    1815.9889   -30236.408     -1357.64    6625.1109     78.86801    20.172767    26.934794 
 5192600    224.06868   -395.63563    263624.46   -28475.031    1813.3653   -30288.396   -976.96306    6617.6003    78.866679    20.170181    26.926895 
 5192800    230.10912   -492.53155    263624.46   -28421.134    1862.2499   -30283.384   -1388.3123    6627.4937    78.865429    20.169762    26.926831 
 5193000    224.42957   -484.53346    263624.46   -28458.355    1816.2859    -30274.64   -1369.7402    6625.1747    78.866466    20.169228    26.931784 
 5193200    233.56245    -481.6473    263624.46   -28400.641    1890.1974   -30290.839   -1294.2283    6622.1846     78.86527    20.169739    26.926236 
 5193400    227.93233   -418.36585    263624.46   -28473.109    1844.6334   -30317.742    -1035.389    6615.9173    78.864642    20.169345    26.930776 
 5193600    232.04138   -524.39215    263624.46   -28368.535    1877.8875   -30246.422   -1513.3422    6628.9352    78.863087      20.1666    26.924564 
 5193800    226.71384   -424.40157    263624.46   -28464.678    1834.7723    -30299.45   -1111.8755     6624.479    78.863509    20.163791     26.93142 
 5194000    220.88127   -406.85362    263624.46   -28545.822    1787.5698   -30333.392   -1067.5693    6621.3768    78.862461    20.164637    26.926854 
 5194200    223.88689   -446.48415    263624.46   -28479.879     1811.894   -30291.773     -1198.51    6625.5504     78.86114    20.163982    26.924803 
 5194400    225.09164   -481.95552    263624.46   -28399.464    1821.6439   -30221.108   -1328.4101    6632.2024    78.861653    20.164052    26.924551 
 5194600    237.87932   -366.94099    263624.46    -28382.57    1925.1334   -30307.703   -840.36334    6616.8545    78.861609    20.163441    26.928323 
 5194800    225.55067   -464.73454    263624.46   -28394.396    1825.3589   -30219.754   -1280.6878    6622.8744    78.859011    20.162191    26.928573 
 5195000    227.02379   -361.57525    263624.46   -28416.509    1837.2806   -30253.789   -797.20727    6629.6345    78.860595    20.162013    26.930719 
 5195200    224.95422   -404.98096    263624.46    -28386.29    1820.5319   -30206.822   -1029.2331    6624.2734    78.860344    20.160393    26.927631 
 5195400    230.07336   -359.54301    263624.46   -28379.174    1861.9606   -30241.134   -833.27265    6620.5227    78.859331    20.160804    26.932956 
 5195600    223.05792   -567.43283    263624.46   -28481.868    1805.1853   -30287.053   -1758.0549    6636.7797    78.860124    20.159495    26.930503 
 5195800    228.89065   -336.42293    263624.46   -28333.967    1852.3889   -30186.356    -653.9958    6620.2475    78.861705    20.159181    26.930351 
 5196000    224.64619   -400.69728    263624.46   -28426.359     1818.039   -30244.398   -955.74984    6623.7943    78.860227    20.160094    26.923162 
 5196200    229.90454   -444.56379    263624.46   -28426.067    1860.5943   -30286.661   -1199.5225     6626.995    78.860575    20.159658    26.925739 
 5196400    230.09052   -371.38642    263624.46   -28398.792    1862.0994   -30260.891   -874.24448    6630.9885    78.861481     20.15939    26.929182 
 5196600    229.22724   -334.84999    263624.46   -28454.144     1855.113   -30309.257   -688.51216    6619.1169    78.861448    20.160103    26.933221 
 5196800    227.93556   -500.93082    263624.46   -28422.124    1844.6595   -30266.784   -1469.7622    6630.1957    78.860136    20.158952     26.93668 
 5197000    233.72112   -460.08744    263624.46   -28372.882    1891.4815   -30264.364   -1259.3914    6629.6531    78.862843    20.160438    26.927272 
 5197200    232.43737   -440.89621    263624.46   -28430.706    1881.0923   -30311.798   -1147.8244    6622.5334    78.861782    20.161218    26.931537 
 5197400    229.99159   -455.83201    263624.46   -28408.453    1861.2987   -30269.751   -1261.9313    6624.8898    78.861492    20.159144    26.935157 
 5197600    226.98374    -462.8402    263624.46   -28463.844    1836.9566   -30300.801   -1244.1483    6628.4236    78.861962     20.15904    26.928055 
 5197800    222.83706   -607.39263    263624.46   -28531.314    1803.3979   -30334.712   -1974.0515    6628.0277    78.862385    20.157842    26.938771 
 5198000     227.9221   -494.84255    263624.46    -28403.99    1844.5506    -30248.54   -1418.1369    6625.9101    78.863837    20.160318    26.925687 
 5198200    230.64459   -487.22161    263624.46   -28400.123    1866.5835   -30266.707   -1374.9018    6623.7939    78.863172    20.159342    26.934296 
 5198400    222.88769   -394.10053    263624.46   -28482.751    1803.8077   -30286.558   -943.06717    6627.9557    78.862854    20.157898      26.9293 
 5198600    225.84236   -409.57209    263624.46   -28511.484    1827.7195   -30339.203   -997.83524     6622.918    78.863242    20.159848    26.930307 
 5198800    226.56328   -397.00409    263624.46   -28435.236    1833.5538    -30268.79   -924.33119    6619.8596    78.862222    20.158024    26.928221 
 5199000    229.33429   -511.07935    263624.46    -28358.49    1855.9793   -30214.469   -1459.6981    6628.0564    78.863109    20.158477    26.920029 
 5199200    229.72378   -356.37353    263624.46   -28421.475    1859.1314   -30280.607   -756.68365    6619.2382    78.861483    20.158433    26.924197 
 5199400      223.389   -479.45629    263624.46   -28449.121    1807.8647   -30256.986   -1350.7421    6628.6658     78.86185     20.15702    26.922823 
 5199600    229.82237   -492.54285    263624.46    -28425.25    1859.9293    -30285.18   -1423.1213     6621.684    78.863296    20.157796    26.926618 
 5199800     230.2586   -476.91979    263624.46   -28408.734    1863.4596   -30272.194   -1352.4701    6621.6852     78.86146    20.157649    26.929544 
 5200000    226.20929   -568.16676    263624.46    -28416.02     1830.689   -30246.709   -1749.3954    6624.8308    78.860803    20.158659    26.920281 
Loop time of 16603.8 on 80 procs for 5200000 steps with 9436 atoms

Performance: 270.589 ns/day, 0.089 hours/ns, 313.182 timesteps/s
98.2% CPU use with 80 MPI tasks x no OpenMP threads

MPI task timing breakdown:
Section |  min time  |  avg time  |  max time  |%varavg| %total
---------------------------------------------------------------
Pair    | 0.28717    | 4487.3     | 14028      |7019.3 | 27.03
Neigh   | 0.47156    | 240.22     | 847.61     |1988.5 |  1.45
Comm    | 16.363     | 5871.1     | 14770      |5980.6 | 35.36
Output  | 171.98     | 172.08     | 174.23     |   1.9 |  1.04
Modify  | 491.31     | 5763.6     | 16350      |7081.9 | 34.71
Other   |            | 69.47      |            |       |  0.42

Nlocal:        117.950 ave         376 max           0 min
Histogram: 37 8 14 1 0 0 0 0 4 16
Nghost:        747.450 ave        1215 max           0 min
Histogram: 12 2 1 3 2 3 12 22 10 13
Neighs:         0.00000 ave           0 max           0 min
Histogram: 80 0 0 0 0 0 0 0 0 0
FullNghs:      11751.8 ave       43394 max           0 min
Histogram: 52 8 0 0 0 0 0 0 1 19

Total # of neighbors = 940146
Ave neighs/atom = 99.633955
Neighbor list builds = 557833
Dangerous builds = 0
write_data 		${DIR}/data.${NAME}_run
write_data 		run_15/data.${NAME}_run
write_data 		run_15/data.ibeam_cooling_15_run
System init for write_data ...
Total wall time: 4:37:17
