
### Dimensions ###


### IMPORT ATOMS ###
read_data ../Box_Setup/data.Ibeam_240K
Reading data file ...
  orthogonal box = (0.0000000 0.0000000 0.0000000) to (157.50400 36.487659 45.872046)
  10 by 2 by 4 MPI processor grid
  reading atoms ...
  9436 atoms
  reading velocities ...
  9436 velocities
  read_data CPU = 0.027 seconds
group water type 2
2716 atoms in group water
group graphite type 1
6720 atoms in group graphite


# Define potential
#
pair_style          sw
pair_coeff * * MLC_e.sw C mW

# Add velocity/set timestep
#

fix		1 graphite setforce 0.0 0.0 0.0
velocity 	graphite set 0.0 0.0 0.0
velocity            water create ${START_TEMP} ${SEED} rot yes dist gaussian
velocity            water create 240 ${SEED} rot yes dist gaussian
velocity            water create 240 15707 rot yes dist gaussian
timestep            5.0

# Define output
#
compute 1 water msd
compute 2 water temp


thermo	            100
thermo_style custom step c_2 press vol etotal ke pe c_1[4] density

# Neighbor lists
#
neigh_modify        delay 0 every 1 check yes


# Set fixes
#
fix                 2 water momentum 10 linear 1 1 1 rescale
fix                 3 all nve
fix                 4 water temp/csvr ${START_TEMP} ${START_TEMP} 500.0 928347
fix                 4 water temp/csvr 240 ${START_TEMP} 500.0 928347
fix                 4 water temp/csvr 240 240 500.0 928347

# Run 0.05 ns equilibration
#
dump                1 all custom 100 ${DIR}/eq.${NAME}.dump id type x y z vx vy vz
dump                1 all custom 100 run_15/eq.${NAME}.dump id type x y z vx vy vz
dump                1 all custom 100 run_15/eq.ibeam_cooling_15.dump id type x y z vx vy vz
run                 10000
Neighbor list info ...
  update every 1 steps, delay 0 steps, check yes
  max neighbors/atom: 2000, page size: 100000
  master list distance cutoff = 6.6747184
  ghost atom cutoff = 6.6747184
  binsize = 3.3373592, bins = 48 11 14
  1 neighbor lists, perpetual/occasional/extra = 1 0 0
  (1) pair sw, perpetual
      attributes: full, newton on
      pair build: full/bin/atomonly
      stencil: full/bin/3d
      bin: standard
Per MPI rank memory allocation (min/avg/max) = 3.597 | 4.372 | 4.790 Mbytes
Step c_2 Press Volume TotEng KinEng PotEng c_1[4] Density 
       0          240   -384.81349    263624.46   -25860.227    1942.2958   -27802.523            0   0.81656126 
     100     239.2663   -439.41394    263624.46    -25854.98    1936.3581   -27791.338   0.82314757   0.81656126 
     200    240.62927   -255.95002    263624.46   -25862.287    1947.3884   -27809.675     1.180543   0.81656126 
     300    235.80579   -167.08265    263624.46    -25845.57    1908.3525   -27753.923    1.6085361   0.81656126 
     400    236.93406   -226.32316    263624.46   -25849.496    1917.4835    -27766.98    1.9539111   0.81656126 
     500    241.05236   -308.49285    263624.46    -25827.26    1950.8125   -27778.072    2.4204692   0.81656126 
     600    243.76032   -173.60131    263624.46   -25755.631    1972.7277   -27728.359    2.7744006   0.81656126 
     700    245.91926    -390.3636    263624.46    -25774.56    1990.1998    -27764.76    3.2955448   0.81656126 
     800    245.15561   -269.52174    263624.46   -25759.752    1984.0196   -27743.772    3.6517213   0.81656126 
     900    240.09396   -265.61317    263624.46   -25766.931    1943.0562   -27709.987    4.0369921   0.81656126 
    1000    242.39453   -169.09435    263624.46   -25779.757    1961.6745   -27741.432    4.5077727   0.81656126 
    1100    241.97064   -292.04797    263624.46   -25756.822     1958.244   -27715.066    4.9558701   0.81656126 
    1200    237.87115   -178.39317    263624.46   -25765.097    1925.0672   -27690.164     5.526465   0.81656126 
    1300     244.0351   -228.51807    263624.46   -25719.571    1974.9515   -27694.523    5.9334447   0.81656126 
    1400    233.95439   -287.02627    263624.46   -25760.525    1893.3693   -27653.895    6.3677136   0.81656126 
    1500    240.73752   -192.46025    263624.46   -25792.083    1948.2645   -27740.348    6.7625949   0.81656126 
    1600    240.13138   -278.67468    263624.46   -25775.767    1943.3591   -27719.126    7.2748136   0.81656126 
    1700    237.84187   -227.18998    263624.46   -25780.815    1924.8303   -27705.646    7.4733467   0.81656126 
    1800    245.17664   -239.92744    263624.46   -25761.662    1984.1898   -27745.852    7.7232381   0.81656126 
    1900    242.57013   -195.57255    263624.46   -25728.208    1963.0957   -27691.304    8.1435826   0.81656126 
    2000    247.07019   -155.15321    263624.46   -25703.283    1999.5142   -27702.797    8.5297016   0.81656126 
    2100    238.65781   -290.02292    263624.46   -25793.607    1931.4336   -27725.041     8.810622   0.81656126 
    2200    240.30889   -482.50586    263624.46   -25755.414    1944.7957   -27700.209     9.113898   0.81656126 
    2300    243.57127   -313.58695    263624.46   -25717.068    1971.1978   -27688.266    9.6086354   0.81656126 
    2400    246.55352   -425.71841    263624.46   -25719.446    1995.3328   -27714.779     10.09408   0.81656126 
    2500     241.2884   -175.50993    263624.46   -25761.387    1952.7227   -27714.109    10.518341   0.81656126 
    2600    238.78542   -229.57493    263624.46   -25785.853    1932.4664   -27718.319    10.718743   0.81656126 
    2700    238.87802    -243.1758    263624.46   -25796.823    1933.2158   -27730.038    11.240487   0.81656126 
    2800    247.68697   -249.19266    263624.46   -25753.268    2004.5057   -27757.774    11.834847   0.81656126 
    2900    240.22233    -367.3406    263624.46   -25761.609    1944.0952   -27705.704    12.234477   0.81656126 
    3000    240.42785   -143.45686    263624.46   -25736.507    1945.7584   -27682.265    12.543309   0.81656126 
    3100    241.85738   -261.43278    263624.46   -25722.776    1957.3274   -27680.104    12.640383   0.81656126 
    3200    239.93884    -291.9367    263624.46    -25794.36    1941.8009   -27736.161    12.908153   0.81656126 
    3300    233.11353   -387.19678    263624.46   -25871.367    1886.5643   -27757.931    13.382028   0.81656126 
    3400    238.83247   -310.37856    263624.46    -25810.03    1932.8471   -27742.877    13.736102   0.81656126 
    3500     232.7041   -318.37351    263624.46   -25787.712    1883.2508   -27670.963    14.318324   0.81656126 
    3600    238.70455   -128.13439    263624.46   -25781.627    1931.8119   -27713.439    14.533695   0.81656126 
    3700    242.39417   -270.87005    263624.46   -25746.664    1961.6716   -27708.336    14.752316   0.81656126 
    3800    239.52338   -339.54292    263624.46   -25729.457    1938.4386   -27667.895    15.116218   0.81656126 
    3900    241.10847    -208.6649    263624.46   -25724.519    1951.2666   -27675.786    15.414528   0.81656126 
    4000    232.48532   -250.78801    263624.46   -25772.288    1881.4803   -27653.768    15.907697   0.81656126 
    4100    238.01852   -287.58906    263624.46   -25748.251    1926.2599   -27674.511    16.450172   0.81656126 
    4200    244.34827   -302.41032    263624.46   -25718.673     1977.486   -27696.159    16.882514   0.81656126 
    4300    235.15767   -163.37817    263624.46   -25783.837    1903.1073   -27686.945    17.485222   0.81656126 
    4400    241.16362   -144.00578    263624.46   -25745.574    1951.7129   -27697.287    18.439585   0.81656126 
    4500    235.23102   -206.96662    263624.46   -25774.736    1903.7009   -27678.437    18.745515   0.81656126 
    4600    234.67543   -283.41577    263624.46   -25843.705    1899.2046   -27742.909    19.337592   0.81656126 
    4700    248.18701   -284.96029    263624.46   -25784.229    2008.5525   -27792.782    19.706219   0.81656126 
    4800     245.6277   -104.02421    263624.46   -25761.615    1987.8402   -27749.455    19.957928   0.81656126 
    4900    247.54821    -184.3194    263624.46   -25709.583    2003.3827   -27712.966    20.269882   0.81656126 
    5000    237.11917    -334.9333    263624.46   -25778.019    1918.9816   -27697.001     20.48627   0.81656126 
    5100    242.30751    -353.9738    263624.46   -25739.349    1960.9703    -27700.32    20.571727   0.81656126 
    5200    236.46325   -341.10726    263624.46   -25756.376    1913.6732   -27670.049     20.92033   0.81656126 
    5300    240.05853   -246.88504    263624.46   -25804.018    1942.7695   -27746.788    21.322232   0.81656126 
    5400    238.26419   -369.86245    263624.46   -25780.967    1928.2481   -27709.215    21.816167   0.81656126 
    5500     235.7976   -169.74382    263624.46    -25763.06    1908.2862   -27671.347    22.105577   0.81656126 
    5600    242.68845   -154.82096    263624.46   -25795.074    1964.0532   -27759.127    22.392426   0.81656126 
    5700    235.47061   -178.37705    263624.46   -25777.626      1905.64   -27683.266     22.91988   0.81656126 
    5800    236.38439    -278.0836    263624.46   -25750.636    1913.0351   -27663.671    23.097863   0.81656126 
    5900    239.11675   -358.31279    263624.46   -25774.308    1935.1478   -27709.455    23.504487   0.81656126 
    6000    236.94424   -310.66588    263624.46   -25779.686    1917.5659   -27697.252    23.938966   0.81656126 
    6100    240.50224   -151.33963    263624.46   -25807.958    1946.3604   -27754.318     24.36954   0.81656126 
    6200    237.66567   -231.08078    263624.46   -25810.212    1923.4044   -27733.616    24.512689   0.81656126 
    6300    243.09747   -237.25417    263624.46    -25745.24    1967.3633   -27712.604    24.571189   0.81656126 
    6400    239.87032   -284.45887    263624.46   -25805.021    1941.2463   -27746.267    24.908096   0.81656126 
    6500    234.83954    -415.8766    263624.46   -25822.157    1900.5327    -27722.69    25.225771   0.81656126 
    6600     237.8989   -349.38795    263624.46   -25837.424    1925.2919   -27762.716    25.556819   0.81656126 
    6700    234.07184   -233.36003    263624.46   -25859.351    1894.3198   -27753.671    25.905376   0.81656126 
    6800    240.10651   -163.95179    263624.46   -25841.837    1943.1578   -27784.995    26.148963   0.81656126 
    6900    243.93074   -228.56009    263624.46   -25802.034    1974.1069    -27776.14    26.471915   0.81656126 
    7000    241.28746   -183.23778    263624.46   -25798.694    1952.7151   -27751.409    27.060786   0.81656126 
    7100    235.36134    -358.6005    263624.46   -25816.492    1904.7556   -27721.248    27.571636   0.81656126 
    7200     242.6184   -126.44402    263624.46   -25894.014    1963.4863   -27857.501    28.025401   0.81656126 
    7300    238.17405    -278.4019    263624.46   -25946.048    1927.5186   -27873.566    28.147675   0.81656126 
    7400    236.72151   -389.92057    263624.46   -25881.785    1915.7634   -27797.549    28.493632   0.81656126 
    7500    239.34628   -323.22449    263624.46   -25851.486    1937.0054   -27788.491    28.755371   0.81656126 
    7600    240.45669   -239.98757    263624.46    -25806.21    1945.9918   -27752.202    28.770407   0.81656126 
    7700    243.95972   -248.00571    263624.46   -25847.357    1974.3414   -27821.698    29.286829   0.81656126 
    7800    238.41708   -293.68378    263624.46   -25913.074    1929.4854   -27842.559    29.888043   0.81656126 
    7900    241.50391   -227.94482    263624.46   -25878.347    1954.4668   -27832.814    30.011507   0.81656126 
    8000    244.68284   -334.10773    263624.46   -25826.567    1980.1936   -27806.761    30.585442   0.81656126 
    8100    248.15746   -415.18715    263624.46   -25800.117    2008.3133    -27808.43    31.007842   0.81656126 
    8200    242.30564   -445.75211    263624.46   -25802.133    1960.9551   -27763.088    31.116983   0.81656126 
    8300    246.97325   -312.91052    263624.46   -25767.483    1998.7296   -27766.213    31.608676   0.81656126 
    8400     242.0006   -212.67768    263624.46   -25765.495    1958.4864   -27723.981    32.155547   0.81656126 
    8500    237.59598   -269.60641    263624.46   -25805.942    1922.8403   -27728.783    32.853294   0.81656126 
    8600    241.20023   -170.32473    263624.46   -25806.602    1952.0092   -27758.611    33.483609   0.81656126 
    8700    241.02851   -268.61073    263624.46   -25824.883    1950.6194   -27775.502    34.283135   0.81656126 
    8800    237.33359   -271.02579    263624.46   -25832.762    1920.7168   -27753.478     35.21198   0.81656126 
    8900    236.85615   -353.03393    263624.46   -25871.004     1916.853   -27787.857    35.601008   0.81656126 
    9000    244.25543   -255.48869    263624.46   -25854.499    1976.7346   -27831.233    36.451036   0.81656126 
    9100    241.39848   -282.69221    263624.46   -25869.943    1953.6136   -27823.557    36.706653   0.81656126 
    9200    246.22635   -260.09525    263624.46   -25812.887     1992.685   -27805.572    37.125789   0.81656126 
    9300    235.90557   -324.05869    263624.46   -25888.453      1909.16   -27797.614    37.266487   0.81656126 
    9400    236.80334    -312.9319    263624.46   -25878.629    1916.4256   -27795.055     37.50281   0.81656126 
    9500    235.58037   -403.47525    263624.46   -25906.084    1906.5282   -27812.613    37.681913   0.81656126 
    9600    239.44411   -258.55152    263624.46   -25905.886    1937.7971   -27843.683    37.880767   0.81656126 
    9700    240.43205    -91.46931    263624.46   -25878.913    1945.7923   -27824.705     37.93806   0.81656126 
    9800    245.76676   -217.98009    263624.46    -25825.51    1988.9657   -27814.476    38.199786   0.81656126 
    9900    241.25877    -190.8362    263624.46   -25857.754    1952.4829   -27810.236    38.416112   0.81656126 
   10000    238.77348   -206.07537    263624.46   -25856.135    1932.3697   -27788.505     38.16054   0.81656126 
Loop time of 33.9421 on 80 procs for 10000 steps with 9436 atoms

Performance: 127.275 ns/day, 0.189 hours/ns, 294.619 timesteps/s
97.9% CPU use with 80 MPI tasks x no OpenMP threads

MPI task timing breakdown:
Section |  min time  |  avg time  |  max time  |%varavg| %total
---------------------------------------------------------------
Pair    | 0.00052261 | 7.7936     | 29.564     | 376.3 | 22.96
Neigh   | 0.00050616 | 0.25057    | 0.93192    |  63.0 |  0.74
Comm    | 0.013242   | 10.271     | 30.695     | 353.5 | 30.26
Output  | 0.18689    | 0.18712    | 0.19436    |   0.2 |  0.55
Modify  | 0.64945    | 15.286     | 33.62      | 384.5 | 45.03
Other   |            | 0.1542     |            |       |  0.45

Nlocal:        117.950 ave         371 max           0 min
Histogram: 36 0 21 3 0 0 0 0 2 18
Nghost:        753.425 ave        1246 max           0 min
Histogram: 12 0 0 4 0 20 20 0 8 16
Neighs:         0.00000 ave           0 max           0 min
Histogram: 80 0 0 0 0 0 0 0 0 0
FullNghs:      11534.4 ave       45103 max           0 min
Histogram: 49 11 0 0 0 0 0 2 10 8

Total # of neighbors = 922750
Ave neighs/atom = 97.790377
Neighbor list builds = 587
Dangerous builds = 0
write_data 	    ${DIR}/data.${NAME}_eq
write_data 	    run_15/data.${NAME}_eq
write_data 	    run_15/data.ibeam_cooling_15_eq
System init for write_data ...

undump              1
unfix               4



################################################
#######         Run Simulation         #########
################################################

reset_timestep      0
timestep	    10.0
log                 ${DIR}/log.run_${NAME}
log                 run_15/log.run_${NAME}
log                 run_15/log.run_ibeam_cooling_15
