
### Dimensions ###


### IMPORT ATOMS ###
read_data ../Box_Setup/data.Ibeam_240K
  orthogonal box = (0 0 0) to (157.504 36.4877 39.8503)
  10 by 4 by 4 MPI processor grid
  reading atoms ...
  8943 atoms
  reading velocities ...
  8943 velocities
group water type 2
2223 atoms in group water
group graphite type 1
6720 atoms in group graphite


# Define potential
#
pair_style          sw
pair_coeff * * MLC_e.sw C mW

# Add velocity/set timestep
#

fix		1 graphite setforce 0.0 0.0 0.0
velocity 	graphite set 0.0 0.0 0.0
velocity            water create ${START_TEMP} ${SEED} rot yes dist gaussian
velocity            water create 240 ${SEED} rot yes dist gaussian
velocity            water create 240 21166 rot yes dist gaussian
timestep            5.0

# Define output
#
compute 1 water msd
compute 2 water temp


thermo	            100
thermo_style custom step c_2 press vol etotal ke pe c_1[4] density

# Neighbor lists
#
neigh_modify        delay 0 every 1 check yes


# Set fixes
#
fix                 2 water momentum 10 linear 1 1 1 rescale
fix                 3 all nve
fix                 4 water temp/csvr ${START_TEMP} ${START_TEMP} 500.0 928347
fix                 4 water temp/csvr 240 ${START_TEMP} 500.0 928347
fix                 4 water temp/csvr 240 240 500.0 928347

# Run 0.05 ns equilibration
#
dump                1 all custom 100 ${DIR}/eq.${NAME}.dump id type x y z vx vy vz
dump                1 all custom 100 run_18/eq.${NAME}.dump id type x y z vx vy vz
dump                1 all custom 100 run_18/eq.ibeam_cooling_18.dump id type x y z vx vy vz
run                 10000
Neighbor list info ...
  update every 1 steps, delay 0 steps, check yes
  max neighbors/atom: 2000, page size: 100000
  master list distance cutoff = 6.67472
  ghost atom cutoff = 6.67472
  binsize = 3.33736, bins = 48 11 12
  1 neighbor lists, perpetual/occasional/extra = 1 0 0
  (1) pair sw, perpetual
      attributes: full, newton on
      pair build: full/bin/atomonly
      stencil: full/bin/3d
      bin: standard
Per MPI rank memory allocation (min/avg/max) = 0.463 | 3.758 | 4.742 Mbytes
Step c_2 Press Volume TotEng KinEng PotEng c_1[4] Density 
       0          240   -163.35224    229018.04   -21211.582    1589.6064   -22801.188            0   0.87555383 
     100      240.265   -269.04837    229018.04   -21177.445    1591.3616   -22768.807   0.84787163   0.87555383 
     200    236.73999   -468.53134    229018.04   -21217.888    1568.0142   -22785.902    1.3248316   0.87555383 
     300     245.8866   -259.03623    229018.04   -21199.924    1628.5955   -22828.519    1.6493172   0.87555383 
     400    237.20187   -313.49047    229018.04   -21211.709    1571.0734   -22782.782    1.9772495   0.87555383 
     500     240.0248   -265.71354    229018.04   -21227.994    1589.7706   -22817.765    2.3524702   0.87555383 
     600      234.702   -368.58672    229018.04   -21324.728    1554.5158   -22879.243    2.7557811   0.87555383 
     700    233.40529   -194.92198    229018.04   -21287.987    1545.9272   -22833.915     3.085753   0.87555383 
     800    230.33166    -268.7274    229018.04   -21328.472    1525.5695   -22854.041    3.3456516   0.87555383 
     900    236.86206   -336.29772    229018.04   -21285.574    1568.8227   -22854.397    3.5776604   0.87555383 
    1000    241.52259   -301.13844    229018.04   -21213.402     1599.691   -22813.093     3.918147   0.87555383 
    1100    239.28504   -340.27807    229018.04   -21227.273     1584.871   -22812.144    4.3009781   0.87555383 
    1200    233.25674   -294.23134    229018.04   -21274.959    1544.9433   -22819.903    4.5408166   0.87555383 
    1300      237.841   -352.45814    229018.04   -21230.547    1575.3065   -22805.854    4.8176407   0.87555383 
    1400    241.71115   -321.80839    229018.04   -21175.733      1600.94   -22776.673    5.2331327   0.87555383 
    1500    242.83725   -282.03537    229018.04   -21175.502    1608.3985   -22783.901    5.6704869   0.87555383 
    1600    242.07918   -325.69045    229018.04   -21161.109    1603.3776   -22764.487    5.9978835   0.87555383 
    1700    243.44563   -353.02912    229018.04   -21180.997     1612.428   -22793.425    6.3632437   0.87555383 
    1800    242.41389   -169.25667    229018.04   -21189.148    1605.5944   -22794.742     6.753671   0.87555383 
    1900    244.98293   -209.10873    229018.04   -21103.283    1622.6101   -22725.893    7.3577222   0.87555383 
    2000    241.68701   -326.92327    229018.04   -21077.518    1600.7801   -22678.299     7.725054   0.87555383 
    2100     243.0861   -358.32878    229018.04   -21088.008    1610.0468   -22698.055    8.2187668   0.87555383 
    2200    246.06488   -160.51326    229018.04   -21083.279    1629.7763   -22713.055    8.7857323   0.87555383 
    2300    239.23237   -262.37435    229018.04   -21116.085    1584.5221   -22700.607    9.0724788   0.87555383 
    2400    249.27933    -278.2187    229018.04   -21114.422    1651.0667   -22765.488    9.4690735   0.87555383 
    2500    246.87173   -402.32301    229018.04   -21105.534    1635.1203   -22740.654    9.8402876   0.87555383 
    2600    238.58381   -322.75155    229018.04   -21147.986    1580.2264   -22728.213    10.128564   0.87555383 
    2700    243.91585   -336.65143    229018.04   -21120.518    1615.5424    -22736.06    10.457548   0.87555383 
    2800    247.38926   -250.83139    229018.04   -21136.153    1638.5481   -22774.702    10.701282   0.87555383 
    2900    238.49348   -90.593418    229018.04    -21195.28    1579.6281   -22774.908    11.159199   0.87555383 
    3000    237.52866   -309.00658    229018.04   -21223.028    1573.2378   -22796.266    11.590924   0.87555383 
    3100    244.04006   -425.85235    229018.04   -21215.295    1616.3652    -22831.66    11.853435   0.87555383 
    3200     233.9561   -232.19883    229018.04   -21243.054    1549.5755    -22792.63    12.324698   0.87555383 
    3300    241.04891    -250.3419    229018.04   -21213.688    1596.5537   -22810.242    12.577323   0.87555383 
    3400     240.7065   -318.16996    229018.04   -21210.676    1594.2858   -22804.961     13.20061   0.87555383 
    3500    233.42975   -240.02312    229018.04   -21212.347    1546.0892   -22758.437    13.734752   0.87555383 
    3600    242.45274   -382.59171    229018.04   -21204.514    1605.8518   -22810.366    14.166502   0.87555383 
    3700    237.36322   -271.90304    229018.04   -21227.602     1572.142   -22799.744    14.398896   0.87555383 
    3800    233.10816   -320.99615    229018.04   -21224.054    1543.9593   -22768.013    14.734832   0.87555383 
    3900    231.82069   -307.45822    229018.04   -21220.723    1535.4319   -22756.155    15.361117   0.87555383 
    4000    237.09059   -228.91577    229018.04   -21241.207    1570.3363   -22811.543    15.699663   0.87555383 
    4100    239.99924   -204.80374    229018.04   -21206.612    1589.6013   -22796.214    16.104837   0.87555383 
    4200    243.79078   -290.29574    229018.04   -21197.064    1614.7141   -22811.778    16.483628   0.87555383 
    4300    246.54847   -286.03413    229018.04   -21108.333    1632.9792   -22741.312    16.861841   0.87555383 
    4400    246.33507   -448.26116    229018.04   -21105.758    1631.5658   -22737.324    17.376483   0.87555383 
    4500    241.84976   -338.46382    229018.04     -21150.1     1601.858   -22751.958    18.005081   0.87555383 
    4600    239.94282   -366.15406    229018.04   -21185.884    1589.2277   -22775.111    18.472524   0.87555383 
    4700     239.5841   -236.28009    229018.04   -21221.186    1586.8517   -22808.038    19.037382   0.87555383 
    4800    237.91233   -352.32457    229018.04   -21173.901     1575.779    -22749.68    19.427392   0.87555383 
    4900    243.37614   -274.36672    229018.04    -21192.83    1611.9677   -22804.798    19.995465   0.87555383 
    5000    237.90342    -296.0744    229018.04   -21219.623      1575.72   -22795.343    20.796767   0.87555383 
    5100    236.37625   -241.83725    229018.04   -21233.109     1565.605   -22798.714    21.344044   0.87555383 
    5200    238.53421   -224.93734    229018.04   -21210.792    1579.8979    -22790.69    21.897483   0.87555383 
    5300    233.91685   -349.64997    229018.04     -21254.9    1549.3155   -22804.215    22.365659   0.87555383 
    5400    236.78789   -225.68885    229018.04   -21218.728    1568.3314   -22787.059    23.016998   0.87555383 
    5500    242.05598   -370.47141    229018.04    -21251.87    1603.2239   -22855.094    23.885727   0.87555383 
    5600    236.21676   -170.42911    229018.04   -21264.953    1564.5486   -22829.502    24.773492   0.87555383 
    5700    236.62813   -308.31963    229018.04   -21222.354    1567.2733   -22789.627    25.489677   0.87555383 
    5800    243.87082   -287.00106    229018.04   -21128.676    1615.2442    -22743.92     25.76054   0.87555383 
    5900     241.2718   -307.83106    229018.04   -21154.578      1598.03   -22752.608    26.363888   0.87555383 
    6000    235.66357   -233.98383    229018.04   -21237.159    1560.8847   -22798.044    26.651637   0.87555383 
    6100    234.15473   -219.72002    229018.04   -21212.579     1550.891    -22763.47    27.078897   0.87555383 
    6200    232.79193   -100.15447    229018.04   -21166.216    1541.8647   -22708.081    27.430768   0.87555383 
    6300    240.05928   -189.83717    229018.04   -21122.203     1589.999   -22712.202    28.069971   0.87555383 
    6400    242.67168   -275.41466    229018.04    -21105.89    1607.3019   -22713.192    28.474901   0.87555383 
    6500     245.8313   -355.88799    229018.04   -21134.264    1628.2292   -22762.494    29.505949   0.87555383 
    6600    237.57768   -83.434857    229018.04   -21178.743    1573.5625   -22752.306    29.955314   0.87555383 
    6700    234.22492   -229.81941    229018.04   -21231.266    1551.3559   -22782.622    30.190442   0.87555383 
    6800    239.56569   -232.61138    229018.04   -21199.464    1586.7298   -22786.194    30.635069   0.87555383 
    6900    235.16045   -307.15262    229018.04   -21240.662    1557.5523   -22798.215    30.958371   0.87555383 
    7000    233.91143   -418.22121    229018.04   -21270.449    1549.2796   -22819.729    31.409212   0.87555383 
    7100    240.95594   -277.84564    229018.04   -21177.927    1595.9379   -22773.865    31.903604   0.87555383 
    7200    236.99264   -413.76951    229018.04   -21173.519    1569.6876   -22743.207     32.53538   0.87555383 
    7300    232.01934    -296.0325    229018.04    -21243.06    1536.7476   -22779.808    32.993493   0.87555383 
    7400    230.45903   -390.21988    229018.04   -21247.836    1526.4131   -22774.249     33.21873   0.87555383 
    7500    227.21885   -218.48938    229018.04   -21264.943    1504.9522   -22769.895    33.483162   0.87555383 
    7600    236.10582   -142.87099    229018.04   -21269.106    1563.8138    -22832.92    33.753556   0.87555383 
    7700    235.94328   -134.45562    229018.04   -21221.939    1562.7373   -22784.677    34.128939   0.87555383 
    7800    236.43194   -106.27681    229018.04   -21175.248    1565.9738   -22741.222    34.488895   0.87555383 
    7900    240.63398   -347.39431    229018.04   -21153.401    1593.8055   -22747.207    34.718688   0.87555383 
    8000    240.32765   -309.26059    229018.04   -21136.452    1591.7765   -22728.228    34.948728   0.87555383 
    8100    242.20869   -251.27328    229018.04   -21167.501    1604.2354   -22771.736    35.013769   0.87555383 
    8200    241.92767   -282.28644    229018.04   -21208.204     1602.374   -22810.578    35.420847   0.87555383 
    8300    238.28841   -250.26333    229018.04   -21222.606    1578.2699   -22800.876    35.337578   0.87555383 
    8400    238.09924   -320.86181    229018.04   -21225.162     1577.017   -22802.179    35.471443   0.87555383 
    8500    241.67121     -111.857    229018.04   -21240.922    1600.6754   -22841.597    35.682893   0.87555383 
    8600    245.29124    -236.8635    229018.04   -21185.545    1624.6522   -22810.197    35.867913   0.87555383 
    8700    237.16829   -350.59023    229018.04   -21252.548    1570.8509   -22823.399    36.010182   0.87555383 
    8800    239.50438   -277.16408    229018.04   -21174.746    1586.3237    -22761.07    35.970585   0.87555383 
    8900    237.47332   -399.98286    229018.04    -21195.76    1572.8713   -22768.631    36.477892   0.87555383 
    9000    239.74873   -196.27624    229018.04   -21150.814    1587.9421   -22738.756    36.531344   0.87555383 
    9100    238.15498   -152.86588    229018.04   -21147.098    1577.3862   -22724.484    36.420379   0.87555383 
    9200    235.66559   -346.32359    229018.04   -21191.768     1560.898   -22752.666    36.807394   0.87555383 
    9300     230.7085   -433.93361    229018.04   -21221.155    1528.0654   -22749.221    37.327063   0.87555383 
    9400     238.1283   -385.10329    229018.04   -21252.326    1577.2094   -22829.535    38.140267   0.87555383 
    9500    241.85247   -208.27279    229018.04   -21204.356    1601.8759   -22806.232    38.251321   0.87555383 
    9600    230.34936    -347.8293    229018.04   -21269.274    1525.6868   -22794.961    38.341596   0.87555383 
    9700    235.51752   -340.84358    229018.04   -21211.969    1559.9173   -22771.886    38.207637   0.87555383 
    9800    239.46927   -269.31191    229018.04    -21216.53    1586.0912   -22802.621    38.123088   0.87555383 
    9900    240.41762   -404.57482    229018.04    -21157.37    1592.3724   -22749.742    38.240296   0.87555383 
   10000     244.8612   -288.92812    229018.04   -21081.108    1621.8039   -22702.911    38.447022   0.87555383 
Loop time of 14.8603 on 160 procs for 10000 steps with 8943 atoms

Performance: 290.707 ns/day, 0.083 hours/ns, 672.934 timesteps/s
97.7% CPU use with 160 MPI tasks x no OpenMP threads

MPI task timing breakdown:
Section |  min time  |  avg time  |  max time  |%varavg| %total
---------------------------------------------------------------
Pair    | 0.00046086 | 3.0552     | 12.037     | 235.1 | 20.56
Neigh   | 0.00039411 | 0.1021     | 0.3854     |  39.5 |  0.69
Comm    | 0.014047   | 4.0907     | 11.77      | 217.8 | 27.53
Output  | 0.17446    | 0.17465    | 0.18357    |   0.2 |  1.18
Modify  | 0.37627    | 7.2797     | 14.519     | 228.4 | 48.99
Other   |            | 0.158      |            |       |  1.06

Nlocal:    55.8937 ave 177 max 0 min
Histogram: 72 5 40 3 0 0 0 0 4 36
Nghost:    540.619 ave 970 max 0 min
Histogram: 24 0 0 8 6 53 21 16 22 10
Neighs:    0 ave 0 max 0 min
Histogram: 160 0 0 0 0 0 0 0 0 0
FullNghs:  5629.19 ave 22130 max 0 min
Histogram: 94 26 0 0 0 0 0 2 18 20

Total # of neighbors = 900670
Ave neighs/atom = 100.712
Neighbor list builds = 576
Dangerous builds = 0
write_data 	    ${DIR}/data.${NAME}_eq
write_data 	    run_18/data.${NAME}_eq
write_data 	    run_18/data.ibeam_cooling_18_eq

undump              1
unfix               4



################################################
#######         Run Simulation         #########
################################################

reset_timestep      0
timestep	    10.0
log                 ${DIR}/log.run_${NAME}
log                 run_18/log.run_${NAME}
log                 run_18/log.run_ibeam_cooling_18
