
# Set production fixes - Nose/Hoover
#
fix                 4 water temp/csvr ${START_TEMP} ${END_TEMP} 500.0 928347
fix                 4 water temp/csvr 240 ${END_TEMP} 500.0 928347
fix                 4 water temp/csvr 240 227 500.0 928347


## divide "droplet" into core and surface
#region		core_reg cylinder z 135 135 44.6 20 INF units box
#region		surface_reg cylinder z 135 135 44.6 20 INF units box side out
#group		core dynamic all region core_reg
#group		surface dynamic all region surface_reg

## compute pressure core
#compute        peratom_core core stress/atom NULL
#compute        p_core core reduce sum c_peratom_core[1] c_peratom_core[2] c_peratom_core[3]
#variable       press_core equal -(c_p_core[1]+c_p_core[2]+c_p_core[3])/(3*1249982.5)


## compute pressure surface
#compute        peratom_surf surface stress/atom NULL
#compute        p_surf surface reduce sum c_peratom_surf[1] c_peratom_surf[2] #c_peratom_surf[3]
#variable       press_surf equal -(c_p_surf[1]+c_p_surf[2]+c_p_surf[3])/(3*42395)

## compute total pressure of drop
compute        peratom water stress/atom NULL
compute        p water reduce sum c_peratom[1] c_peratom[2] c_peratom[3]
variable       press equal -(c_p[1]+c_p[2]+c_p[3])/(3*58301)


# compute order parameter
compute        3 all orientorder/atom nnn NULL cutoff 3.5

# compute center of mass of bridge
compute 	4 water com

# Run simulation
thermo_style        custom step c_2 press vol etotal ke pe v_press c_1[4] c_4[*]
thermo              200
dump		     1 water custom 400 ${DIR}/prod.${NAME}.dump id type x y z vx vy vz c_3[*] c_peratom[*]
dump		     1 water custom 400 run_18/prod.${NAME}.dump id type x y z vx vy vz c_3[*] c_peratom[*]
dump		     1 water custom 400 run_18/prod.ibeam_cooling_18.dump id type x y z vx vy vz c_3[*] c_peratom[*]
run                 ${STEPS}
run                 5200000
Neighbor list info ...
  update every 1 steps, delay 0 steps, check yes
  max neighbors/atom: 2000, page size: 100000
  master list distance cutoff = 6.67472
  ghost atom cutoff = 6.67472
  binsize = 3.33736, bins = 48 11 12
  2 neighbor lists, perpetual/occasional/extra = 1 1 0
  (1) pair sw, perpetual
      attributes: full, newton on
      pair build: full/bin/atomonly
      stencil: full/bin/3d
      bin: standard
  (2) compute orientorder/atom, occasional, copy from (1)
      attributes: full, newton on
      pair build: copy
      stencil: none
      bin: none
Per MPI rank memory allocation (min/avg/max) = 0.8537 | 5.989 | 7.146 Mbytes
Step c_2 Press Volume TotEng KinEng PotEng v_press c_1[4] c_4[1] c_4[2] c_4[3] 
       0     244.8612   -288.92812    229018.04   -21081.108    1621.8039   -22702.911   -621.97645    38.447022    78.599394    15.910933     29.74371 
     200     238.2995   -246.52317    229018.04   -21130.436    1578.3434   -22708.779   -462.32686    39.425665    78.596697    15.910281    29.751776 
     400    239.04652   -250.46391    229018.04   -21133.957    1583.2912   -22717.249    -467.3319    41.452712    78.594915    15.911369    29.737263 
     600    225.35524   -336.64595    229018.04   -21245.428    1492.6089   -22738.037    -844.5013    42.489682    78.594288    15.911632     29.72686 
     800     233.2244   -232.87078    229018.04   -21189.733    1544.7291   -22734.463    -456.0884     43.51058    78.594917    15.910964     29.71545 
    1000    243.38288   -467.96666    229018.04   -21068.921    1612.0124   -22680.934   -1368.5224    45.239654    78.593897    15.910956    29.720108 
    1200    237.49103   -150.12929    229018.04   -21158.065    1572.9886   -22731.054   -97.840255    46.118586    78.595476    15.908955    29.719475 
    1400    245.23814   -299.30289    229018.04   -21025.143    1624.3005   -22649.443   -718.55599    47.422141    78.596019    15.911438    29.726448 
    1600    241.39856   -375.08624    229018.04   -21062.312    1598.8696   -22661.182   -980.66214    49.712696    78.593897    15.912417    29.722876 
    1800    234.22201    -344.2101    229018.04   -21104.408    1551.3367   -22655.744   -892.77589    50.292014    78.592293    15.910293    29.713027 
    2000    246.92509   -311.81868    229018.04   -20989.028    1635.4738   -22624.501   -737.14954    50.558068    78.591625    15.909725    29.704411 
    2200    241.29772   -355.47097    229018.04   -21028.902    1598.2016   -22627.104   -891.27227    51.690309    78.589014    15.908911    29.703338 
    2400    236.67239   -212.08833    229018.04   -21063.275    1567.5664   -22630.842   -360.78379    52.300674    78.589482    15.905804      29.7184 
    2600    234.89784   -305.52832    229018.04   -21096.956    1555.8129   -22652.769   -708.55863    53.722972    78.589226    15.903105    29.745416 
    2800    241.59499   -232.71936    229018.04   -21089.441    1600.1706   -22689.612   -425.10636    54.831394     78.58804    15.903035    29.754749 
    3000    236.88231   -329.69942    229018.04   -21190.973    1568.9568    -22759.93    -788.0728    56.155122    78.588221     15.89988    29.769227 
    3200    241.36992   -148.43106    229018.04   -21192.273    1598.6799   -22790.953   -90.039193    57.022384    78.588751    15.898706    29.778632 
    3400    237.81511     -275.981    229018.04   -21119.122    1575.1351   -22694.257   -617.87484    59.143548    78.589214    15.898553    29.767752 
    3600    241.24108   -113.17303    229018.04   -21099.781    1597.8265   -22697.608    54.388922    61.464843    78.590762    15.898515    29.752759 
    3800    234.87007   -188.07126    229018.04   -21140.027     1555.629   -22695.656   -250.20742    63.555029    78.591513    15.897978    29.762901 
    4000    240.14838     -329.404    229018.04   -21155.258    1590.5892   -22745.847   -764.63472     65.56712    78.593699    15.897486    29.775463 
    4200    242.95021   -230.75618    229018.04   -21054.867    1609.1467   -22664.014   -439.71238    67.432656    78.596449    15.894504    29.774985 
    4400    243.22195   -285.62941    229018.04   -20972.824    1610.9465    -22583.77   -579.82289     69.02832    78.595609    15.895174    29.780662 
    4600    235.73313   -147.25501    229018.04    -21089.97    1561.3454   -22651.316    -96.04697     70.11726    78.595341    15.894191    29.812438 
    4800    238.24826   -208.84565    229018.04   -21066.028     1578.004   -22644.032   -334.59669    70.682443    78.595813    15.893114     29.79247 
    5000    237.59978   -276.70159    229018.04   -21129.452    1573.7088   -22703.161   -580.59485    72.018553    78.597405    15.892842    29.802221 
    5200    244.81215   -85.339436    229018.04   -21108.477     1621.479   -22729.956    148.12633    73.114098    78.598929    15.895401    29.813661 
    5400    241.75637   -304.36186    229018.04   -21117.148    1601.2394   -22718.388   -667.39347      74.8062    78.598611     15.89842    29.816177 
    5600     234.2622   -254.89395    229018.04   -21221.924    1551.6029   -22773.527   -509.10245    75.838196    78.597629    15.899055    29.817203 
    5800    241.80592   -217.13332    229018.04   -21075.019    1601.5677   -22676.587   -397.31881    76.814723    78.595689    15.899872    29.819973 
    6000    236.72821   -239.13763    229018.04   -21235.779    1567.9362   -22803.716   -474.52026    76.837506    78.595549    15.901134    29.833808 
    6200    237.27992   -327.44744    229018.04   -21150.368    1571.5903   -22721.959   -829.64012    79.048894    78.595646    15.902494    29.833144 
    6400    241.63952   -317.86768    229018.04   -21091.969    1600.4655   -22692.435   -767.79309    80.425457    78.598123    15.903189    29.834666 
    6600    235.34036   -57.941625    229018.04   -21167.281    1558.7439   -22726.025    238.69902    81.380252    78.597798     15.90148    29.842973 
    6800     240.0737   -304.57844    229018.04   -21144.437    1590.0945   -22734.532   -681.94327    82.370202    78.595969    15.899702    29.857454 
    7000     235.4822   -400.41033    229018.04   -21194.365    1559.6834   -22754.048   -1065.4311    84.446549    78.597522    15.897985    29.829195 
    7200     238.8909   -482.35976    229018.04   -21134.232    1582.2604   -22716.492   -1384.4162    86.691677    78.597136    15.895689    29.808311 
    7400    231.69457   -250.28701    229018.04    -21178.41    1534.5965   -22713.006   -476.34775    88.274649     78.59685    15.899638    29.800514 
    7600    234.05867   -409.93067    229018.04   -21198.165    1550.2548    -22748.42   -1114.3008     89.74729    78.596957    15.900553    29.782277 
    7800    242.54794   -321.77964    229018.04   -21112.023    1606.4823   -22718.505   -772.86759    91.964503    78.599188    15.901528    29.788733 
    8000    239.42898    -279.4842    229018.04   -21142.789    1585.8243   -22728.613   -598.36752    93.544408    78.598974    15.900687     29.78641 
    8200    234.41497   -452.29438    229018.04   -21228.646    1552.6147   -22781.261   -1257.8469    93.880363    78.599655    15.901902    29.781601 
    8400    232.88902    -176.5309    229018.04   -21217.943    1542.5078    -22760.45   -201.64991    94.723116    78.600278    15.905483    29.783533 
    8600    242.05538   -183.19941    229018.04   -21108.036    1603.2199   -22711.256   -235.13284    95.757061    78.602306    15.908086    29.775618 
    8800     240.5637   -279.81647    229018.04   -21141.739      1593.34   -22735.078   -634.36587    97.390429    78.604518    15.909819    29.799039 
    9000    238.13712   -203.73575    229018.04   -21131.866    1577.2679   -22709.134   -283.62965    98.401814    78.605632    15.909994    29.811689 
    9200    239.38468   -349.87086    229018.04   -21164.947    1585.5309   -22750.478   -866.41604    98.748905    78.606585     15.90732    29.817411 
    9400    236.97967   -318.21874    229018.04   -21232.509    1569.6016   -22802.111   -780.67453    100.05697    78.606957    15.905563    29.823102 
    9600    231.19308   -213.04568    229018.04   -21217.781     1531.275   -22749.056   -348.46123    101.08929    78.607337    15.902787    29.812044 
    9800    235.63869   -326.76315    229018.04   -21169.641    1560.7199   -22730.361   -806.02727    102.30701    78.605223    15.898644    29.798837 
   10000    249.63116   -103.01135    229018.04   -21017.753     1653.397    -22671.15    61.484021    103.77308    78.602612    15.896533    29.794832 
   10200    241.44076    -380.5297    229018.04   -21061.693     1599.149   -22660.842   -957.34762    105.48023    78.603312    15.897385    29.769111 
   10400    244.37739   -191.89563    229018.04   -21082.573    1618.5994   -22701.173   -268.87953    106.68925    78.603845    15.898071    29.754457 
   10600    249.89017   -273.85211    229018.04   -21067.452    1655.1126   -22722.565   -588.23109    107.94063    78.602191    15.896894    29.768149 
   10800    242.60568   -221.96157    229018.04   -21092.624    1606.8648   -22699.489   -390.94862    109.36924    78.602368    15.897507    29.770264 
   11000    240.93769   -304.01001    229018.04   -21106.581     1595.817   -22702.398   -699.33338    110.49388    78.601122    15.895401    29.770937 
   11200    239.36322   -265.20377    229018.04   -21097.379    1585.3887   -22682.768   -530.90283    111.55027    78.603013    15.893342     29.75678 
   11400     238.6733   -390.26913    229018.04   -21136.459    1580.8191   -22717.278   -1073.8144    112.97231    78.602063     15.89546    29.759347 
   11600    238.27288   -353.88137    229018.04     -21091.1    1578.1671   -22669.267   -873.50072      114.889    78.599857    15.897161    29.754607 
   11800    243.71302   -276.20276    229018.04    -21101.75     1614.199   -22715.949   -652.37696    116.83836    78.599025    15.896051     29.75015 
   12000    244.09373   -255.06911    229018.04   -21013.402    1616.7206   -22630.123   -500.70027    119.28225    78.597545    15.895981    29.726971 
   12200    239.97355   -320.09399    229018.04   -21105.985    1589.4312   -22695.416   -803.47425    120.32087    78.598618    15.898001    29.709574 
   12400    241.88366   -315.83288    229018.04   -21063.313    1602.0825   -22665.396   -738.97314    122.04756    78.598296    15.897647    29.694974 
   12600    242.54646   -289.43422    229018.04    -21032.13    1606.4725   -22638.602   -660.55475    122.75012    78.598935    15.895762    29.671341 
   12800    233.73829    -319.4102    229018.04   -21100.438    1548.1328   -22648.571   -764.40228    122.39888     78.59847     15.89711     29.66524 
   13000    232.15945   -340.25799    229018.04   -21123.164    1537.6756   -22660.839   -829.72541    123.17233    78.596596    15.897942    29.685738 
   13200    234.62558   -163.38836    229018.04   -21051.049    1554.0097   -22605.059   -95.400026    123.51087    78.595709    15.898939    29.677527 
   13400    247.63152   -108.87343    229018.04   -21031.346    1640.1527   -22671.499    45.633284    125.79115    78.595218    15.901667    29.688625 
   13600    245.08838    -348.1586    229018.04   -21070.647    1623.3086   -22693.955   -863.56076    128.28806    78.593388    15.902739    29.700785 
   13800    238.60047   -297.54967    229018.04   -21136.385    1580.3368   -22716.722   -675.02292    130.27095    78.595481    15.903053    29.701163 
   14000    241.14762     -380.524    229018.04   -21088.192    1597.2075   -22685.399   -1017.6089    131.74317    78.594975    15.902927    29.687897 
   14200    236.61301   -364.77795    229018.04   -21138.637    1567.1731    -22705.81   -937.03971    134.40005    78.594934    15.904308    29.690615 
   14400    228.65604   -274.01234    229018.04   -21192.072    1514.4713   -22706.543   -604.35896    135.77278    78.595672     15.90325    29.684157 
   14600    238.68176   -266.82107    229018.04   -21130.426    1580.8752   -22711.301    -561.4617    137.74739    78.598426    15.904254    29.695035 
   14800    243.36157   -271.33146    229018.04   -21092.955    1611.8712   -22704.826   -583.11991    138.85831    78.597511    15.905158    29.689248 
   15000    244.14597   -282.62427    229018.04   -21066.097    1617.0666   -22683.164   -646.13891    139.69563    78.597928    15.902202    29.672913 
   15200    236.32522    -307.3496    229018.04    -21157.48     1565.267   -22722.747   -692.39937     142.1751    78.597529    15.900483    29.685443 
   15400    239.89613    -294.9701    229018.04   -21098.214    1588.9184   -22687.132   -661.99901    143.63982    78.596045     15.89915    29.648257 
   15600    237.75971   -116.72769    229018.04   -21164.758    1574.7682   -22739.526    19.102516    145.02495    78.594626    15.898049    29.635592 
   15800    241.28826   -421.77408    229018.04   -21063.035     1598.139   -22661.174   -1119.4658    148.20011    78.595245    15.897086    29.636858 
   16000    233.72816   -242.06303    229018.04   -21095.218    1548.0657   -22643.283   -447.07183    150.46211    78.594387    15.899458     29.64784 
   16200    243.30951   -318.17923    229018.04   -21005.326    1611.5265   -22616.853   -762.98201    153.33891    78.594137    15.901481    29.632389 
   16400    243.20122   -220.05001    229018.04   -21020.681    1610.8092    -22631.49   -397.54386    153.68725    78.594441    15.902863    29.641894 
   16600    246.01301   -221.18581    229018.04   -21081.374    1629.4327   -22710.806   -393.51927    153.22212    78.594824    15.902165     29.62282 
   16800    239.85959   -247.39678    229018.04    -21069.25    1588.6764   -22657.926    -465.1896     155.3083    78.594543    15.901388     29.59463 
   17000    238.32051   -222.92385    229018.04    -21043.85    1578.4825   -22622.332   -394.78059    157.92954    78.593267    15.901274      29.5922 
   17200    237.61508   -402.59791    229018.04   -21083.362    1573.8102   -22657.172   -1028.3183     162.1442    78.591639    15.902696    29.602963 
   17400    241.11422   -204.51931    229018.04    -21048.15    1596.9863   -22645.136   -303.38942    163.03859    78.593868     15.90184    29.594003 
   17600    243.21056   -444.94722    229018.04   -20961.353    1610.8711   -22572.225    -1243.524    164.86168    78.591741    15.902529    29.595815 
   17800    237.92989   -332.51568    229018.04   -20964.206    1575.8953   -22540.102   -820.62574    168.17739     78.59063     15.90332    29.589107 
   18000    249.73056   -226.77062    229018.04   -21002.818    1654.0554   -22656.874   -394.24706    171.25009      78.5915    15.901784    29.587015 
   18200    242.73176   -21.928329    229018.04   -21040.439    1607.6998   -22648.139    449.37575    174.82452    78.591816    15.901664     29.59826 
   18400    238.93565   -207.93879    229018.04   -21092.763    1582.5568    -22675.32   -304.08991     177.3028    78.592336    15.903116    29.582399 
   18600    237.62972   -381.60705    229018.04   -21084.035    1573.9072   -22657.943   -1003.1147    177.19138    78.591301    15.902308    29.556181 
   18800    240.53259   -223.69815    229018.04   -21111.712    1593.1339   -22704.846   -387.78815    177.10105      78.5921    15.901816    29.535597 
   19000    232.39454   -311.04926    229018.04   -21123.377    1539.2327   -22662.609    -695.8295     176.8261    78.591623    15.903687    29.554302 
   19200    238.03583   -260.79908    229018.04   -21116.732     1576.597   -22693.329   -526.09616    177.33019    78.592396    15.907538    29.554992 
   19400    244.52707   -163.14675    229018.04   -21056.279    1619.5908   -22675.869   -152.45395    178.00878    78.593012    15.908967    29.579941 
   19600    241.58137   -226.89712    229018.04   -21108.177    1600.0804   -22708.258    -405.6487    178.01119     78.59176    15.907773     29.58417 
   19800     241.3339   -264.00564    229018.04    -21114.49    1598.4413   -22712.931   -543.16098    179.78569    78.593055    15.904469    29.568775 
   20000    238.43154   -417.76081    229018.04   -21151.454    1579.2179   -22730.672   -1117.1517    181.06707    78.592488    15.903458    29.567833 
   20200    241.39524   -265.86727    229018.04   -21134.089    1598.8475   -22732.936   -516.57168    182.90867    78.592815    15.904234    29.570726 
   20400    236.17343     -329.484    229018.04    -21235.26    1564.2616   -22799.522   -846.14308    184.98957    78.592524    15.903329     29.56612 
   20600    235.83578    -258.2095    229018.04    -21172.82    1562.0253   -22734.845    -539.0396    185.10534    78.589943    15.900642    29.574171 
   20800    238.39568   -283.64824    229018.04   -21127.788    1578.9804   -22706.768   -633.56268    187.27369    78.590803    15.902367    29.576944 
   21000    238.96663   -398.44202    229018.04   -21136.926     1582.762   -22719.688   -1074.7057    190.23424    78.591227    15.900171    29.571718 
   21200    243.44622   -363.88728    229018.04   -21041.457     1612.432   -22653.889   -936.49878    191.31214    78.591056    15.901421    29.576818 
   21400    233.68203   -319.72097    229018.04   -21143.708    1547.7602   -22691.468   -762.57412    193.66006    78.590121    15.901897    29.577267 
   21600    242.29909   -269.34518    229018.04   -21078.698    1604.8341   -22683.532   -567.62416    195.82339    78.590224     15.90405    29.601014 
   21800    242.05313   -218.85052    229018.04   -21109.439     1603.205   -22712.644   -341.72934      196.705    78.591325    15.903045    29.586861 
   22000    236.00933   -322.03286    229018.04   -21126.999    1563.1747   -22690.174   -781.58457    200.70551    78.589984    15.904046    29.565214 
   22200    239.60948   -325.49265    229018.04   -21128.166    1587.0198   -22715.186   -795.89699    201.87035     78.58995    15.902694    29.553926 
   22400    240.90378   -395.66445    229018.04   -21162.206    1595.5924   -22757.799   -1052.0921    201.67356    78.590487    15.901853    29.541712 
   22600     242.0276   -238.80657    229018.04   -21143.165    1603.0359   -22746.201   -448.10906    202.48971     78.59092    15.900464    29.541507 
   22800    245.73613   -310.87733    229018.04    -21091.92    1627.5988   -22719.519   -741.71179    203.72796     78.59115    15.898131     29.54644 
   23000    240.90556    -289.2435    229018.04    -21140.17    1595.6042   -22735.774   -641.12432    206.88334     78.58975    15.896434     29.55808 
   23200    239.43638   -272.25972    229018.04   -21123.986    1585.8733    -22709.86   -619.48881    207.38865    78.589063    15.895332    29.559365 
   23400    243.06915   -242.93335    229018.04   -21070.767    1609.9345   -22680.702   -496.70636    206.08504    78.588465    15.895025    29.559669 
   23600    237.94754    -286.7426    229018.04   -21180.489    1576.0122   -22756.501   -633.36763    205.64209    78.586606    15.894549    29.556651 
   23800    239.73292   -155.72686    229018.04   -21204.863    1587.8374     -22792.7   -110.00804    206.44734    78.587099     15.89756    29.578298 
   24000     237.7783    -205.1545    229018.04   -21094.541    1574.8913   -22669.432   -321.80298     206.6735     78.58461    15.899102    29.565958 
   24200    241.05361   -295.10217    229018.04     -21149.5    1596.5848   -22746.085   -673.19576    208.05105     78.58351    15.898766    29.560051 
   24400    238.72811   -331.27473    229018.04   -21080.095    1581.1822   -22661.277   -838.86707    209.00505    78.584034    15.900327    29.576688 
   24600    240.81894   -340.37497    229018.04   -21121.031    1595.0305   -22716.062   -859.56824    210.30689     78.58275    15.901543    29.588687 
   24800    235.03825   -418.53236    229018.04   -21108.568    1556.7429   -22665.311   -1148.7488    210.17059    78.583972    15.901191    29.576847 
   25000    244.06671   -374.69668    229018.04   -21077.021    1616.5417   -22693.563   -1038.4273    209.97509    78.585599    15.901635    29.597274 
   25200    242.57795   -171.51403    229018.04   -21103.146     1606.681   -22709.827   -190.05336    211.66859     78.58527    15.900624    29.617618 
   25400    234.96329   -219.74313    229018.04   -21125.772    1556.2464   -22682.018   -339.38191    213.12011    78.584829    15.898146    29.635567 
   25600    234.07115   -155.21313    229018.04   -21078.772    1550.3375    -22629.11   -128.91407    215.57372    78.585465    15.899305    29.631098 
   25800    240.49888   -362.07853    229018.04   -21087.586    1592.9106   -22680.497   -939.33028    216.79548    78.585784    15.900416    29.625935 
   26000    242.44472   -411.67672    229018.04   -21166.905    1605.7986   -22772.703   -1101.9604    217.57024     78.58657    15.900195    29.627835 
   26200    242.71522   -357.79506    229018.04   -21131.939    1607.5903    -22739.53   -929.94797     220.6843    78.589109    15.900034     29.61479 
   26400    237.93168   -236.60932    229018.04   -21234.662    1575.9071   -22810.569   -433.75727    220.44311    78.594053    15.900477    29.657628 
   26600    237.36936   -311.08779    229018.04   -21146.837    1572.1827    -22719.02   -752.24476    221.82956    78.594589    15.898531    29.692962 
   26800    241.73995   -328.51014    229018.04   -21087.847    1601.1307   -22688.978   -765.39788    223.02364    78.594763    15.898951     29.71149 
   27000    236.29411   -211.70305    229018.04   -21081.613     1565.061   -22646.674    -392.8216    223.54444    78.597711    15.896238    29.703988 
   27200    244.54713   -334.40149    229018.04   -20983.676    1619.7237   -22603.399   -783.38273    224.43822    78.595681     15.89482    29.716893 
   27400    241.98643   -208.82972    229018.04   -21018.495    1602.7633   -22621.258   -347.95891    224.20394    78.594927    15.894164    29.722433 
   27600    239.72997   -222.16687    229018.04   -21054.412    1587.8179    -22642.23   -348.70527     227.3213    78.594233    15.894742    29.701132 
   27800    230.27213   -236.58959    229018.04   -21157.628    1525.1752   -22682.804   -401.00414    230.21781    78.596931    15.894323    29.717603 
   28000    237.85132   -408.20581    229018.04    -21106.73    1575.3749   -22682.105   -1084.2761    232.97944    78.597373    15.892612    29.736908 
   28200    243.16761    -520.1645    229018.04   -21043.649    1610.5866   -22654.235    -1551.653    233.44447    78.598063    15.895914    29.754423 
   28400    244.93313   -402.78917    229018.04    -21051.99    1622.2803    -22674.27   -1022.3304    236.43727    78.598677    15.895312    29.750446 
   28600    242.02055   -363.18338    229018.04    -21042.37    1602.9892   -22645.359   -930.67877    239.87445    78.600465    15.895497    29.760599 
   28800    237.22914   -507.76091    229018.04    -21083.33     1571.254   -22654.584   -1481.9707    241.45635    78.599952    15.895643    29.753522 
   29000     243.5038    -162.9911    229018.04   -21061.918    1612.8133   -22674.731    -163.3395    244.20645    78.599826    15.896746    29.741137 
   29200    239.55507   -232.08192    229018.04    -21104.69    1586.6595    -22691.35   -363.65453    246.30276    78.600531    15.897373    29.745542 
   29400    245.34488   -274.17137    229018.04   -21098.722    1625.0074   -22723.729   -601.31064    248.43729    78.600779    15.897828    29.734011 
   29600    236.08462   -242.97159    229018.04   -21106.448    1563.6734   -22670.121   -438.15273    250.07682    78.599612    15.898858    29.753302 
   29800    241.42686   -389.69997    229018.04   -21099.311     1599.057   -22698.368   -1054.6684    251.48765    78.601372    15.895123    29.750573 
   30000    238.88837   -292.75907    229018.04   -21104.701    1582.2437   -22686.944   -651.26306    252.75588    78.600402    15.894352    29.758555 
   30200    241.87306    -331.7782    229018.04   -21147.253    1602.0123   -22749.265   -756.90665    255.62611    78.602588    15.894654    29.739986 
   30400    234.87879   -287.49943    229018.04   -21175.579    1555.6868   -22731.266   -650.50183    254.83753    78.604419     15.89246    29.723408 
   30600    233.33044    -238.5905    229018.04   -21238.357    1545.4315   -22783.789   -434.14867     255.9075    78.605747    15.894512    29.739563 
   30800    239.72733   -326.09776    229018.04   -21148.115    1587.8004   -22735.916   -727.68716    259.71191    78.605351     15.89513    29.734392 
   31000    236.88073   -380.61007    229018.04   -21109.346    1568.9463   -22678.292   -1051.2691    258.65316    78.606505    15.895084    29.731442 
   31200    245.91781     -499.813    229018.04   -21059.787    1628.8022   -22688.589   -1463.6896    259.80439    78.606359    15.894397     29.72904 
   31400    241.54174   -246.32441    229018.04   -21088.721    1599.8179   -22688.539   -428.95901    260.05875    78.605797    15.895011    29.716771 
   31600    251.09521   -400.33679    229018.04   -21070.864     1663.094   -22733.958   -1091.2315     261.5872    78.604523    15.893266    29.735692 
   31800    243.03124   -290.72416    229018.04   -21155.009    1609.6833   -22764.692   -635.04366    264.93011    78.604175    15.891587    29.703733 
   32000    238.15703   -326.43722    229018.04   -21128.361    1577.3997    -22705.76   -832.13823    266.93371    78.606056    15.890106    29.720841 
   32200    233.08202   -517.06521    229018.04   -21197.076    1543.7861   -22740.862   -1496.8055    267.95147    78.605757    15.887703    29.728828 
   32400    232.34014   -261.43232    229018.04   -21184.764    1538.8724   -22723.636   -551.69256    271.83813    78.607135    15.886453    29.743312 
   32600    234.12687   -232.44638    229018.04   -21177.511    1550.7065   -22728.217   -378.77938    272.68137    78.606247    15.885494    29.760887 
   32800    236.59047   -62.405067    229018.04   -21167.541    1567.0238   -22734.565    241.10973    271.60158    78.606773    15.884553    29.780068 
   33000    237.07582   -381.82003    229018.04   -21127.461    1570.2385   -22697.699   -1008.8614    272.97071    78.608655    15.886903    29.760765 
   33200    239.85525   -200.84887    229018.04   -21129.571    1588.6476   -22718.219   -304.54907    273.97472    78.608996    15.889779    29.780509 
   33400    233.89758   -461.24616    229018.04   -21137.368    1549.1879   -22686.556   -1318.9799    277.56979      78.6098    15.887213    29.776697 
   33600    236.16161   -272.73775    229018.04    -21207.87    1564.1833   -22772.053   -582.10076    278.32224    78.609303    15.886309    29.797051 
   33800    245.92866   -201.17862    229018.04   -21133.321     1628.874   -22762.195   -301.59116    280.34415    78.607532    15.883955    29.789219 
   34000    236.22538   -323.84362    229018.04   -21203.786    1564.6057   -22768.392   -775.80322    281.01148    78.609547    15.882866    29.773084 
   34200    235.84919    -115.4729    229018.04   -21167.249     1562.114   -22729.363    29.726088    281.19933    78.608965    15.884221    29.762788 
   34400    240.61094    -384.7463    229018.04    -21156.43    1593.6529   -22750.083   -1003.9449    284.17619    78.609218    15.881953    29.762509 
   34600    236.80004   -128.01499    229018.04   -21125.226    1568.4119   -22693.638   -30.612546    285.10176    78.609774    15.881414    29.758426 
   34800    245.22112   -383.34914    229018.04    -21104.55    1624.1877   -22728.738   -983.52078    287.38875      78.6101    15.880942    29.750229 
   35000    235.07933   -322.99662    229018.04   -21110.788     1557.015   -22667.803   -773.40549    290.61615    78.608805    15.881168    29.754921 
   35200    241.86321   -487.94951    229018.04    -21097.78    1601.9471   -22699.727   -1410.1765    293.40021    78.609096    15.880629    29.771332 
   35400    247.01842    -158.6968    229018.04   -21027.215    1636.0919   -22663.307     -135.316    293.88373    78.610224     15.87995    29.767234 
   35600    238.39308    -369.6713    229018.04   -21141.241    1578.9632   -22720.204   -939.93785    293.25083    78.609244    15.880228     29.78175 
   35800    238.48398   -236.89905    229018.04   -21054.841    1579.5652   -22634.406   -436.55563    295.34904    78.607175    15.878975    29.778798 
   36000    244.18061   -232.65377    229018.04   -21167.257    1617.2961   -22784.553   -438.44447    296.11601    78.607788    15.878901    29.776601 
   36200    235.00631   -340.37035    229018.04   -21172.398    1556.5314    -22728.93   -834.97985    297.81377    78.609498    15.877758     29.77038 
   36400    236.30348   -234.19465    229018.04   -21123.778     1565.123   -22688.901   -389.87589    299.51012    78.609142    15.877346    29.760018 
   36600    240.55053   -279.05447    229018.04   -21170.512    1593.2527   -22763.764   -549.09773    303.04737    78.609309    15.876772    29.767336 
   36800    244.72367   -263.99776    229018.04   -21168.113    1620.8929   -22789.006   -521.77595    302.52283    78.609893    15.875431    29.768981 
   37000    238.80953     -255.139    229018.04   -21118.229    1581.7215   -22699.951   -544.05815    301.95354    78.610946    15.874156    29.743208 
   37200    233.33814   -335.96159    229018.04   -21223.211    1545.4825   -22768.693   -796.97533     301.0789    78.610374     15.87411    29.726234 
   37400    240.56782   -242.56211    229018.04   -21172.496    1593.3672   -22765.863   -470.98623      302.463    78.608294    15.873243    29.730097 
   37600    244.34676   -399.24817    229018.04    -21122.57    1618.3966   -22740.966   -1085.2261    305.07128    78.609028    15.876838    29.709421 
   37800    234.85288   -424.58077    229018.04   -21185.129    1555.5152   -22740.644   -1164.6114    307.96123    78.608609    15.879061    29.699626 
   38000    239.30972    -127.2894    229018.04   -21133.935    1585.0344    -22718.97  -0.28411718    308.80643    78.608732    15.880807    29.705675 
   38200    242.59216   -274.21043    229018.04   -21130.372    1606.7752   -22737.147   -609.24124    310.34467    78.608862    15.881909    29.671782 
   38400    239.66763   -327.76096    229018.04   -21136.183     1587.405   -22723.588   -792.68166    313.23626    78.608668    15.883367    29.665137 
   38600    242.32421   -217.51517    229018.04   -21113.933    1605.0005   -22718.934   -327.98857    316.97537    78.609352    15.883475    29.625439 
   38800    242.07721   -392.40185    229018.04   -21109.131    1603.3645   -22712.496   -1011.7722    319.18418     78.60762    15.882944    29.618096 
   39000    243.68026   -421.45747    229018.04   -21087.152     1613.982   -22701.134   -1184.3026    319.40394    78.606101    15.883273    29.618572 
   39200    233.82301   -491.87332    229018.04   -21186.132    1548.6939   -22734.826    -1424.536    321.25861    78.605207    15.882373    29.623277 
   39400    239.49563   -155.68096    229018.04   -21153.993    1586.2658   -22740.259   -118.92099    321.81169    78.605603    15.882608     29.64056 
   39600    235.23925   -319.70075    229018.04   -21127.682    1558.0742   -22685.756   -783.13689    322.60429    78.606611    15.879471    29.653357 
   39800    245.14268   -82.366096    229018.04   -20960.189    1623.6682   -22583.857    156.69467    321.23223    78.604126    15.880928     29.66016 
   40000    235.90013   -434.62462    229018.04   -21073.292    1562.4514   -22635.743   -1238.0637    324.39475    78.601518    15.880445    29.673194 
   40200    238.01796   -356.83975    229018.04   -21195.638    1576.4786   -22772.116   -896.39446    322.37608    78.604219    15.877956    29.680046 
   40400    236.40821   -272.30112    229018.04   -21045.097    1565.8167   -22610.914   -588.27074    327.27964    78.603267    15.876705    29.681503 
   40600    236.05566   -203.16514    229018.04    -21174.45    1563.4816   -22737.931   -305.88936    331.53724    78.601618    15.877358     29.69188 
   40800    235.83488   -264.34971    229018.04   -21154.908    1562.0193   -22716.928    -495.6597    335.76772    78.600963    15.878747    29.692376 
   41000    244.42149   -280.92782    229018.04   -21111.136    1618.8915   -22730.027   -604.97851     335.0834    78.600883    15.879917    29.696069 
   41200    240.20124   -443.55741    229018.04   -21053.256    1590.9393   -22644.196   -1205.9974    339.12349    78.600303    15.879339    29.718536 
   41400    243.06998    -162.1566    229018.04   -21118.769    1609.9399   -22728.709   -149.45588    340.20943    78.599858    15.880249    29.729236 
   41600    245.81109   -123.94772    229018.04   -20996.457    1628.0953   -22624.553   -4.5790845    340.77315    78.600578     15.87707    29.708058 
   41800    239.00757    -406.7872    229018.04   -21117.167    1583.0332   -22700.201   -1097.9703    342.03258    78.600328    15.874679    29.696659 
   42000    238.54548   -28.751017    229018.04   -21156.965    1579.9726   -22736.937    390.83711     341.8719    78.601428    15.872905    29.707681 
   42200    238.34252   -459.30679    229018.04   -21101.431    1578.6283    -22680.06   -1263.5821    344.27132    78.600954    15.873122    29.707541 
   42400    244.04337   -212.81273    229018.04   -21118.819     1616.387   -22735.206   -355.25952    344.53526    78.600764    15.871727    29.702238 
   42600    238.31497   -383.10985    229018.04   -21171.504    1578.4458    -22749.95   -1000.2394    345.56767    78.602359      15.8693    29.677042 
   42800    247.93608   -181.23906    229018.04   -21056.885    1642.1699   -22699.055    -201.5026     347.7698    78.604044    15.867157    29.688035 
   43000    243.68734   -216.60238    229018.04   -21043.398     1614.029   -22657.427   -337.80997    347.57856    78.602526    15.867207    29.689067 
   43200    241.58488   -364.70932    229018.04   -21094.432    1600.1036   -22694.536   -936.95132    348.70051    78.605665    15.866384    29.699352 
   43400    243.50309   -396.20468    229018.04   -21132.397    1612.8086   -22745.205   -1088.6632    350.38509    78.605667    15.866333    29.710903 
   43600    238.93458   -462.66876    229018.04   -21154.089    1582.5498   -22736.639   -1319.6623    350.49597    78.608814    15.866282    29.706034 
   43800    240.70231   -313.78736    229018.04   -21110.622     1594.258    -22704.88   -743.93051    349.67862     78.60989    15.866428    29.698906 
   44000    241.84979   -243.33824    229018.04    -21177.98    1601.8582   -22779.839    -469.5454    350.37291    78.610224     15.86589     29.68962 
   44200    240.86377   -290.59083    229018.04   -21151.143    1595.3275   -22746.471   -627.00505    351.77015    78.609388    15.865976    29.695766 
   44400    240.19888   -283.63536    229018.04   -21118.529    1590.9237   -22709.453   -645.20253    354.80215    78.609145    15.867934     29.69164 
   44600    237.12001   -320.05029    229018.04   -21076.608    1570.5311   -22647.139   -784.00031    358.08959    78.610969    15.866632    29.701034 
   44800    238.94954   -241.96935    229018.04   -21115.225    1582.6488   -22697.874    -478.6302    360.22664    78.610813     15.86505     29.69408 
   45000    240.76651   -214.07899    229018.04   -21123.728    1594.6833   -22718.411   -342.44018    360.79127    78.612357    15.864082     29.67512 
   45200    244.52892   -281.73205    229018.04   -21013.672    1619.6031   -22633.275   -600.22904    362.27858    78.611951    15.864276    29.677508 
   45400    251.93228   -426.56297    229018.04   -20972.434    1668.6381   -22641.072    -1168.869    360.59493    78.614185    15.863911    29.676755 
   45600    249.44511   -294.29762    229018.04   -21006.186    1652.1647   -22658.351   -638.52832    361.00724    78.613186    15.862515    29.669632 
   45800    239.00546   -398.03186    229018.04   -21103.834    1583.0192   -22686.853   -1055.3325    362.11186    78.613474    15.863212    29.676307 
   46000    245.52001   -202.31705    229018.04   -21147.636    1626.1674   -22773.803   -276.41746    361.46449    78.612716    15.861263    29.680506 
   46200    240.75013   -303.61766    229018.04   -21073.756    1594.5748   -22668.331   -699.73292    362.78405    78.611672    15.861934     29.66945 
   46400    240.28073   -328.22673    229018.04    -21069.62    1591.4658   -22661.085   -770.99918    363.43145     78.61093    15.860955    29.670318 
   46600    243.55626   -231.89966    229018.04    -21114.28    1613.1608    -22727.44   -386.48878    367.27474    78.610999    15.859834    29.661604 
   46800    239.17079   -109.90356    229018.04   -21053.535    1584.1142    -22637.65    63.820408    372.78625    78.609682    15.859484    29.669495 
   47000    249.23821   -299.71843    229018.04   -20995.367    1650.7944   -22646.161    -678.4175    377.28971    78.607758    15.862458    29.660617 
   47200    243.56499   -316.56236    229018.04   -21076.778    1613.2186   -22689.996    -712.8323    377.96378    78.608428    15.864231    29.646978 
   47400    238.30103    -386.9733    229018.04   -21095.067    1578.3535   -22673.421   -1046.6634    380.22289    78.610877    15.865262    29.649776 
   47600    240.61988   -304.17289    229018.04   -21009.773    1593.7121   -22603.485   -703.64526    379.73801    78.609525    15.865902    29.657797 
   47800    238.49209   -277.92429    229018.04   -20996.353     1579.619   -22575.972    -606.8429    381.66627    78.608481     15.86624    29.666572 
   48000    241.44001   -187.02004    229018.04   -21019.775    1599.1441   -22618.919   -268.88017    383.69817    78.608638    15.867415    29.663762 
   48200    237.45443   -498.46241    229018.04   -21053.077    1572.7461   -22625.823   -1485.5078    384.35745    78.608323    15.869522    29.682691 
   48400    239.17278   -176.09228    229018.04   -21069.471    1584.1274   -22653.598   -203.42908    387.18916    78.608488    15.867521    29.680988 
   48600    240.77604   -480.50398    229018.04   -21058.221    1594.7464   -22652.967   -1381.6733    389.62163    78.610098     15.86624    29.689091 
   48800    241.80459   -149.07559    229018.04   -21029.414    1601.5589   -22630.973   -131.46152    392.71234    78.611062    15.867788    29.675024 
   49000    240.30621   -232.85079    229018.04     -21054.9    1591.6345   -22646.534   -400.17775    392.96374    78.612062    15.869786    29.671627 
   49200    243.39901   -314.31723    229018.04   -21070.245    1612.1193   -22682.364   -739.27274    394.45361    78.612385    15.870384    29.679176 
   49400    243.61929   -246.02747    229018.04   -21052.165    1613.5782   -22665.743   -475.22549    394.84618    78.610376    15.868845    29.691991 
   49600    245.58208   -211.04575    229018.04   -21087.182    1626.5785   -22713.761   -341.98864    397.50573    78.608331    15.867695    29.685525 
   49800    236.82533   -270.25775    229018.04   -21173.056    1568.5794   -22741.636   -538.78321      397.143    78.607449    15.867377    29.681489 
   50000    235.94524   -344.83926    229018.04     -21130.7    1562.7503    -22693.45   -853.87323    395.96194    78.607853    15.867857    29.675997 
   50200    244.16124   -239.21075    229018.04    -21134.12    1617.1677   -22751.287   -453.76014    396.77312    78.608156    15.868027    29.680442 
   50400     239.9591   -438.23133    229018.04   -21119.638    1589.3355   -22708.974   -1235.5417    398.70732    78.609251    15.868952    29.681203 
   50600    234.56801   -485.76312    229018.04   -21129.569    1553.6284   -22683.197   -1407.0337    400.93108     78.60983    15.871148    29.702278 
   50800    240.09194   -158.77768    229018.04   -21164.421    1590.2153   -22754.636   -130.50554    401.15726    78.608377    15.869469    29.695518 
   51000    238.98871   -301.42221    229018.04   -21140.931    1582.9083    -22723.84    -675.4541    401.89847     78.60766      15.8706    29.725248 
   51200     243.6711   -135.11464    229018.04   -21132.104    1613.9214   -22746.025   -36.294941    401.63278    78.608602     15.87444    29.742992 
   51400    234.62534    -182.2482    229018.04   -21135.344    1554.0081   -22689.352   -255.89517    403.40421    78.607834    15.877801    29.733593 
   51600    234.47919   -152.63464    229018.04   -21110.201    1553.0401   -22663.241    -112.4819    404.91576    78.606591    15.880322    29.726499 
   51800    240.93188   -236.83023    229018.04    -21090.06    1595.7785   -22685.839   -470.53468    407.17925    78.605148    15.877206    29.724504 
   52000    238.06818   -223.60502    229018.04   -21076.352    1576.8112   -22653.164   -398.05085    408.52051    78.606277    15.872595    29.732776 
   52200    240.94012   -321.01712    229018.04   -21084.301    1595.8331   -22680.134   -747.88058    412.67729    78.605095    15.871214    29.738216 
   52400    237.32831   -61.392687    229018.04   -21086.231    1571.9108   -22658.141    264.90011    414.73208    78.605544    15.870487    29.734973 
   52600    240.57334   -206.81046    229018.04   -21067.661    1593.4038   -22661.065   -334.98662    415.85891    78.605024    15.867858    29.745207 
   52800    235.79869   -286.03214    229018.04   -21168.952    1561.7796   -22730.731   -633.50387    414.58497    78.605557    15.867975    29.725894 
   53000     238.6101    -247.7609    229018.04   -21129.941    1580.4006   -22710.342   -493.46194    417.72527    78.603667    15.868656    29.738258 
   53200    240.86065   -354.98699    229018.04   -21114.563    1595.3068   -22709.869   -924.12305    419.64461    78.600897    15.868174    29.734874 
   53400    234.94592   -496.74951    229018.04   -21051.412    1556.1314   -22607.544    -1474.331    422.60551    78.601023    15.869679    29.728319 
   53600    237.15328   -250.44361    229018.04   -21079.658    1570.7515    -22650.41    -489.8132     424.3418     78.60304    15.871632    29.709813 
   53800    237.04341   -401.26553    229018.04   -21108.952    1570.0238   -22678.975   -1093.6328     426.5349     78.60216    15.869619    29.666692 
   54000    247.01447   -198.92195    229018.04   -21015.547    1636.0657   -22651.613   -276.39683     430.3482    78.601227    15.873508    29.681039 
   54200    237.41274   -283.74414    229018.04   -21131.611      1572.47   -22704.081   -646.37672    432.80604    78.600414    15.873104    29.682812 
   54400    232.74228   -314.68803    229018.04    -21152.18    1541.5359   -22693.716   -732.48691    431.50023    78.599992    15.873002    29.661258 
   54600    238.50051   -227.01969    229018.04   -21067.122    1579.6747   -22646.797   -387.45885    432.12195    78.599324    15.873822    29.664137 
   54800    240.31377   -430.43828    229018.04    -21045.78    1591.6846   -22637.464   -1219.9244    436.11137    78.599741     15.87339    29.656598 
   55000    242.71534   -125.61417    229018.04   -21116.387    1607.5911   -22723.978    -7.816472    437.94247    78.599525    15.873428    29.656438 
   55200    244.07177   -403.37792    229018.04   -21077.005    1616.5752    -22693.58   -1102.4505    438.54943    78.600569     15.87342    29.657168 
   55400    242.31248   -338.70219    229018.04   -21078.064    1604.9228   -22682.987   -827.42319    438.99195     78.60086    15.873754    29.658276 
   55600    242.23894    -84.73267    229018.04   -21040.166    1604.4357   -22644.602    163.81818    437.89552     78.59973    15.872725    29.668049 
   55800     238.4173   -245.30154    229018.04   -21095.122    1579.1236   -22674.245   -462.52649    438.79998    78.600374    15.874317    29.686811 
   56000    238.02854   -269.39947    229018.04   -21104.521    1576.5487    -22681.07    -578.1247    437.31543    78.601012    15.875913    29.681648 
   56200    238.54413   -370.92287    229018.04   -21042.582    1579.9637   -22622.546   -974.77733    438.37411    78.601731    15.876775    29.649996 
   56400    243.08612   -329.13042    229018.04   -21049.678    1610.0469   -22659.725   -785.72617    439.36193    78.600403    15.879604    29.664741 
   56600    237.54729   -204.53371    229018.04   -21133.554    1573.3612   -22706.915   -303.44352    439.55704    78.600082    15.879701    29.664807 
   56800     238.3597   -243.24477    229018.04   -21170.486    1578.7421   -22749.228   -434.58356    441.48163    78.599713    15.877143    29.649767 
   57000    234.66743   -300.18593    229018.04   -21229.584    1554.2869   -22783.871   -669.69997    440.93249    78.601035     15.87881    29.673455 
   57200    244.04247   -293.47536    229018.04   -21206.043    1616.3811   -22822.424   -717.09056    437.23423    78.600616    15.879682    29.711242 
   57400    232.46732   -244.53975    229018.04   -21233.408    1539.7148   -22773.123   -445.09965    435.70407    78.600845    15.882075    29.697526 
   57600    243.54603   -264.24203    229018.04   -21111.907     1613.093   -22725.001   -535.22333      435.695    78.599482     15.88515    29.693836 
   57800     241.7925   -151.41565    229018.04    -21110.72    1601.4788   -22712.198   -129.10616    436.01467    78.599508    15.886574    29.703882 
   58000    236.32799   -417.34981    229018.04   -21088.437    1565.2853   -22653.722   -1107.5705    439.22142    78.598411    15.888387    29.703875 
   58200    239.01064   -426.55073    229018.04   -21087.113    1583.0535   -22670.166    -1185.308    439.91653    78.600351    15.888147    29.705553 
   58400    238.72163   -114.01552    229018.04   -21182.055    1581.1393   -22763.194     62.86023    440.91916    78.601302    15.890279    29.686168 
   58600    241.48276   -314.03299    229018.04   -21129.869    1599.4272   -22729.296   -739.91569    443.17699    78.601477    15.891959    29.671855 
   58800      231.088   -293.52725    229018.04   -21153.146     1530.579   -22683.725   -644.01282    446.95811    78.601937    15.895764    29.683639 
   59000    240.83603   -250.09183    229018.04   -21169.092    1595.1437   -22764.236   -515.98309    448.42997    78.602328    15.897377    29.714419 
   59200     234.1898   -326.79744    229018.04   -21181.739    1551.1233   -22732.862   -807.36522    449.61662    78.602087    15.899277    29.722814 
   59400     239.2583   -219.95708    229018.04    -21144.69    1584.6939   -22729.384    -358.9266    451.18077     78.60174    15.899139    29.714927 
   59600    237.85853   -316.20333    229018.04   -21084.918    1575.4227    -22660.34   -789.47458    455.18572    78.602534    15.896694     29.71641 
   59800    240.77624   -366.24647    229018.04   -21013.739    1594.7477   -22608.486    -940.5549    456.55008     78.60231    15.897318    29.714756 
   60000    237.30435   -266.65124    229018.04   -21113.628    1571.7521    -22685.38   -567.68133    458.49742    78.603416    15.896781    29.703028 
   60200    247.52167   -432.01626    229018.04    -21071.69    1639.4251   -22711.115   -1242.5688    460.87111     78.60405     15.89526    29.693129 
   60400    231.88482    -338.7312    229018.04   -21142.225    1535.8566   -22678.082   -821.33533    460.26133    78.603281    15.894112    29.700055 
   60600    237.07275   -374.50901    229018.04    -21124.68    1570.2182   -22694.898   -981.91808    462.31272    78.602924    15.895377    29.687128 
   60800    240.79455   -300.86875    229018.04   -21186.709     1594.869   -22781.578   -694.67673    465.86212    78.602948    15.894138    29.697082 
   61000    231.79329   -412.56813    229018.04   -21209.173    1535.2504   -22744.423   -1109.1797    468.15066    78.603534    15.896738    29.712555 
   61200    238.15604   -334.39864    229018.04   -21296.161    1577.3932   -22873.554    -853.9144    469.42065     78.60459    15.899005     29.71014 
   61400    234.28342   -214.91761    229018.04   -21202.242    1551.7434   -22753.985   -335.79345    467.72104    78.606954    15.899483    29.708882 
   61600    236.98711   -340.35458    229018.04   -21146.139    1569.6509    -22715.79    -869.3646    470.63695    78.607314    15.900057    29.689875 
   61800    242.39727   -365.80589    229018.04    -21098.98    1605.4844   -22704.464   -963.26066    472.61239    78.608069     15.90026    29.694623 
   62000    239.38209   -211.79596    229018.04   -21196.886    1585.5138   -22782.399   -278.07502    475.06149    78.607381    15.900456    29.690704 
   62200     243.6992    -226.5352    229018.04   -21142.082    1614.1075    -22756.19   -373.77204    476.71076    78.607299    15.898483    29.683913 
   62400    248.32727   -180.38867    229018.04   -21100.422    1644.7609   -22745.182   -216.36695    479.45685    78.605986    15.898726    29.697161 
   62600    242.08088   -236.95699    229018.04   -21116.488    1603.3888   -22719.877   -432.99684     479.5103    78.607241    15.898272    29.689207 
   62800    240.42037   -241.71471    229018.04   -21099.909    1592.3907     -22692.3   -485.13831    480.41582    78.610643     15.89846    29.699607 
   63000    241.88292   -202.87912    229018.04   -21132.829    1602.0777   -22734.907   -310.14426    480.70279    78.611006    15.897995    29.692442 
   63200    231.08374   -421.90993    229018.04   -21255.151    1530.5508   -22785.702   -1170.6102     479.6415    78.610464    15.897418    29.688715 
   63400    237.33676    -274.1244    229018.04   -21133.048    1571.9668   -22705.015    -554.6359    483.91454    78.611169    15.898082    29.677329 
   63600     236.3511   -312.80249    229018.04   -21125.108    1565.4384   -22690.546   -712.95992    489.35455     78.61165    15.899116    29.693174 
   63800    240.13701   -476.68859    229018.04   -21063.468    1590.5139   -22653.982   -1386.3691    492.84953    78.612915    15.900183    29.693873 
   64000    233.97958   -249.62076    229018.04   -21119.303    1549.7309   -22669.034   -510.30012    495.16645    78.612813    15.899083    29.665556 
   64200    242.84812   -279.07973    229018.04   -21098.636    1608.4705   -22707.107   -596.30738    499.73566    78.610832    15.897342    29.667754 
   64400    238.74595   -312.04832    229018.04    -21060.37    1581.3003   -22641.671   -738.16536    500.31516    78.611302     15.89911    29.631674 
   64600    238.29337   -68.361831    229018.04   -21118.821    1578.3028   -22697.123    194.19562    501.39813    78.611232    15.901933    29.596325 
   64800    239.90482   -357.30815    229018.04    -21035.76     1588.976   -22624.736   -916.21316    500.12102    78.610773    15.902421     29.60485 
   65000    240.35579   -348.82023    229018.04    -21083.51    1591.9629   -22675.472   -868.67488    499.59819    78.610873    15.901591    29.603057 
   65200    240.10836    -271.6553    229018.04   -21100.671    1590.3241   -22690.996   -584.73312    500.16017     78.60916    15.903297     29.58569 
   65400    242.60802   -340.32978    229018.04   -20984.849    1606.8803   -22591.729   -845.88136    499.31397    78.608294    15.901272     29.58738 
   65600    239.79864   -227.11549    229018.04   -20988.891    1588.2727   -22577.164   -384.01792    500.69559     78.60758    15.902012     29.61988 
   65800    234.53937   -209.25102    229018.04   -21095.537    1553.4387   -22648.976   -309.75267    505.66189    78.606899    15.903055    29.629242 
   66000    237.71186    14.067979    229018.04   -21111.755    1574.4512   -22686.207    581.06208    510.30066    78.607689    15.904246    29.631863 
   66200    242.66274   -312.40381    229018.04   -21077.851    1607.2427   -22685.094   -708.89487    516.64755    78.608598    15.904963    29.637278 
   66400    237.37059   -214.40426    229018.04    -21145.85    1572.1908   -22718.041   -360.83463    521.95954    78.608778    15.906683    29.613291 
   66600    240.50715   -447.68246    229018.04    -21098.33    1592.9654   -22691.295   -1253.2393    526.96853     78.60728    15.908197    29.598751 
   66800    231.55758   -359.02717    229018.04   -21165.726    1533.6892   -22699.415    -925.2903    528.97829    78.607754    15.907819    29.596617 
   67000    240.16268   -306.96601    229018.04    -21109.43    1590.6839   -22700.114    -716.2831    527.63568    78.607527    15.906645     29.61026 
   67200    231.20231    -493.5981    229018.04   -21133.315    1531.3361   -22664.651   -1430.1657    530.61714    78.607346    15.906601    29.613127 
   67400    240.27581    -326.9378    229018.04   -21104.693    1591.4332   -22696.127   -813.12846    533.07688    78.608301    15.907367    29.600406 
   67600    240.88082   -380.58463    229018.04   -21172.038    1595.4404   -22767.478   -999.74453     537.2811    78.608727    15.907227    29.595644 
   67800    235.55616   -270.86765    229018.04   -21148.716    1560.1732   -22708.889   -582.44383    539.28516    78.610327    15.906761    29.599193 
   68000    237.16184   -315.58496    229018.04   -21144.701    1570.8082   -22715.509   -779.40076    538.56504    78.611207     15.91063    29.599731 
   68200    238.90395   -290.72567    229018.04   -21197.336    1582.3469   -22779.683   -676.57956    536.56849     78.60912    15.912355    29.588932 
   68400    242.98948   -357.37985    229018.04   -21061.224    1609.4068   -22670.631   -931.10835    535.61828     78.60829    15.914237    29.587489 
   68600    241.29063   -219.74223    229018.04   -21091.034    1598.1547   -22689.189   -371.72242    534.68283    78.608714    15.914652    29.571287 
   68800    244.89087   -315.34592    229018.04   -21075.713    1622.0004   -22697.714   -730.32271    535.27394    78.609675    15.914754    29.563168 
   69000    241.60105   -387.96714    229018.04   -21045.511    1600.2107   -22645.722   -1038.8223    535.99724    78.610496    15.914951    29.546733 
   69200    240.13373   -244.48149    229018.04   -21075.319    1590.4921   -22665.811   -469.06551    536.27742    78.611246    15.915225    29.550986 
   69400    240.82789   -245.06595    229018.04   -21083.081    1595.0898   -22678.171   -463.24917    535.01042    78.610805    15.915997    29.563633 
   69600    239.96979    -153.3934    229018.04   -21088.641    1589.4063   -22678.047   -137.24411    534.57789    78.610277    15.913764    29.587901 
   69800    244.13091   -359.49654    229018.04    -21093.77    1616.9669   -22710.736   -897.87352    536.73242     78.61021    15.911566    29.596218 
   70000    236.32425   -420.40968    229018.04   -21166.086    1565.2605   -22731.346    -1102.776    536.83079    78.608394    15.908219    29.578054 
   70200    235.17563   -91.690111    229018.04   -21170.724    1557.6529   -22728.377    128.57967    539.59343    78.611699    15.907146    29.570531 
   70400    239.38629   -391.00911    229018.04   -21142.276    1585.5416   -22727.817   -1042.9446    544.08871    78.614028    15.907897    29.569689 
   70600    243.36086   -265.74281    229018.04   -21077.596    1611.8665   -22689.463   -558.06909    546.80936    78.614747    15.908736    29.543173 
   70800    240.05706   -309.70181    229018.04   -21134.237    1589.9843   -22724.221   -716.65909    545.01051    78.616799    15.910839     29.52675 
   71000    244.62991   -346.36262    229018.04   -21086.174    1620.2719   -22706.446   -887.97403    541.64146    78.615027    15.909573    29.520317 
   71200     241.1353   -390.79935    229018.04   -20969.619    1597.1259   -22566.744    -1003.986    540.49291    78.613609    15.911672    29.493877 
   71400    244.40049   -446.32818    229018.04   -21027.288    1618.7524   -22646.041    -1257.274    541.52056    78.613447     15.91287    29.513796 
   71600    242.91388    -186.8149    229018.04    -21075.64    1608.9061   -22684.547   -218.06172    543.89848    78.613492    15.913685    29.504536 
   71800    242.88771   -216.93715    229018.04   -21092.148    1608.7327    -22700.88   -387.32683    544.88689    78.611805    15.915346     29.50196 
   72000    241.79539   -279.11155    229018.04   -21108.818    1601.4979   -22710.316   -634.76658    545.26727    78.611908     15.91858    29.490938 
   72200    241.78194   -300.46472    229018.04   -21107.456    1601.4088   -22708.865   -731.26286    547.73572    78.611737    15.919199    29.498849 
   72400    248.47915   -224.08168    229018.04   -21061.896    1645.7668   -22707.663   -358.74377    550.05362    78.611208    15.918746    29.518385 
   72600    240.96379   -335.65491    229018.04    -21118.51    1595.9899     -22714.5   -844.05289    554.64276    78.610585    15.919833    29.508274 
   72800    242.89308   -498.96379    229018.04   -21149.216    1608.7683   -22757.984   -1427.6031    557.85482    78.611706    15.920287    29.514531 
   73000    237.73788   -209.07085    229018.04   -21163.701    1574.6235   -22738.324   -332.73733    559.91936    78.611137    15.917984    29.504635 
   73200    250.38858   -417.50694    229018.04   -21063.525    1658.4137   -22721.939   -1097.5381    559.21911    78.613904    15.916318    29.521662 
   73400    244.36912   -314.05144    229018.04   -21050.185    1618.5447    -22668.73    -715.9569    557.34866    78.615445    15.915509    29.501767 
   73600    240.40982    -219.8583    229018.04   -21116.456    1592.3208   -22708.776   -368.77354    554.04456    78.613759    15.918904    29.499655 
   73800    246.30535   -192.74877    229018.04   -21080.425     1631.369   -22711.794   -233.37618    553.67601    78.614371    15.918851    29.469118 
   74000    249.39778   -345.81098    229018.04   -21009.106    1651.8512   -22660.958   -859.80751      557.164      78.6135     15.91823    29.463981 
   74200    241.58623    -363.9422    229018.04   -21096.487    1600.1126   -22696.599   -915.08398     560.9271    78.613811    15.916744    29.459513 
   74400    241.07871   -264.59541    229018.04   -21138.193    1596.7511   -22734.944   -522.47138    561.16362     78.61393    15.916253    29.466569 
   74600     240.3785     -202.134    229018.04   -21159.556    1592.1133   -22751.669   -283.00256    561.60124    78.615111    15.915814    29.486631 
   74800    238.27471   -266.02058    229018.04   -21104.641    1578.1791    -22682.82   -556.70419    561.63382    78.615965    15.916147    29.480298 
   75000    235.21884   -314.93059    229018.04   -21091.607     1557.939   -22649.546   -755.68811    563.06412    78.614309    15.918176     29.49502 
   75200    239.68166   -334.02643    229018.04   -21075.525    1587.4979   -22663.023   -800.81195    566.04554    78.613867    15.917952    29.465244 
   75400    244.13975   -266.94935    229018.04   -21049.829    1617.0254   -22666.854     -557.498    566.63746    78.612934    15.918445     29.45083 
   75600    243.10687   -279.67903    229018.04   -21060.063    1610.1843   -22670.247    -610.4551    566.76027    78.613147    15.919025    29.434259 
   75800    233.86904   -357.38594    229018.04   -21083.536    1548.9988   -22632.535   -904.75135    567.57481    78.613823    15.919812    29.430613 
   76000    240.84864   -235.62007    229018.04   -21103.469    1595.2272   -22698.696    -451.5266    568.85802    78.614488    15.918912    29.463499 
   76200    233.59196   -310.81316    229018.04   -21168.185    1547.1637   -22715.348   -675.97843    568.60152    78.616282    15.920321    29.459036 
   76400    230.49282   -411.92383    229018.04   -21214.211    1526.6369   -22740.848   -1115.6599    570.11586    78.617385    15.920287    29.463051 
   76600    239.09337   -302.17728    229018.04   -21155.236    1583.6015   -22738.837    -665.4606    568.87183    78.617437    15.920175    29.478074 
   76800    240.66049   -38.685357    229018.04   -21056.961     1593.981   -22650.942    329.57096    569.33835    78.616587     15.91772     29.48283 
   77000    239.77549   -297.04713    229018.04   -21141.733    1588.1194   -22729.852   -698.88501    571.35359    78.617239    15.917703     29.49072 
   77200    239.15538   -508.14259    229018.04   -21160.303    1584.0121   -22744.315   -1516.6579    570.62485    78.618168    15.917876    29.492522 
   77400    239.01668   -240.89044    229018.04   -21175.762    1583.0935   -22758.856   -428.41199    568.65854     78.61883    15.919226    29.486319 
   77600    244.12844   -439.38173    229018.04   -21140.503    1616.9505   -22757.453   -1191.3897    570.05917    78.619055    15.922755    29.462365 
   77800    237.37799   -271.04877    229018.04   -21191.138    1572.2399   -22763.378   -577.24049    570.31519    78.618137    15.921038    29.456289 
   78000    233.27173   -256.63581    229018.04   -21207.204    1545.0426   -22752.246   -554.24747    574.54251    78.616918    15.919547    29.451438 
   78200    241.45461   -147.06916    229018.04   -21137.497    1599.2408   -22736.738   -71.893865    576.29379    78.616844    15.919371    29.438616 
   78400    238.95233   -239.54991    229018.04   -21134.573    1582.6673    -22717.24   -472.10635    577.37705    78.616078    15.917332    29.419339 
   78600    234.83494   -342.56846    229018.04   -21183.011    1555.3963   -22738.407   -871.55054    576.32849    78.616131    15.916555    29.409631 
   78800    237.95235   -169.72059    229018.04   -21129.886    1576.0441    -22705.93   -194.39886    575.29143    78.613729    15.916907    29.388447 
   79000    244.63204   -334.27866    229018.04   -21120.981    1620.2861   -22741.267   -817.82872    576.70453    78.612589    15.917691    29.405987 
   79200    242.34923   -284.20828    229018.04   -21113.408    1605.1662   -22718.574   -655.99437    578.55302    78.613969    15.917139    29.401315 
   79400    239.41862   -401.51306    229018.04   -21150.318    1585.7557   -22736.074   -1100.6656    578.34695    78.613946     15.91631     29.38679 
   79600    239.04203   -288.02208    229018.04   -21120.429    1583.2614   -22703.691   -625.04713    581.40541    78.615009    15.914766    29.389081 
   79800    244.11082   -168.82639    229018.04   -21119.697    1616.8338    -22736.53   -172.47707    584.34833    78.615132    15.912509    29.380187 
   80000    240.22042   -336.79782    229018.04   -21211.171    1591.0663   -22802.237   -843.56414     588.1835    78.615031    15.912603    29.369369 
   80200    240.71002   -189.36878    229018.04   -21186.462    1594.3091   -22780.771   -255.47555    591.62431    78.613568    15.910113    29.358648 
   80400     231.8816   -153.32977    229018.04   -21222.073    1535.8353   -22757.908   -108.08812    592.26754    78.611852    15.906114    29.355274 
   80600    246.52817   -267.98557    229018.04   -21016.584    1632.8448   -22649.429   -596.78538    597.76261    78.610252    15.904781    29.342127 
   80800    243.37568   -134.26735    229018.04   -21118.062    1611.9648   -22730.027   -39.581178    600.02158    78.609829    15.904564    29.342584 
   81000    240.58399   -276.79646    229018.04   -21057.684    1593.4744   -22651.158   -580.60022    604.55608    78.608704    15.904925    29.363509 
   81200    243.41886   -316.79675    229018.04   -21038.448    1612.2507   -22650.698   -736.92327    603.50809    78.607449    15.903001    29.353313 
   81400     237.9516   -283.20772    229018.04   -21129.336    1576.0391   -22705.376   -615.03467    606.43112    78.606383    15.901561    29.372981 
   81600    243.21039   -347.20056    229018.04   -20996.097      1610.87   -22606.967   -838.70944    604.23536    78.604956    15.901903    29.410714 
   81800    241.78523   -195.87646    229018.04   -20992.655    1601.4306   -22594.085   -298.51738    600.54766    78.605255    15.901979    29.378115 
   82000    247.26585   -351.87683    229018.04   -20985.115    1637.7307   -22622.845   -899.26533    601.47024    78.603547    15.899608    29.381462 
   82200    238.65196    -102.7356    229018.04   -21125.589    1580.6778   -22706.267    118.83288    600.57468    78.602446     15.89453    29.389506 
   82400    237.83507   -166.11058    229018.04   -21141.608    1575.2673   -22716.875   -165.24181     600.5866    78.601838    15.892952    29.403855 
   82600    238.62447    -423.3492    229018.04   -21134.126    1580.4958   -22714.622   -1175.7178    598.29905    78.601786    15.894279    29.399082 
   82800    244.71863   -222.05303    229018.04   -21121.404    1620.8596   -22742.264   -374.00312    597.39195    78.601093    15.895716    29.371737 
   83000    239.16572   -223.81726    229018.04   -21175.059    1584.0807    -22759.14    -392.8966    600.05823    78.601152    15.898924    29.352208 
   83200    240.31232   -439.40805    229018.04   -21173.195     1591.675    -22764.87   -1243.5705    603.10174    78.602144     15.89975    29.378187 
   83400    239.75717   -141.05944    229018.04   -21192.697     1587.998   -22780.695   -50.216979    603.06539    78.604826    15.900767    29.376062 
   83600    241.52446   -249.04817    229018.04   -21144.859    1599.7034   -22744.562   -531.10837    608.77905    78.605698    15.903053    29.380603 
   83800    242.93283   -176.34669    229018.04   -21146.693    1609.0316   -22755.724   -257.77998    612.62352    78.603825    15.903443    29.364727 
   84000    231.82478   -340.61298    229018.04   -21154.136     1535.459   -22689.595   -880.27947    614.89513     78.60342    15.901509    29.356125 
   84200     233.0361    -390.5411    229018.04    -21150.78     1543.482   -22694.262   -1052.7495    616.26054    78.602765    15.902058    29.358286 
   84400    244.09744   -275.15489    229018.04   -21080.953    1616.7452   -22697.698   -557.69993    618.23851    78.601968    15.902425    29.376579 
   84600    242.67422   -240.10911    229018.04   -21083.128    1607.3187   -22690.447   -443.29316    626.74173    78.602972    15.902259    29.389753 
   84800    234.33748   -454.22817    229018.04   -21185.878    1552.1015   -22737.979   -1296.0383    631.65624    78.602878    15.904913    29.367493 
   85000    237.79907   -330.26755    229018.04   -21107.492    1575.0288   -22682.521   -816.93529    630.96326    78.603238    15.910164    29.362068 
   85200    241.83693   -226.06619    229018.04    -21058.58     1601.773   -22660.353   -425.46114    631.88793    78.602407    15.912536    29.389063 
   85400    244.20982   -373.38315    229018.04   -21096.937    1617.4896   -22714.427   -1013.7044    633.58701    78.601291     15.91326    29.404841 
   85600    239.13828   -406.51007    229018.04   -21096.846    1583.8989   -22680.744   -1072.0243    637.68028    78.598192    15.915813    29.411328 
   85800     240.7693   -324.14873    229018.04   -21068.095    1594.7017   -22662.796     -800.606    641.44765    78.597454    15.918796    29.393197 
   86000    244.77726   -190.30667    229018.04   -21017.244    1621.2479   -22638.492   -246.37564    643.95647    78.598192     15.91992    29.395585 
   86200    249.08771   -243.00456    229018.04   -21121.376    1649.7975   -22771.174   -471.54396    646.93036    78.598898    15.920566    29.393635 
   86400    241.39164   -297.41024    229018.04   -21114.931    1598.8237   -22713.754   -667.90206     650.6778     78.59921    15.922347    29.385642 
   86600    242.86754   -374.04766    229018.04   -21056.126    1608.5992   -22664.726   -1002.6789    651.74554    78.599868    15.923364    29.398428 
   86800    240.83203   -550.57114    229018.04   -21118.097    1595.1172   -22713.214   -1672.8201    653.75413    78.599985    15.923034    29.397468 
   87000    237.86016   -280.26267    229018.04   -21122.946    1575.4334   -22698.379   -643.61107    655.78295    78.598256    15.924375    29.397395 
   87200    239.03659   -420.21656    229018.04    -21076.81    1583.2254   -22660.036   -1168.1788    657.45458    78.598646    15.925071     29.37545 
   87400    246.37694   -97.064495    229018.04    -21107.49    1631.8432   -22739.333    83.933237    660.54554    78.598838    15.925511    29.370564 
   87600    242.48369   -140.96627    229018.04    -21082.85    1606.0567   -22688.907   -74.906852    663.22552    78.598895    15.925127    29.383115 
   87800    232.93511   -362.76671    229018.04   -21239.146    1542.8131   -22781.959   -945.65019    664.92742    78.601394    15.926799    29.384956 
   88000    245.31654   -118.83297    229018.04   -21070.976    1624.8197   -22695.796    51.154974    665.51936    78.603748    15.929079    29.394964 
   88200    241.98076   -164.85899    229018.04   -21037.355    1602.7257   -22640.081   -163.82294    668.84884    78.603354    15.930002    29.397189 
   88400    241.30863   -469.59755    229018.04   -21049.968    1598.2739   -22648.242   -1332.4237    670.74998    78.602943    15.929282    29.392908 
   88600    239.03428   -188.16629    229018.04   -21161.087    1583.2101   -22744.297   -258.49531    667.03238    78.602548    15.929649    29.389251 
   88800    239.28987   -372.63582    229018.04    -21197.24    1584.9029   -22782.143    -981.3774    665.78588    78.603237    15.929293    29.369507 
   89000    229.61801   -238.58657    229018.04   -21264.491    1520.8427   -22785.334   -439.53297     664.9846    78.601933     15.93223    29.359452 
   89200    237.07167   -311.00579    229018.04   -21211.046     1570.211   -22781.257   -743.00407    666.61569    78.604882    15.935038    29.355999 
   89400    243.45755   -167.50542    229018.04   -21117.005     1612.507   -22729.512   -139.81086    667.85229    78.605399     15.93836     29.35083 
   89600    235.63772   -390.01733    229018.04   -21235.957    1560.7135   -22796.671    -1027.624    671.65694    78.607619     15.94132    29.344595 
   89800     235.2251   -490.36331    229018.04   -21174.879    1557.9805    -22732.86   -1460.0351    677.86144    78.608538    15.938752    29.341747 
   90000    241.35009   -169.77187    229018.04   -21121.029    1598.5485   -22719.577   -155.42234      679.531     78.60758    15.937019    29.337968 
   90200    241.55819   -359.92553    229018.04   -21151.144    1599.9268   -22751.071   -915.15155    682.86628    78.607852    15.937832    29.315674 
   90400    238.73938   -267.25437    229018.04    -21185.03    1581.2569   -22766.286   -595.96319    682.53918    78.609047    15.937318    29.336626 
   90600    236.73692    -399.8297    229018.04   -21158.465    1567.9938   -22726.459   -1086.3696     680.5802    78.609537    15.935492     29.33353 
   90800    245.86927   -207.53671    229018.04   -21044.958    1628.4806   -22673.438   -298.64214    677.38352    78.610299    15.935918    29.343255 
   91000    239.01558   -229.70184    229018.04   -21142.403    1583.0862   -22725.489   -429.57802    677.68464     78.60958      15.9355    29.364109 
   91200    233.74618   -240.27561    229018.04   -21122.136    1548.1851   -22670.321    -523.5793    679.17949    78.607732    15.936034     29.36787 
   91400    245.11032   -259.59841    229018.04   -21107.992    1623.4539   -22731.446   -504.25944    681.62412    78.607826    15.935331    29.388957 
   91600    239.94062   -191.79457    229018.04    -21107.26    1589.2131   -22696.473   -285.44841    681.57366    78.608472    15.935492    29.401849 
   91800    240.59064   -281.21037    229018.04   -21074.207    1593.5184   -22667.725   -580.37217    685.87284    78.607699    15.936579    29.386936 
   92000    236.06528    -411.0786    229018.04   -21107.959    1563.5453   -22671.505   -1110.2758    691.63648    78.608822     15.93636    29.408969 
   92200     240.8383   -278.41094    229018.04   -21123.419    1595.1588   -22718.577   -587.39493    693.58848    78.609199     15.93638    29.413537 
   92400    242.52795   -379.17764    229018.04   -21080.608    1606.3499   -22686.958    -970.7713    695.16605    78.607711     15.93736    29.405862 
   92600    244.07313   -324.72745    229018.04   -21103.575    1616.5842   -22720.159   -779.21158    698.08197      78.6074    15.940176    29.399442 
   92800    232.28428   -160.91696    229018.04   -21194.876    1538.5024   -22733.378   -158.63823    693.70727    78.604676    15.942601    29.391819 
   93000    236.48145   -260.68344    229018.04   -21190.458    1566.3018   -22756.759   -506.60753    691.54295    78.604553    15.945309    29.385437 
   93200    235.24658   -294.21477    229018.04   -21107.671    1558.1228   -22665.794   -664.00271    692.88752    78.605195      15.9459    29.374045 
   93400    230.31724   -306.73138    229018.04   -21179.319     1525.474   -22704.793   -666.37515    695.34715    78.603805    15.948349    29.362194 
   93600    236.76287   -305.13658    229018.04   -21178.612    1568.1657   -22746.778   -692.29954    694.60624    78.606512    15.948952    29.363065 
   93800    238.18194   -125.73366    229018.04   -21106.891    1577.5647   -22684.455   -47.009077    693.52063     78.60897    15.952723    29.372282 
   94000    236.37016   -202.60864    229018.04   -21130.767    1565.5647   -22696.332   -316.81564    694.18723     78.60828    15.952862    29.398382 
   94200    238.26108   -349.18937    229018.04   -21148.315    1578.0889   -22726.404   -892.03588    695.60947    78.609831    15.951242    29.428438 
   94400    244.25489   -198.82948    229018.04   -21080.162     1617.788    -22697.95   -301.24922    695.92548    78.610208    15.951675    29.451151 
   94600    237.58639   -335.29631    229018.04   -21116.192    1573.6202   -22689.812   -812.59246    700.84553    78.610848     15.95017    29.433016 
   94800    248.52964   -333.44596    229018.04   -21040.051    1646.1012   -22686.153   -827.14175    703.40844    78.612178    15.948378    29.438148 
   95000    245.43894   -112.71715    229018.04   -21056.306    1625.6305   -22681.936    38.641372    701.64775    78.611494    15.948101    29.431739 
   95200    233.27566   -354.65196    229018.04   -21122.432    1545.0686     -22667.5   -859.06883    706.19068    78.609993    15.950344    29.427001 
   95400    240.51649   -337.55289    229018.04   -21124.136    1593.0273   -22717.163    -811.0459    711.97041    78.612606    15.949446    29.416017 
   95600     239.2799   -283.63585    229018.04   -21114.732    1584.8369   -22699.568   -626.62821    715.72034    78.614067    15.949909    29.395213 
   95800    238.85909   -393.90104    229018.04   -21060.916    1582.0497   -22642.966   -1025.1407    719.02176    78.614374    15.950859    29.395517 
   96000    240.07882   -89.417282    229018.04   -21116.457    1590.1285   -22706.586    157.16832    719.27227     78.61618    15.955314    29.394135 
   96200    237.69468   -391.92064    229018.04   -21161.619    1574.3374   -22735.956     -1019.86    719.42369    78.617584    15.958617    29.418549 
   96400    235.36137   -282.59768    229018.04   -21087.692    1558.8831   -22646.576    -571.1469    720.13519    78.619133    15.956985    29.417036 
   96600    232.85514   -354.54779    229018.04   -21185.846    1542.2834   -22728.129   -873.86359    720.46893    78.620947    15.956609     29.41411 
   96800    233.55584   -424.97707    229018.04   -21147.275    1546.9244   -22694.199   -1156.4514       719.96    78.622999     15.95539    29.423261 
   97000    243.74726   -265.13681    229018.04   -21112.377    1614.4258   -22726.802   -533.51378     720.9057    78.623261    15.956371     29.44697 
   97200     241.2875   -371.21753    229018.04   -21074.886     1598.134    -22673.02   -958.51249    723.94007    78.622237      15.9568    29.437294 
   97400    237.37637   -322.70177    229018.04   -21068.945    1572.2292   -22641.174   -812.70274    727.43991    78.619252    15.954638    29.445054 
   97600    239.43478   -181.72946    229018.04    -21061.22    1585.8627   -22647.083   -194.27945    724.54473    78.618186    15.952482    29.454369 
   97800    236.62754   -305.15548    229018.04   -21110.702    1567.2693   -22677.971   -730.46201    725.60925    78.617653     15.94968    29.454342 
   98000    233.22227   -338.04238    229018.04   -21177.808     1544.715   -22722.523   -816.84078    724.85347    78.616568     15.94986    29.454327 
   98200    233.91639   -342.65889    229018.04   -21174.582    1549.3125   -22723.894   -817.98632    724.25002    78.614006    15.949604    29.441483 
   98400    237.18565   -397.45898    229018.04    -21106.87     1570.966   -22677.836   -1046.6044    724.08874    78.614815    15.951005    29.428715 
   98600    240.41471   -223.31633    229018.04   -21088.164    1592.3532   -22680.518   -366.33179    723.75373    78.613888    15.952432     29.42946 
   98800    247.76942   -287.84947    229018.04   -20987.202     1641.066   -22628.268   -588.58454    727.11361    78.614088    15.952339    29.419452 
   99000    248.24564   -326.71315    229018.04   -20946.436    1644.2202   -22590.657    -741.5948    732.29585    78.615371    15.949326    29.430005 
   99200    242.97521   -300.35029    229018.04   -21019.042    1609.3122   -22628.354   -680.80297    734.33498    78.615083    15.947068    29.410294 
   99400    235.46964   -332.13676    229018.04   -21103.243    1559.6002   -22662.843   -799.40822      735.425     78.61314    15.947475    29.399728 
   99600     241.5944   -273.20663    229018.04   -21052.632    1600.1667   -22652.799   -625.52571    731.53588    78.613071    15.947652    29.400316 
   99800    241.92429   -258.77349    229018.04   -21020.148    1602.3517   -22622.499   -510.84475     731.0582    78.611749    15.946793    29.392188 
  100000     240.8736   -266.13013    229018.04   -21056.804    1595.3926   -22652.197   -576.02865    735.21051    78.611981     15.94645    29.388346 
  100200     239.2937    -168.9166    229018.04   -20994.015    1584.9283   -22578.943   -174.42838    734.53047    78.611182     15.94724    29.390002 
  100400    237.86502   -235.75255    229018.04   -21017.578    1575.4657   -22593.044   -429.46966    737.31781    78.613091     15.94591    29.399473 
  100600    245.00216   -230.72795    229018.04   -21076.656    1622.7375   -22699.394   -414.79521    735.90407    78.612332    15.944172    29.395532 
  100800     247.0063   -368.78511    229018.04   -21038.348    1636.0117    -22674.36   -958.03031    738.37682    78.611261    15.945992    29.378991 
[...]
 5175800    228.84991   -426.90856    229018.04   -23319.458    1515.7554   -24835.213   -1192.6563    8532.3973    77.004017    15.382006    29.731197 
 5176000    216.18112   -319.56451    229018.04   -23444.683    1431.8454   -24876.528   -791.24088    8528.0307     77.00308     15.37945    29.727704 
 5176200    218.31593    -361.5664    229018.04   -23447.124     1445.985   -24893.109   -964.49896    8530.8205     77.00151    15.380013    29.745444 
 5176400    222.41001   -360.28815    229018.04   -23396.622    1473.1015   -24869.723   -942.15398    8531.3551      77.0012    15.378503    29.739492 
 5176600    228.81267   -327.75145    229018.04   -23351.265    1515.5087   -24866.774    -858.0108    8528.2046     77.00104    15.377189    29.731508 
 5176800    220.21775   -389.86985    229018.04   -23405.012    1458.5814   -24863.593   -1056.2209    8530.3037    77.000034    15.376929    29.738408 
 5177000    230.89995   -344.41264    229018.04    -23305.67    1529.3335   -24835.003   -861.39962     8531.447    77.000611    15.373283    29.735472 
 5177200    233.62305   -269.77333    229018.04   -23305.217    1547.3696   -24852.587    -628.3389    8527.9766      76.9998    15.371574    29.732009 
 5177400    226.56856   -316.88229    229018.04   -23344.135    1500.6451    -24844.78   -778.73092    8531.0884    76.998991     15.36965    29.733417 
 5177600    228.20318   -288.31895    229018.04   -23348.568    1511.4718    -24860.04   -676.90988    8529.9875     76.99783    15.366714    29.721162 
 5177800    226.82646   -259.49798    229018.04   -23310.927    1502.3533    -24813.28   -552.82828    8529.4693    76.998934    15.365767    29.729733 
 5178000    224.82034    -343.5228    229018.04   -23389.626     1489.066   -24878.692   -897.94421     8529.577    76.996872      15.3648      29.7346 
 5178200    222.33015   -314.20914    229018.04    -23394.67    1472.5726   -24867.243   -775.47775    8529.6017    76.996371    15.363622    29.735665 
 5178400    231.23025   -328.76201    229018.04   -23294.096    1531.5212   -24825.617    -808.5719    8529.6876     76.99583    15.362657    29.722529 
 5178600    224.55579   -416.64457    229018.04   -23359.305    1487.3138   -24846.619    -1175.031    8529.3877    76.993501    15.362013    29.722498 
 5178800     227.9617   -336.20575    229018.04   -23332.093    1509.8724   -24841.966   -862.03587    8528.8361    76.991287    15.362188    29.723736 
 5179000    233.15362   -306.33672    229018.04   -23284.288    1544.2604   -24828.548   -718.01191     8530.949    76.992148    15.361621    29.723561 
 5179200    228.98636   -423.18798    229018.04   -23354.822    1516.6591   -24871.481   -1199.5102    8530.0382    76.991241    15.361895    29.720513 
 5179400    223.93862   -305.86723    229018.04   -23381.535    1483.2261   -24864.761   -765.13303    8527.8946    76.991062    15.360278    29.715779 
 5179600     227.3036   -363.74296    229018.04   -23360.407    1505.5136   -24865.921   -950.40227    8530.4328    76.990369    15.359015    29.726737 
 5179800      228.873   -277.38329    229018.04   -23342.121    1515.9083    -24858.03   -639.43731    8528.2588    76.988663    15.359724    29.737712 
 5180000    220.06037   -286.99057    229018.04    -23375.01    1457.5391   -24832.549   -677.48822    8528.5594    76.988136    15.360655    29.733831 
 5180200    226.40588   -286.79973    229018.04   -23393.893    1499.5676    -24893.46   -656.41946    8531.7337    76.988937    15.358583    29.737064 
 5180400    225.41561   -276.35638    229018.04    -23383.53    1493.0087   -24876.539   -631.29087    8528.1546    76.990652    15.357688    29.730184 
 5180600    226.97717   -230.28992    229018.04   -23400.698    1503.3515   -24904.049   -437.29649     8526.319    76.990299    15.357019    29.732315 
 5180800    219.92582   -373.65605    229018.04   -23419.692    1456.6479    -24876.34    -1007.536    8531.1945    76.989981    15.355715    29.741057 
 5181000     225.0939   -252.36554    229018.04   -23369.198    1490.8779   -24860.076   -506.14884    8528.4645    76.990387     15.35502    29.733174 
 5181200     228.4329   -277.28857    229018.04    -23330.56    1512.9933   -24843.554   -608.99256    8528.7419    76.989863    15.355614    29.733546 
 5181400    230.93464   -343.59141    229018.04   -23343.604    1529.5633   -24873.167   -878.65568    8530.6794    76.986439    15.356407    29.725079 
 5181600    230.98592   -348.41291    229018.04   -23328.087    1529.9029    -24857.99   -908.75035    8531.2589    76.987356    15.356061    29.732007 
 5181800    225.52198   -282.25482    229018.04    -23418.16    1493.7132   -24911.873   -663.59858    8528.2995    76.987449    15.355677    29.733299 
 5182000     222.6939   -367.61683    229018.04   -23418.272    1474.9819   -24893.254   -966.52766    8530.1209     76.98521    15.356498    29.732094 
 5182200    228.76595   -316.10615    229018.04   -23341.498    1515.1993   -24856.697   -780.71342    8529.9263    76.984694    15.358797    29.740913 
 5182400    225.86133   -278.71044    229018.04   -23343.008    1495.9609   -24838.969   -612.72259    8530.1628    76.984208     15.36025    29.721757 
 5182600    228.20407    -405.6846    229018.04   -23322.147    1511.4777   -24833.624   -1079.0685    8531.2296    76.982787    15.359928    29.721775 
 5182800    225.95917   -382.79947    229018.04   -23323.173    1496.6089   -24819.781   -1051.7453    8531.6004    76.981076    15.361943    29.722801 
 5183000    220.84413   -192.81596    229018.04   -23321.464    1462.7302   -24784.194    -259.5039    8530.3084    76.981184    15.363025    29.724047 
 5183200    231.99582   -407.85004    229018.04   -23333.834    1536.5918   -24870.425   -1195.8095    8531.7372    76.979554    15.364908    29.722253 
 5183400    226.92321   -392.92172    229018.04   -23362.499    1502.9941   -24865.493   -1086.6609    8531.2991    76.977586    15.366748    29.721857 
 5183600    224.80487   -261.34302    229018.04   -23349.751    1488.9635   -24838.715   -583.08396    8527.7856    76.977353    15.367483    29.738022 
 5183800    221.67897   -437.67324    229018.04   -23402.653    1468.2596   -24870.913   -1256.1205    8532.2839    76.975497    15.368035    29.744561 
 5184000    227.91011   -373.69655    229018.04   -23364.496    1509.5307   -24874.027   -1012.1468    8529.7786    76.973974    15.370625    29.730642 
 5184200    231.62503   -103.06582    229018.04   -23372.968     1534.136   -24907.104    56.152965    8526.8295    76.972819    15.370048    29.729354 
 5184400    224.73282    -450.1907    229018.04   -23341.858    1488.4864   -24830.344   -1299.6493    8532.0158    76.971951    15.371412    29.726401 
 5184600    231.08063   -297.77027    229018.04   -23353.187    1530.5302   -24883.717   -721.88754    8527.7968    76.971634    15.373255    29.725499 
 5184800    228.44466   -179.78612    229018.04   -23330.573    1513.0712   -24843.644   -255.41216    8527.5239    76.971714     15.37394     29.71352 
 5185000    225.64051   -380.51204    229018.04   -23316.618    1494.4983   -24811.116    -1002.139    8531.1846    76.971447    15.372797    29.711405 
 5185200    228.98556   -338.74743    229018.04   -23349.939    1516.6538   -24866.593   -867.54616    8530.0029    76.971463    15.371824    29.726484 
 5185400    225.45984   -254.05825    229018.04   -23382.682    1493.3016   -24875.984   -547.75891     8529.011    76.970809    15.372242    29.706229 
 5185600    224.10184   -387.63105    229018.04   -23342.551    1484.3072   -24826.858   -1076.7494      8530.34    76.970768     15.37115    29.721626 
 5185800    233.60826   -289.37281    229018.04   -23262.722    1547.2716   -24809.993   -665.11288    8528.1299    76.968568    15.372225    29.715032 
 5186000    224.67102    -331.9625    229018.04   -23298.602     1488.077   -24786.679   -817.36658    8529.7627    76.966776      15.3722    29.716222 
 5186200    220.67077   -401.92824    229018.04    -23375.51    1461.5819   -24837.092   -1116.8219    8531.9402    76.966742     15.36982      29.7307 
 5186400    221.20015   -245.74241    229018.04   -23399.087    1465.0882   -24864.176   -513.09876    8528.5062    76.964299    15.369034    29.718072 
 5186600     232.1945   -307.36535    229018.04   -23320.314    1537.9077   -24858.222   -742.32909    8528.0111    76.961378    15.370232    29.718939 
 5186800    227.24671   -406.44082    229018.04   -23339.854    1505.1368    -24844.99   -1161.5443    8529.8141    76.959529    15.370736    29.722558 
 5187000    222.48743   -261.75075    229018.04   -23330.877    1473.6143   -24804.492    -560.4177    8526.8526    76.957922    15.370576    29.713488 
 5187200     229.3121   -292.34993    229018.04   -23349.866    1518.8166   -24868.683   -670.22876     8527.912    76.955563    15.371897     29.70842 
 5187400    228.12031   -282.83717    229018.04   -23326.459    1510.9229   -24837.382   -642.57468    8531.5304    76.952846    15.371586    29.708426 
 5187600    227.14887    -285.6567    229018.04    -23339.01    1504.4887   -24843.498    -683.0772    8525.7102    76.949673    15.371432    29.711978 
 5187800    231.42665   -311.50165    229018.04   -23330.384     1532.822   -24863.206   -743.87646    8528.9415    76.946973    15.374045    29.721466 
 5188000    229.00657   -369.72868    229018.04   -23338.397    1516.7929    -24855.19   -989.52709    8529.8572    76.945327    15.374761     29.73373 
 5188200    231.45319   -279.47029    229018.04   -23317.812    1532.9978    -24850.81   -633.26854    8527.7755    76.944656    15.374748    29.738555 
 5188400    230.73449   -367.51553    229018.04   -23358.434    1528.2376   -24886.672   -955.76787    8529.2022    76.941642    15.377559    29.736485 
 5188600    229.78949   -358.59289    229018.04   -23290.126    1521.9785   -24812.104   -927.75229    8530.1101    76.940487    15.376994    29.736049 
 5188800    225.87064   -293.80091    229018.04   -23331.248    1496.0226   -24827.271   -683.12877    8528.4472    76.939682     15.37649     29.75217 
 5189000    224.12609   -375.99911    229018.04   -23325.394    1484.4678   -24809.862   -976.56762    8531.0618    76.936101    15.375196    29.748447 
 5189200    230.30971   -291.89098    229018.04   -23356.035    1525.4241   -24881.459   -667.54314    8529.0804    76.934238    15.375814    29.751514 
 5189400    229.51719   -279.39905    229018.04   -23333.645    1520.1749   -24853.819    -645.4365    8528.5059    76.933654    15.376022    29.740476 
 5189600    227.56879   -387.79121    229018.04   -23321.128      1507.27   -24828.398   -1046.9445     8532.357    76.933213    15.374352    29.736968 
 5189800    224.43115   -298.12468    229018.04   -23358.572    1486.4883   -24845.061   -704.71012    8528.7381    76.930207    15.374584    29.725866 
 5190000    228.29841    -198.2823    229018.04   -23326.402    1512.1025   -24838.504   -312.52328    8527.1667    76.928218    15.373632    29.733447 
 5190200    229.29121   -437.31139    229018.04   -23313.687    1518.6782   -24832.365   -1243.6096    8531.6754    76.929089    15.373613    29.741094 
 5190400     227.1619   -266.90377    229018.04    -23338.97     1504.575   -24843.545   -581.46743    8528.2834    76.928663    15.372874    29.739486 
 5190600    227.58239   -154.21189    229018.04   -23323.287    1507.3601   -24830.647   -107.25843    8526.2483    76.926959    15.371904     29.75008 
 5190800    234.57418   -438.99624    229018.04   -23332.333    1553.6692   -24886.002   -1268.0517    8534.2513    76.927293    15.370844    29.734725 
 5191000    221.23694   -254.45739    229018.04   -23445.752    1465.3319   -24911.083    -526.3448    8529.4867    76.926084    15.371267    29.732899 
 5191200     224.1055   -243.47055    229018.04   -23371.293    1484.3314   -24855.624   -517.63391    8529.0061    76.924625    15.370776    29.745892 
 5191400    224.72932   -448.11303    229018.04   -23338.887    1488.4632    -24827.35   -1259.7705    8533.3187    76.925844    15.371045    29.751054 
 5191600    225.04629   -286.97628    229018.04   -23360.856    1490.5626   -24851.419   -693.06739    8530.3223    76.927887    15.370581    29.749993 
 5191800    232.11089   -201.00548    229018.04   -23317.689     1537.354   -24855.043   -339.32435    8526.0574    76.925935    15.369906     29.75145 
 5192000     222.3816   -433.29031    229018.04   -23309.025    1472.9134   -24781.938   -1209.8678    8533.6816    76.927352    15.370404     29.73265 
 5192200    229.78646   -284.19978    229018.04   -23351.996    1521.9585   -24873.955   -667.34437    8531.7678    76.927118    15.370836    29.738279 
 5192400    226.43592   -165.57297    229018.04   -23393.212    1499.7666   -24892.978   -179.29851    8527.9686    76.924668    15.371517    29.734677 
 5192600    221.30847   -442.73712    229018.04   -23385.837    1465.8057   -24851.642   -1288.8491    8534.3052    76.924596    15.371484    29.739146 
 5192800    230.96595   -264.89709    229018.04   -23322.902    1529.7706   -24852.673   -569.54183    8532.3195     76.92377    15.372236    29.724051 
 5193000    223.39352   -177.12595    229018.04    -23351.09    1479.6157   -24830.705   -246.32681    8526.9688    76.923706    15.371392    29.732917 
 5193200     226.0123   -448.39832    229018.04   -23335.645    1496.9608   -24832.606   -1263.2749    8533.9577    76.922193    15.370751    29.745091 
 5193400    224.10484   -275.24843    229018.04   -23297.872     1484.327   -24782.199   -564.30569    8530.3494    76.919609    15.370393     29.74693 
 5193600    220.84735   -109.67237    229018.04   -23355.622    1462.7515   -24818.373    52.265494    8529.0932    76.919035    15.368986    29.747699 
 5193800    229.85332   -459.20714    229018.04   -23368.673    1522.4012   -24891.074   -1325.4832    8533.2168    76.917823    15.367963    29.746909 
 5194000    223.91814   -347.28451    229018.04   -23358.691    1483.0904   -24841.782   -889.94986    8531.6488    76.917649     15.36739    29.742529 
 5194200     230.9998   -264.02331    229018.04   -23331.796    1529.9948   -24861.791    -571.9769    8529.7689    76.916549    15.366592    29.741452 
 5194400    228.86128   -343.96447    229018.04   -23338.719    1515.8307   -24854.549   -890.73679     8531.567    76.916008    15.367505    29.755108 
 5194600    220.73554   -272.58127    229018.04   -23361.944    1462.0109   -24823.955   -605.42242    8531.6477    76.917171    15.366001    29.751059 
 5194800    216.10064   -300.68363    229018.04     -23381.2    1431.3123   -24812.513    -744.0546    8531.1975    76.915784     15.36712     29.74819 
 5195000    228.88371   -358.15117    229018.04   -23294.698    1515.9792   -24810.677   -952.37872     8530.268    76.913842    15.369237    29.737218 
 5195200    225.95192   -239.29318    229018.04   -23360.578    1496.5609   -24857.138   -479.49428    8531.6272    76.914656    15.371369    29.727292 
 5195400    233.32968   -253.35353    229018.04    -23282.47    1545.4264   -24827.896   -516.66966    8531.7585    76.915288    15.370929    29.727858 
 5195600    231.32589   -343.06285    229018.04    -23322.45    1532.1547   -24854.605   -863.74529    8531.6781    76.915973    15.372483    29.732731 
 5195800    227.02361   -270.61823    229018.04   -23275.031    1503.6591    -24778.69   -612.59111    8531.3269    76.913698    15.372105    29.728229 
 5196000    229.08613   -314.28373    229018.04   -23281.425    1517.3199   -24798.745   -773.67195    8533.1737    76.914305    15.372021     29.73482 
 5196200    231.04279   -363.46998    229018.04   -23248.911    1530.2796    -24779.19   -960.03892    8532.3201    76.913716    15.372559    29.729666 
 5196400    231.27635   -213.84146    229018.04   -23320.546    1531.8265   -24852.372   -381.68969    8530.7401    76.912994    15.370516    29.732624 
 5196600    217.43199   -331.97967    229018.04   -23423.183    1440.1303   -24863.314   -873.53986    8533.4381    76.913346    15.370945    29.742572 
 5196800    231.11161   -336.39127    229018.04    -23324.15    1530.7354   -24854.885   -870.24847    8533.1261    76.912633    15.371673    29.735904 
 5197000    223.93327   -317.44022    229018.04   -23358.158    1483.1906   -24841.348   -809.61616    8532.8686    76.913118    15.371065    29.739576 
 5197200    235.85517   -314.26054    229018.04   -23256.119    1562.1537   -24818.273    -794.8929    8533.6734    76.913643    15.370964    29.733063 
 5197400    224.55012   -329.51482    229018.04   -23356.974    1487.2763    -24844.25   -837.80167    8532.4789    76.915337    15.370578    29.734639 
 5197600    224.80695   -282.37523    229018.04   -23338.448    1488.9773   -24827.425   -644.22683    8530.7068    76.915086    15.372544    29.742417 
 5197800    231.76122   -239.41054    229018.04   -23242.286     1535.038   -24777.324   -434.14898    8531.6132    76.914346    15.373587    29.729751 
 5198000    235.09555   -252.08565    229018.04   -23244.974    1557.1224   -24802.096    -512.7682    8531.8161    76.913384    15.373728    29.733166 
 5198200    227.85139   -270.68556    229018.04    -23302.26    1509.1418   -24811.402   -589.93962     8530.857     76.91294     15.37279    29.726104 
 5198400    227.08598   -338.83619    229018.04   -23324.938    1504.0722    -24829.01   -884.98687    8533.2885    76.911317    15.371807    29.725355 
 5198600    222.00694   -269.14343    229018.04   -23381.621    1470.4318   -24852.052   -588.47686    8532.8545    76.912395    15.371381    29.730821 
 5198800    226.91902    -330.4957    229018.04   -23371.469    1502.9664   -24874.436   -845.34774    8532.3691    76.909968    15.370269    29.728877 
 5199000    229.49269   -300.57355    229018.04   -23283.465    1520.0127   -24803.478   -715.82665    8532.0609    76.908247    15.370203     29.72899 
 5199200    227.99505   -269.60903    229018.04   -23334.533    1510.0933   -24844.627   -595.89904    8531.4327    76.908062    15.369191    29.728349 
 5199400     223.3227    -333.6839    229018.04   -23359.506    1479.1466   -24838.652   -844.35537    8534.8285    76.907085     15.36824    29.727109 
 5199600    229.13695   -309.43663    229018.04   -23313.151    1517.6565   -24830.808   -742.76453    8530.5621    76.906721    15.371329    29.711664 
 5199800    222.10567   -301.82298    229018.04   -23368.655    1471.0858   -24839.741   -716.85934    8531.0541    76.907245    15.371825    29.712104 
 5200000    224.50585   -338.63379    229018.04   -23299.017     1486.983       -24786   -856.15463    8531.8268    76.906983    15.370302    29.711949 
Loop time of 7220.87 on 160 procs for 5200000 steps with 8943 atoms

Performance: 622.197 ns/day, 0.039 hours/ns, 720.135 timesteps/s
97.8% CPU use with 160 MPI tasks x no OpenMP threads

MPI task timing breakdown:
Section |  min time  |  avg time  |  max time  |%varavg| %total
---------------------------------------------------------------
Pair    | 0.2438     | 1491.7     | 5765.3     |5178.7 | 20.66
Neigh   | 0.35038    | 97.929     | 374.94     |1234.7 |  1.36
Comm    | 11.42      | 2004.7     | 5836.7     |4634.4 | 27.76
Output  | 89.428     | 89.503     | 91.349     |   1.6 |  1.24
Modify  | 192.17     | 3440       | 7031.5     |4957.7 | 47.64
Other   |            | 97.1       |            |       |  1.34

Nlocal:    55.8937 ave 177 max 0 min
Histogram: 72 3 45 0 0 0 0 0 4 36
Nghost:    539.481 ave 941 max 0 min
Histogram: 20 4 0 8 8 40 29 14 23 14
Neighs:    0 ave 0 max 0 min
Histogram: 160 0 0 0 0 0 0 0 0 0
FullNghs:  5598.04 ave 22193 max 0 min
Histogram: 95 25 0 0 0 0 0 2 19 19

Total # of neighbors = 895686
Ave neighs/atom = 100.155
Neighbor list builds = 555281
Dangerous builds = 0
write_data 		${DIR}/data.${NAME}_run
write_data 		run_18/data.${NAME}_run
write_data 		run_18/data.ibeam_cooling_18_run
Total wall time: 2:00:36
