LAMMPS data file via write_data, version 29 Oct 2020, timestep = 50633

3482 atoms
1 atom types

0.0 68.908 xlo xhi
0.0 85.84830153377978 ylo yhi
0.08661600620654575 17.91338399379339 zlo zhi

Masses

1 18.015

Atoms # atomic

2336 1 1.5642076881715112 2.3095838068901617 3.555137490521117 1 0 1
138 1 6.758358021961728 0.860090081664512 0.33898146596674894 0 0 1
2326 1 4.150257977263981 1.9843243859373394 4.7863115331521495 1 0 0
2602 1 0.48705906857089515 1.450166140811054 6.020655232061942 1 0 0
261 1 10.924067228488545 2.5083459736478306 17.84635452988774 0 0 0
2294 1 7.165213843898386 20.99082432495561 7.289271848472069 1 0 0
49 1 14.960851300592786 1.8232020926453614 0.8357931864118474 0 0 0
289 1 20.111585858193944 2.2474835990671576 1.9956810927954405 0 0 1
130 1 3.4760379252290097 3.227909512815387 1.5427394805660568 0 0 0
84 1 6.267579051206538 2.9282048967792838 2.4033186675395224 0 0 0
204 1 7.1284939368524745 5.298146341944849 0.91253724120496 0 0 0
192 1 9.607505890257103 4.384277475249894 1.9984100219151097 0 0 0
18 1 11.693958036264613 6.2286695845586255 1.8848713361140264 0 0 1
260 1 10.73993101505444 1.6479707399333863 2.9767930190495306 0 0 1
178 1 15.971322916786473 3.975749361414001 2.3025132855337924 0 0 0
2022 1 16.95569416272342 5.097886991003297 17.84249965904329 0 1 -1
9 1 19.246384536048414 5.319095099997989 1.750411955484317 0 0 0
2138 1 21.253260944984326 5.326069125558804 17.141161261291472 0 1 0
2297 1 1.8303072823324127 5.459550207449688 1.4123229321122879 1 0 1
1611 1 21.680268571260378 17.305141163958684 16.77632292550802 0 0 0
2520 1 4.720713187742945 6.059561435738165 1.9837047481486438 1 0 0
227 1 10.556660423531802 7.828008416454036 3.805109529956222 0 0 0
279 1 15.443205844792915 9.294092520538907 1.3259434485364556 0 0 0
94 1 12.89191426150603 10.224264333193073 1.2701080583302151 0 0 0
175 1 21.365378192943766 7.547175801972952 1.3399147205238005 0 0 0
1244 1 21.204020448970336 10.524956602723956 0.3920084281562216 0 0 1
2298 1 1.5384321452369574 12.197712891281931 0.4894145701599786 1 0 1
3224 1 3.003291402558743 10.35636329319524 2.1327837535371743 1 1 0
182 1 7.833842956549159 8.523209271680726 4.37200409772129 0 0 0
2351 1 5.984831708974037 8.979149771020339 2.2470248658721843 1 0 1
2334 1 4.9616835605710135 10.940448365780913 0.18992741860887205 1 0 1
36 1 8.091341732214167 11.124372419114401 4.605306590615545 0 0 1
104 1 10.062699199056292 11.44980139277919 0.4560270115570849 0 0 0
1654 1 10.416834309754593 11.889546450063644 3.154997426338502 0 0 1
196 1 12.153908719161693 9.93566927523659 3.839776190073421 0 0 0
243 1 15.592571519749852 13.916114307760772 2.5827541505316134 0 0 -1
133 1 17.377500405278845 11.610353291405831 2.0358420504291277 0 0 1
510 1 19.519883101429443 12.532266444536981 17.869684621446133 0 0 0
51 1 3.228446396520252 14.967418261325166 2.0855941904834117 0 0 1
2515 1 0.46369295350348616 15.689015524806598 3.193591571891915 1 0 1
2543 1 4.029784134983495 13.638941416715562 4.448696343644395 1 0 1
1036 1 6.975375875923599 13.536358984677992 3.6586534362917464 0 1 0
230 1 12.949731701710053 16.463811354050257 17.755740610569376 0 0 0
1259 1 18.37907290826295 14.449671565087067 3.2117552876376045 0 0 1
220 1 0.6401234679918549 20.03798027574015 14.230799555362061 0 0 0
195 1 4.752157401162842 17.25827788408896 2.1618746735064853 0 0 0
60 1 8.74449859122938 15.658478949482284 4.208680909335943 0 0 0
327 1 11.877081235868658 17.120429182572988 2.475286888123464 0 0 1
264 1 15.093232495537505 18.00292162038412 2.5965674531889804 0 0 0
268 1 15.398792268710489 16.07998889543342 0.659613550798778 0 0 0
1666 1 21.61412184256811 17.21303637539002 1.6347809735386318 0 0 1
2546 1 2.7151642234924283 18.803474618632578 1.3768146473954102 1 0 1
119 1 0.9299295769568365 19.210059111969237 3.5971275443214217 0 0 0
1317 1 21.904028286515675 10.595675285798539 4.8147069158638915 0 0 0
2685 1 1.1183369413729443 6.303518028220081 12.144337254718192 1 0 0
82 1 9.368572142175413 18.46133591180781 1.5670839908057568 0 0 1
2362 1 0.9082972634637787 3.78409902734003 15.762724372623454 1 0 -1
91 1 9.723503746994245 21.113625401582542 3.9663941010891715 0 0 1
23 1 3.639084102736139 0.10342893191025823 16.493481999392394 0 0 -1
1324 1 15.907873658805093 19.69158327996596 0.2376835285137353 0 0 1
14 1 18.59652299230139 20.02269787506245 0.3051784484941976 0 0 1
493 1 19.689190876861957 18.699139801704384 2.6118142918506932 0 0 1
3468 1 0.2824453615326088 6.976485145745958 9.26462377162744 1 1 0
87 1 3.4089237490326516 2.579888963983329 7.2684948233791875 0 0 0
2479 1 8.081583619907795 3.619646677150273 4.602589006123618 1 0 1
107 1 7.166170044840148 1.5773743363453983 5.940006749667439 0 0 0
1548 1 19.297140755898415 18.746078202315307 15.673537978482633 0 0 0
56 1 10.881324574082448 2.0288485850578004 7.564911674717165 0 0 1
2533 1 2.283068333203516 12.32132144333014 11.381669784092411 1 0 0
898 1 17.878608488085927 3.6298527490243666 4.249655159800641 0 1 1
276 1 19.561228896153427 1.6942156976241287 5.418891283658367 0 0 1
2503 1 1.5528952225753532 5.433093243888151 7.559574471322647 1 0 0
234 1 4.581815025862818 4.976677258232495 4.590703127483432 0 0 1
8 1 6.779882721741683 5.661061934910739 6.366521761986906 0 0 0
43 1 13.382557501552197 4.667395069981498 5.790052397353113 0 0 0
168 1 18.03484123826802 6.6463060555693305 3.9984937829867344 0 0 1
1366 1 20.896609034381175 3.3575014251225723 7.828317011053331 0 0 0
2601 1 3.0865188933810783 6.7244435937729365 5.7902800297170725 1 0 0
121 1 4.246605759285316 9.032081791482069 6.665560776771952 0 0 1
180 1 6.9906006441957045 9.024261122109701 7.023906081882752 0 0 0
64 1 9.858220522319822 6.137017067769768 6.031623555483618 0 0 0
16 1 13.717684778368154 5.387526264092499 3.1715485267583623 0 0 0
1179 1 15.431571303276385 7.7312873499209385 3.8827282832149366 0 0 0
288 1 17.651962738016255 8.982330513709705 6.640683985091903 0 0 1
2412 1 2.290496498594814 7.777319360077649 3.187356206761566 1 0 1
166 1 2.78417277796396 11.122718181781618 5.185289702873155 0 0 1
1623 1 8.924310418321607 20.705054628188364 13.58509897133829 0 0 0
206 1 8.8582589846439 11.496522332262279 7.147958576995718 0 0 0
225 1 13.099969813941257 10.578047522157185 6.756400919130556 0 0 1
27 1 18.592554989346088 10.306353185164363 4.17751073355421 0 0 0
142 1 20.358770048547484 8.415481864573737 3.8531576971329344 0 0 1
48 1 6.245850847774852 0.19737974230368993 3.4470474265739455 0 0 0
273 1 21.437901552221405 0.26411628153235756 15.957209089332375 0 0 0
1059 1 5.820397991675171 15.571324382191307 6.154893473165116 0 1 0
66 1 8.140181733358776 14.241118019931092 7.504068331352747 0 0 0
24 1 11.925196593248344 13.146142810703786 5.558369946170894 0 0 0
561 1 16.175110094641934 13.065914433703194 7.358790417933183 0 0 0
229 1 14.642441592424673 14.075214759566823 5.33365304436143 0 0 0
383 1 14.113834260529579 16.71262576136319 5.123757064950967 0 0 1
135 1 18.70481607335185 12.303784560180636 6.362979218141559 0 0 1
1312 1 20.269631004317745 14.03319649631117 5.131588042087359 0 0 0
297 1 22.454821320723628 13.22175146601311 3.5373483208203815 0 0 1
139 1 2.2328420100064017 17.699045795026752 5.395413767497835 0 0 -1
181 1 4.877865860332535 17.930489543428187 5.042976121524159 0 0 1
2357 1 10.584746638706077 15.250918586169819 6.725845123932748 1 0 0
562 1 8.579477532095767 18.48127938974547 4.174232158126099 0 0 1
366 1 11.366054306283537 17.582967860640586 5.511829076302124 0 0 1
1229 1 17.48334053261472 17.145710491559644 3.5665557514120954 0 0 1
507 1 17.686768872593127 18.30123781473051 6.082638383845773 0 0 1
236 1 21.999696210712187 17.23537346793524 6.806466994856238 0 0 1
2550 1 6.285724738967295 20.25471660880375 4.797153753670937 1 0 0
251 1 21.677820066878862 4.915662386733318 12.006567115592189 0 0 0
2592 1 0.250846844019842 18.417945125634606 12.091695583950521 1 0 0
353 1 16.016116666360496 20.55942331863414 6.028641048976132 0 0 1
207 1 15.049858452558334 20.660811250035287 3.462063345047976 0 0 0
265 1 4.362810204424984 21.05549262495382 0.780898845321227 0 0 0
61 1 20.80581237489209 20.04566771345072 4.6838523379772266 0 0 1
68 1 1.1446741749133775 1.680664894936958 9.237456356159115 0 0 -1
864 1 6.031000346118387 2.3455143974274684 8.403050217882239 0 1 0
188 1 11.200846348479955 2.8817642827116328 10.167535888638287 0 0 0
1443 1 15.484487420118231 1.3997769536739428 8.817715493836085 0 0 0
101 1 18.5382404953216 2.435367373079004 9.244655978046415 0 0 0
2164 1 21.631933495060338 1.7818839087151925 10.398395459094138 0 1 1
1305 1 3.3968648297563147 5.674496241088684 9.611237096237426 0 0 0
2576 1 5.969022634779442 5.279604795095504 8.950305122709587 1 0 0
41 1 10.96215654592736 3.58736556365146 5.400250061537236 0 0 0
148 1 10.20263245798135 5.23032830822742 10.842011110785075 0 0 1
2245 1 15.897917367977898 3.3539731582734778 6.31999566557461 0 1 0
5 1 13.989000143631714 3.2493149820570975 10.655646641049866 0 0 0
2113 1 19.230536955022522 5.419169991836855 10.372001619859699 0 1 1
1251 1 17.209993746425056 4.916802621405641 8.464380115841285 0 0 0
52 1 21.931881248566448 5.947116432216117 8.874473567985683 0 0 -1
197 1 3.7020944455685547 8.901161130648825 9.42704066560737 0 0 1
1137 1 7.6336941923702355 7.528340793916785 9.50887619083985 0 1 -1
299 1 8.15728487831221 8.315855095358625 12.344690115343758 0 0 0
2287 1 12.985134055166037 6.3289323763682175 7.829993037113017 0 1 0
1377 1 18.684241510843997 6.573938905459984 6.9118617191031575 0 0 1
1391 1 19.438178605311734 10.121880845980082 8.637717788197227 0 0 -1
1508 1 21.471599870974988 7.308757744260755 6.245048312883083 0 0 0
238 1 0.7990338090051798 9.766419490438325 9.958936133605935 0 0 0
2909 1 2.330326593634127 11.40970162651184 8.281388757550111 1 0 1
2480 1 4.491998729161894 13.166663141141855 9.518695310614254 1 0 1
45 1 10.731605871008075 10.064141787399794 8.40923419199186 0 0 0
212 1 10.24964519729502 7.3496717278646 8.516620359690371 0 0 1
2344 1 10.920475864865207 11.133448054560336 10.920225372689401 1 0 0
2223 1 14.822750472725799 8.599691568928364 6.859328548127215 0 1 0
112 1 20.233242827626405 12.944434711080344 9.612367936655948 0 0 0
2199 1 16.52584866644258 9.952275949931737 9.721693511103668 0 1 0
55 1 3.8882484383043443 15.476333081433873 8.162746509982663 0 0 -1
527 1 6.633564281312416 11.484370925921143 9.223411202758312 0 0 0
42 1 8.572878692129317 12.892646363627856 10.954069540094457 0 0 0
375 1 14.147055123544527 15.817104679881876 10.198335534013967 0 0 -1
47 1 14.505573660119447 11.759498477430867 9.060359232561327 0 0 0
79 1 17.593231025296653 13.761218626109233 10.988881767862347 0 0 0
2419 1 16.559966136924597 15.185433106264876 8.956357228118542 1 0 1
2053 1 12.297735927910747 0.4517339488401291 14.754239124108745 0 1 0
476 1 1.710287661838989 14.798627486925996 6.062483606922606 0 0 0
500 1 3.7870755825985083 18.298554684708854 9.164537322001816 0 0 0
377 1 6.3197665873278055 18.26362650927753 8.04527699948784 0 0 1
29 1 11.504367307924316 16.821208283922235 9.241002298806158 0 0 0
1191 1 15.45199213955846 17.45733374535365 7.490391376454566 0 0 1
1714 1 14.074979451561166 19.839824249503792 8.528083851463 0 0 0
17 1 20.01388880713051 19.13641665086296 7.326456820721889 0 0 0
1697 1 20.828341380000367 14.810302889274043 7.79624712214247 0 0 0
2328 1 1.4257995892795123 18.89980065373583 7.731723172259431 1 0 0
1212 1 15.812219679957634 17.91350306597826 15.948945750015373 0 0 0
317 1 9.167012357462488 20.076277487260747 9.624071954850892 0 0 0
516 1 11.70113083671345 19.063389130536688 7.7262207893899335 0 0 1
1236 1 19.538694962792093 20.850214382910107 9.367349826339272 0 0 1
330 1 7.002157872515607 20.733379545800965 0.4943896299092535 0 0 0
165 1 15.240807404909393 0.8345632791716423 5.264677107201472 0 0 1
1190 1 22.077110527173584 10.800588358336064 7.560776214900923 0 0 -1
1456 1 20.57093050014713 14.367543238011143 1.3955023353596114 0 0 1
1246 1 8.536489948312965 1.844537087684604 11.801533591016593 0 0 -1
250 1 0.0394746775127115 12.537677448029656 6.73137929893839 0 0 0
1 1 19.075620766580702 1.337330166054871 11.893197533983486 0 0 0
300 1 22.639370300559847 1.5202079183323725 6.613363916932859 0 0 1
2452 1 0.3926065861537526 6.257718940278412 17.230537610330707 1 0 0
2392 1 2.494724520314508 3.226656815053552 10.748217164416328 1 0 0
1136 1 3.8573530649982577 0.7991097670024367 11.98614493432969 0 1 0
2430 1 6.12301679188312 1.964488813365435 13.565668284869949 1 0 0
2455 1 7.356818534368714 4.225321525224884 11.10678811309534 1 0 0
1433 1 10.270486838837892 2.3955055551996316 13.896816133032155 0 0 0
1348 1 15.38533741400804 3.4592523082549045 13.11094227600683 0 0 0
57 1 17.340869166464067 5.5059607273234334 12.556269216132337 0 0 1
285 1 19.376222003133734 3.7782846329723765 13.476913660047309 0 0 0
2519 1 1.1201733885686511 0.3217531961899174 1.7095788041654902 1 0 1
105 1 4.068867941978173 7.121307535355306 12.484804864441207 0 0 -1
99 1 6.668907384091027 6.0561904245973235 12.825325931739489 0 0 0
326 1 5.600219779630372 9.573597656213073 11.342090786074108 0 0 -1
155 1 9.059754852080825 6.719942843138269 14.74785983839536 0 0 0
54 1 15.107203163267444 5.762782420254956 9.825195255879425 0 0 0
1160 1 11.199420797764647 5.9181246607932705 13.324600734889794 0 0 -1
4 1 13.9884929935733 8.84240899263771 13.263536179379631 0 0 -1
302 1 15.654951607328973 7.907164670819622 11.439672590518896 0 0 0
176 1 18.9376653828147 7.1857634159795 14.74594676464463 0 0 0
2390 1 20.12323248732048 8.065838498973138 10.372194199796395 0 0 0
2054 1 12.513185942999746 0.4788714242122495 11.252374776203633 0 1 0
111 1 3.1785335936605117 12.024981507416861 14.098208876256269 0 0 0
2526 1 7.918253384075987 12.75478559425431 13.786409886262833 1 0 0
2507 1 5.657970956491962 11.065573131168092 13.665871626537939 1 0 0
90 1 9.246653674226827 14.022731908581012 15.929946928920161 0 0 0
81 1 11.495613850113273 8.859548237230737 12.794931268653572 0 0 0
2560 1 17.04432814701191 11.127170540802291 12.064070010411573 1 0 0
125 1 15.297268357313797 11.061993299634434 14.091906110105679 0 0 0
157 1 19.305361744672346 9.354986476761448 12.786883495206588 0 0 1
20 1 21.897486393408766 11.579621344797456 11.399571945207551 0 0 0
208 1 3.166074758853268 14.959192974615588 12.10851907928235 0 0 -1
228 1 5.924010900154381 15.018218153379113 11.317556728828995 0 0 1
233 1 9.382776029263066 15.545551544845699 10.45581757808336 0 0 0
160 1 13.319041878418085 13.166458942473472 11.335896681916584 0 0 0
88 1 11.037857309088752 14.149677756841108 12.91590987515338 0 0 -1
1094 1 14.19296084238618 14.079578559054 13.721596123006904 0 1 -1
1453 1 17.231422291237767 14.66280919672898 13.889448928333366 0 0 0
486 1 21.533069144126475 15.151749285059887 13.265543269542707 0 0 -1
179 1 13.48418770313818 1.6951341830895936 3.365339904724705 0 0 0
2453 1 2.9167844091412296 17.91142482233273 11.943560755126652 1 0 0
2499 1 4.531820237301263 20.76936006708736 10.653637007394883 1 0 0
274 1 7.6158280426277605 17.640598761254083 10.902494999964912 0 0 0
340 1 9.216800336578164 17.025132198652877 16.244185247920477 0 0 0
33 1 11.07292379202275 19.02629342432922 11.407769527999612 0 0 0
161 1 14.824594952293905 17.58199759041736 12.399128936608871 0 0 0
151 1 17.571916483148573 17.40608858191462 13.46854081769083 0 0 1
15 1 18.890860032653563 16.787869277648714 8.840030619964399 0 0 0
38 1 19.720600355466647 16.988204373132493 11.64533524156648 0 0 0
2770 1 3.4199811457435034 20.480515958177524 13.353181574542486 1 0 -1
214 1 7.615974198367136 17.90848940068187 13.969058336220725 0 0 0
950 1 0.28386493993741374 3.559402271866397 12.891307011559501 0 1 0
122 1 10.596359750077971 16.973611048294618 13.432553859746077 0 0 0
2121 1 13.154758750372558 0.11173353956597802 7.286143950233821 0 1 0
459 1 15.380921098458264 20.14258358911544 11.402823769452844 0 0 1
172 1 18.357904839609496 19.936823359374046 11.940833610433913 0 0 0
252 1 7.282366802301916 20.936377272877152 11.4276039837466 0 0 1
282 1 18.06364437142272 0.2450304816175346 7.328909491434921 0 0 1
145 1 20.689459636905152 19.4121181609977 13.600771885836378 0 0 0
2570 1 5.428663872041424 18.603173651567086 15.816250144004313 1 0 0
70 1 8.641402216498392 2.1507469296254316 16.04427591538098 0 0 -1
964 1 13.268367434979941 2.5632595679504604 16.47417721344317 0 1 0
2224 1 16.84894376158227 1.1395409609485536 13.969860847629123 0 1 0
1018 1 17.08089963999646 0.8721113505601906 16.890726412093485 0 1 0
1196 1 19.63511005505241 1.8660212641608807 17.14637025129275 0 0 0
2450 1 1.170848536918016 15.207609818489553 17.064217328035497 1 0 0
2624 1 3.5739779158486513 2.8703795115982778 16.66864445998832 1 0 0
44 1 5.242965017246967 4.492026097977151 15.085941612498065 0 0 0
2299 1 7.632582606549715 4.729762533407117 16.11263539171871 1 0 0
914 1 13.6691203735251 4.4905031376238655 14.746748834023542 0 1 -1
1008 1 18.870303515605926 4.268489677586434 16.10965790764321 0 1 0
12 1 3.663753535357499 7.261410756329601 15.307521972908443 0 0 -1
2563 1 1.0254861478798238 8.317403175981038 15.763416206429953 1 0 1
275 1 7.425023786055111 8.144765815911034 17.82678106235165 0 0 0
2172 1 12.247799142836245 7.884660571329876 17.579007083396036 0 1 -1
190 1 9.97600018511802 8.824640128316425 16.512776642254686 0 0 0
37 1 14.09510829248028 7.213800413488457 15.341022219711993 0 0 0
248 1 16.55580910546997 7.975631821994565 16.57853635531309 0 0 -1
1345 1 21.130269974441735 9.118890272907013 15.6040153105488 0 0 0
2423 1 1.3403782622076927 11.03050867463328 15.817707280695918 1 0 -1
257 1 5.8324863291958335 9.144934116194737 15.85132905217528 0 0 0
272 1 10.326871470244846 10.900491887250176 14.183449698230774 0 0 0
86 1 12.266220924666618 12.40671708192024 15.238219298850884 0 0 0
150 1 14.311144275915622 12.48753595896178 0.5088765796460157 0 0 1
124 1 16.37177387834343 11.109685117058422 16.74102318171434 0 0 -1
1698 1 19.91460632369712 13.831639752104202 15.15605537437057 0 0 -1
103 1 20.640526894885014 11.444654309038254 13.97959131102732 0 0 0
141 1 3.424416180134384 14.742270799826242 15.13777259721295 0 0 -2
2370 1 4.2877724683336025 13.632924334701729 17.775155155329706 1 0 0
162 1 6.345954651187776 15.11253011750785 14.183170798056823 0 0 0
106 1 7.421377493744507 12.216743467389742 1.2054488032547752 0 0 0
3 1 11.8221220102519 13.887416164293723 17.765877286863912 0 0 -1
219 1 16.828996424993225 14.061910528109317 16.773115033638256 0 0 0
199 1 19.139909261146613 15.920860915766436 17.115762379917044 0 0 0
539 1 22.64792757242515 18.5166007624142 10.966310814896921 0 0 1
269 1 3.2914557257841164 17.313989503519 14.865928337846286 0 0 0
254 1 1.432151857960185 17.911123059007725 16.917792746226738 0 0 -1
2625 1 6.794122065882018 17.55262569468095 0.3633840471224181 1 0 1
2484 1 10.914814679489416 14.500959614833773 2.7181946547026663 1 0 1
189 1 6.984904210463143 14.618612027485804 17.487992718134457 0 0 -1
388 1 11.31111386722547 18.767040932747026 17.271133399539423 0 0 0
13 1 13.295453660785649 16.558896664885665 14.67165750422635 0 0 -1
7 1 22.711776352976 9.106547792329858 10.267326175678773 0 0 0
292 1 4.970796370053286 21.366083585466107 15.45128016677511 0 0 1
1275 1 22.097451969381517 21.11264217446333 10.078769799992038 0 0 1
873 1 0.0051254114814440754 11.506948196889818 3.8731391911247215 0 1 1
319 1 9.946382258497216 21.449651451772997 6.50522327725158 0 0 0
2701 1 1.9934752273224134 24.625715468756844 2.3093144822455134 1 0 1
128 1 8.94159623097388 24.145045759991497 17.79751859395917 0 0 1
277 1 12.772303039861054 24.566090269171646 2.711994392346892 0 0 2
267 1 16.17149674667342 23.093128882169616 3.397582436148526 0 0 0
205 1 15.092107538780267 24.09831094825996 1.2684767860902666 0 0 1
2 1 18.87478962821137 23.93162896340489 3.578421662406677 0 0 0
1410 1 20.361368222389054 25.177302895137753 1.5673988791093818 0 0 1
2401 1 0.5875408395316498 27.219239292719358 1.661401272427485 1 0 1
213 1 7.5083786215231845 26.82819537836881 1.5655262696317667 0 0 0
224 1 13.480131888494066 25.638593134562274 5.317934342809716 0 0 1
548 1 16.817107333772114 28.065051683967887 2.9868661915518366 0 0 0
554 1 0.03407402728899456 38.702087188414986 1.95489580913825 0 0 1
2626 1 0.048460740800755686 22.270616281795526 17.42687583806469 1 0 -1
2885 1 0.6227101652560526 29.901025898987545 2.8232423666954958 1 0 0
461 1 5.223507504348562 27.78959900505765 2.340798789260118 0 0 -1
437 1 9.014306600643673 31.929609012119496 1.6334322903961316 0 0 0
164 1 9.1531708259457 28.924970229969983 1.2290889210068021 0 0 0
246 1 10.813483298407553 28.33206182156186 3.598323152797197 0 0 0
266 1 13.841122153210648 28.713785869140207 2.8687316196492305 0 0 1
408 1 21.8677879411776 29.91302350428319 1.7940947820683224 0 0 1
2486 1 1.6777457158035434 22.362298966633517 11.519986040788977 1 0 1
2622 1 2.852793304327933 32.82541863801201 2.4457645495794154 1 0 1
499 1 5.601211718580218 30.755620064801505 3.061235717787774 0 0 0
2799 1 6.828720890842642 33.21767062358627 2.5425443748890775 1 0 1
381 1 9.938711506397487 30.854813878069745 4.051735895151422 0 0 0
403 1 12.266258583350577 32.482961471590436 4.267763590568217 0 0 1
380 1 20.584991226485133 30.37362940388308 4.130543924250875 0 0 1
40 1 18.4943530765312 33.47691084464818 1.1348681443127822 0 0 0
1638 1 18.249579179989315 22.608284917398297 13.122478280200205 0 0 1
482 1 8.009433268028515 22.17311847543741 15.674936657618222 0 0 0
46 1 3.679219201444963 35.86286918685401 1.5015518392519986 0 0 0
202 1 9.301392998643392 38.3333416584022 3.608344568509925 0 0 1
308 1 6.337018188692409 35.62638960539707 1.4146523939046454 0 0 0
406 1 6.573210187343821 38.22284180141004 2.814741850809333 0 0 0
501 1 12.411778190336154 34.472027990937825 1.9926033072866616 0 0 0
513 1 13.323439160241266 37.268482798471176 1.656445119989054 0 0 1
754 1 13.771505160180963 36.56395575324844 4.268051081629617 0 0 1
1481 1 18.863870737684245 32.66954440174222 3.72830971809172 0 0 1
595 1 18.62017827120198 36.335221079662574 0.8284290342680514 0 0 1
532 1 20.509842974163234 35.13371146232206 4.152851907818385 0 0 1
345 1 22.759122104494324 27.53277501199267 2.8096148745135023 0 0 0
2797 1 5.33015397006727 39.97863123858261 1.3208832043607517 1 0 1
687 1 2.9755609169537816 38.53151111803078 1.5629204939052115 0 0 1
610 1 18.03129466048225 37.66437600871631 3.427214764940173 0 0 0
384 1 20.6531243634728 39.484235383514545 1.5877289695524446 0 0 0
621 1 16.40029380011886 39.702956971495155 2.4079686236007345 0 0 1
449 1 5.43327639840888 42.24577479151849 2.5473091787478284 0 0 0
1594 1 22.525720442985826 28.457188439408743 15.768785710591953 0 0 1
526 1 12.084418995174744 41.290189735559736 1.5760661813295604 0 0 0
348 1 14.278227430360188 41.21443806438958 3.257544348403311 0 0 0
1560 1 18.93697813002051 41.585676371561654 3.178503582916281 0 0 0
92 1 10.201623476349663 22.7521148989988 9.759503318085708 0 0 -1
604 1 11.186326753929745 41.12055639871801 10.540296945692145 0 0 0
2388 1 2.3346836836441733 21.829523218081956 4.39167323792076 1 0 1
26 1 3.805270551711859 24.73252621732981 6.281838450996533 0 0 1
30 1 4.554675376531339 25.086957522375997 3.5426608229810235 0 0 0
2732 1 6.577658950359476 25.779280609233805 6.367633389056266 1 0 0
287 1 7.8816865050582665 22.673763300483042 2.197608450960585 0 0 1
263 1 7.405327652826654 25.062038448324135 3.640931451555759 0 0 0
174 1 11.20730903984403 25.075800707706 6.684363737593537 0 0 1
1234 1 10.07937694354068 24.09044299393014 4.549044981889501 0 0 -1
143 1 15.976141664517197 24.45951346115258 5.834031709998946 0 0 0
525 1 19.948865390983777 22.632303683138158 5.442125260383939 0 0 1
1158 1 22.055692039902027 24.110939894866576 6.2806678489495145 0 0 1
69 1 1.278703922785236 26.60131124490875 6.834297620660036 0 0 1
184 1 4.524404318078702 27.962956113984834 7.0534460071038145 0 0 0
2494 1 10.23868142109329 27.677566901681928 6.164668278124617 1 0 0
2831 1 13.913314411165704 28.306076051943705 5.984633724526411 1 0 1
415 1 18.23270747498029 26.38110448245723 5.021498793127145 0 0 1
1598 1 21.33633342748117 26.71906483641958 5.327568390925727 0 0 0
1952 1 22.5931764433465 28.23863187896692 7.5081059905002885 0 0 1
28 1 4.979611433978118 22.19637611921124 3.260861356018601 0 0 1
831 1 22.04756802052478 35.98737732365092 13.988606162280995 0 0 -1
1608 1 2.0375114185140855 31.950472507180898 6.658290453366023 0 0 0
542 1 3.037341745981067 27.391965772610796 4.698301477971968 0 0 0
2641 1 7.800242273434017 28.824103569546303 6.8778852890951905 1 0 1
306 1 11.990536284584092 29.805753725442656 6.867015299742848 0 0 1
333 1 16.120793034988463 29.523691800206183 7.646624555083426 0 0 -1
153 1 18.718151743112116 29.07021522190608 5.921156802826643 0 0 0
309 1 16.89049828490135 31.07295636148976 4.695254890779916 0 0 0
439 1 20.838140426349987 30.25517886311545 7.7702072604915635 0 0 0
462 1 3.069430506841283 30.421173701557713 4.3717774584238756 0 0 0
487 1 4.807273216779933 30.69510011625147 6.989447218258415 0 0 0
768 1 7.541337535330927 31.332331494377264 5.524788864463445 0 0 2
706 1 16.17646634769179 31.79777631121554 0.8603842709791131 0 0 0
368 1 14.550741267158264 31.417436692178303 3.030154219504011 0 0 0
303 1 22.34376155010733 31.95723582973756 5.676655130654234 0 0 1
393 1 21.701428884997824 34.54161147912905 6.6265014907131885 0 0 0
328 1 2.1251648753927994 34.88112200151403 4.66422042340716 0 0 0
392 1 6.913599885366723 34.643219169802016 5.082430466782553 0 0 0
667 1 9.616364371416791 35.75623252726578 4.604554145749871 0 0 0
2667 1 12.309994919302655 35.01371423115259 5.99323381406013 1 0 0
203 1 16.25901622979501 36.64722051830792 5.329714286859947 0 0 1
778 1 15.972896627074732 38.009250367044444 7.599754627490182 0 0 0
433 1 19.148568643507417 34.610876746436084 7.6280332859994395 0 0 1
564 1 0.36409394237540227 37.314725090672574 4.662791276627671 0 0 -1
444 1 3.0129145748667345 38.548214932068504 5.9599068952201995 0 0 0
519 1 5.792252731857352 38.65306695897026 5.731934577627851 0 0 -1
531 1 4.830273966554765 36.107989364955735 4.474236366598023 0 0 0
587 1 9.58579343693373 38.07168657591723 7.710460407374551 0 0 0
659 1 10.72464057129045 39.41864916910221 5.687370838571094 0 0 0
787 1 13.284072493250177 39.25884152417768 5.071818994276296 0 0 0
556 1 11.75552246043624 38.9969442722973 9.248731045373225 0 0 1
520 1 18.79240138578665 37.4951122941146 8.082179425254214 0 0 0
797 1 19.910901534931877 37.92864688462816 5.698583469971386 0 0 1
200 1 3.2386574801804 22.81828009785883 9.006196578089476 0 0 0
796 1 22.417444031293076 38.28050411398581 8.644376874510176 0 0 1
360 1 2.54504213338934 41.05543152724094 5.555169787912853 0 0 1
2771 1 6.80928577555643 41.30062606169442 4.714291406773969 1 0 0
3009 1 9.679449862163029 42.29076044230002 5.070842825092324 1 0 -1
616 1 13.817750404821082 40.248986445529596 7.788020595702667 0 0 1
382 1 22.2633978615699 39.923326298395 16.272177221937774 0 0 -1
1582 1 18.881641749610765 40.63101407485112 5.816688503960678 0 0 0
399 1 20.829366960579424 42.17690340293549 6.753234345283836 0 0 1
446 1 0.22579194916768144 29.018889140057194 7.811317827200281 0 0 0
702 1 17.356374171307202 41.129451166646234 17.780068245730547 0 0 0
545 1 12.436277275816092 21.877866557972794 2.9001844160345063 0 0 1
448 1 6.028170602150904 23.2799518941324 7.927803788152782 0 0 0
359 1 7.243633889787413 23.763123182015576 10.247753043409558 0 0 0
470 1 12.378104968742718 22.466935499475568 7.969713889987414 0 0 0
131 1 15.577403575031688 22.71984761727318 8.210756331274366 0 0 0
489 1 17.55925629141355 24.028675526310337 10.621634461292265 0 0 0
474 1 2.5309078453348937 25.570568914032435 9.501867824347576 0 0 0
505 1 8.512619868396724 28.485143908894187 11.76356578464566 0 0 -1
518 1 12.302123866354476 25.599068623303083 9.393810765828345 0 0 0
167 1 9.539837311529308 25.72066066629839 10.894016891270228 0 0 0
1670 1 14.540363647448737 24.275055287848346 10.632488224745238 0 0 1
445 1 17.18227545132897 28.01001218364727 10.178121097926466 0 0 1
316 1 19.738054835159247 25.80199931724829 7.791922202200848 0 0 -1
362 1 21.744930069036048 30.013452450641417 11.083957683543549 0 0 1
102 1 21.518172821977107 27.275616090156422 10.077865129234915 0 0 0
132 1 0.57803015057676 30.013955150797294 11.750934242286377 0 0 1
2730 1 2.0428988875140504 30.608815752137193 9.590106320934646 1 0 -1
1675 1 3.690429446944546 28.192166387693582 9.757192017661465 0 0 0
479 1 9.135214680743282 30.043717236154922 9.00908007466955 0 0 0
413 1 12.507505324198846 27.7698097522065 11.494361949995403 0 0 0
538 1 11.87201143060335 30.04669184103259 9.807300547028184 0 0 0
325 1 14.337841628532717 31.4751914352536 8.830211554474992 0 0 0
1624 1 17.416169185086215 30.137430292135242 11.868565403035433 0 0 0
491 1 19.126345352051548 31.147191909642615 9.941172526123221 0 0 0
1681 1 3.385126766234002 34.653948386189725 7.250020525848796 0 0 1
2851 1 1.5750669361958292 33.59452831299824 9.500976039023467 1 0 -1
2807 1 4.793273501527027 32.163316547500195 9.581926770458388 1 0 -1
344 1 8.785089670666814 33.12943620720464 10.889588028122072 0 0 0
169 1 14.268208166972022 34.20646369159423 7.594163872123658 0 0 0
786 1 12.073202983791829 34.033140354136336 9.459685617948502 0 0 0
369 1 15.65843819192634 32.08119460009858 11.326496333417317 0 0 0
343 1 16.86497007914886 33.774214749516 6.21589146142927 0 0 0
419 1 19.47191987900912 34.15629525382972 10.396103143592121 0 0 0
627 1 16.805957224886974 34.840883412496645 10.711014756211222 0 0 1
1630 1 19.70069888552087 22.835466862583548 17.471937954302682 0 0 -1
2861 1 6.003703352723475 33.945424617059075 7.769540558330399 1 0 1
2977 1 8.511779075577776 32.492605867139254 7.818423490744863 1 0 0
304 1 6.653967204152724 35.81263765621957 9.61301004466957 0 0 0
1622 1 10.018031656615674 34.84182624898534 7.658505049084785 0 0 0
475 1 14.763900392995167 36.21910478592857 9.50635738680566 0 0 0