LAMMPS data file via write_data, version 29 Oct 2020, timestep = 60633

1820 atoms
1 atom types

0.0 68.908 xlo xhi
0.0 85.84830153377978 ylo yhi
0.08661600620654575 17.91338399379339 zlo zhi

Masses

1 18.015

Atoms # atomic

72 1 17.449490178519284 1.3958552837282874 0.7927265495697439 0 0 1
57 1 22.463201753361883 16.32705235073696 4.868498692894339 0 0 1
70 1 18.519546633754867 5.495372026782381 1.5519164718053173 0 1 1
67 1 21.698281295188206 16.40947674836531 17.74363292169105 0 0 0
552 1 22.529378395533207 6.390310921438904 1.2294950721230733 0 0 1
362 1 20.913542422590783 10.480321415096464 1.6942003311535627 0 0 0
1469 1 19.58386322910633 4.933604705204737 16.786441664833205 0 1 -1
34 1 21.074375425382254 18.48770267175974 16.313989222323194 0 0 0
361 1 21.605295807051817 11.146741120590606 4.337598548555287 0 1 -1
19 1 20.890832612094986 17.65542504110402 13.543920850863767 0 0 1
27 1 20.86891383707659 16.811575772217 2.647301620282927 1 0 0
44 1 18.712451524881146 19.427337115150365 17.506008253240452 0 0 0
13 1 16.79489563973779 0.22306953876712432 9.660086265038819 0 0 1
288 1 17.595343784863612 1.8218963537826638 5.5878671261573105 0 1 0
244 1 20.355755965676444 0.6865626031573816 6.460073394824529 0 1 0
18 1 18.062593046739604 3.1670490638972555 2.830659157888294 0 1 1
25 1 20.084947979655446 7.664773994317804 2.5053858352186396 0 0 0
46 1 22.045124608713937 6.296307332777162 4.560947389763458 0 0 1
407 1 21.091898929275363 6.820076302997413 7.543872893398544 0 1 0
35 1 20.491834888085354 8.7894394279747 5.239538547426997 0 0 -1
42 1 19.101602380454477 15.21828148823736 3.9100903401750795 0 0 0
59 1 20.49577253246862 13.927290818312265 6.001053708627691 0 0 1
528 1 21.799957467409953 2.9316098135113022 5.821014945420457 0 0 0
16 1 18.355730492044263 19.29141596279674 5.1000500660399055 0 0 0
1 1 17.48937194588394 16.749342006828094 5.621508171954319 0 0 1
377 1 21.43453273198878 13.760378182412293 16.986212455653764 0 0 0
593 1 21.3484212319392 20.62908658345423 13.191171708743035 0 0 0
7 1 22.458228131916254 4.31427934861819 16.281408614272888 0 0 0
58 1 19.41730334443169 19.273985101074608 2.3939994113929757 0 0 1
505 1 22.55427557070653 13.386150431983427 14.341926148580976 0 0 1
12 1 22.555277803070503 16.774483612607245 10.748410012941685 0 0 0
89 1 21.38122428976356 21.126900557127247 2.7922284926747927 0 0 0
1288 1 20.30391875149027 1.9429200206271633 11.812174725041126 0 0 -2
260 1 16.80619505381731 2.5155616727883494 8.13264121323055 0 0 1
71 1 21.056082306527667 3.918806186863899 8.180221622911024 0 0 1
406 1 18.448245146811104 4.526410464121432 8.929472610236836 0 1 0
68 1 17.884872914476002 7.268336126306906 8.391754756080962 0 0 1
24 1 17.970571047372538 9.130591838952922 6.416514412519538 0 0 1
41 1 19.578265690345262 11.427690595564396 7.532234524065698 0 0 0
311 1 20.40958418286862 8.964790997013198 9.228263268094123 0 0 1
385 1 19.025055018305622 15.600479469339605 7.566157473321765 0 0 0
393 1 22.53351315472823 11.597708687185442 7.732487394450234 0 0 0
298 1 20.042734074796222 17.75768870867422 9.287759165846117 0 0 1
15 1 21.889263115482407 20.036314712014534 10.369106422595355 0 0 0
56 1 20.51756881653412 19.50504393837295 6.940443400142483 0 0 1
8 1 21.11355327360779 4.065091651713009 3.361526921705949 0 0 1
60 1 19.377093054171194 11.43627295971595 17.43265690061889 0 0 -1
33 1 19.780773116779397 0.5253754816550864 14.598030254587254 0 0 0
48 1 18.820235759511235 4.324840580429517 11.861115228637098 0 0 0
50 1 18.903301242479937 6.875381334986283 12.447790763419516 0 1 1
5 1 21.659631227430825 6.804857501057138 12.281886158560951 0 0 0
47 1 18.051087944780498 9.097061200391147 10.827257074720965 0 0 -1
38 1 18.83819698903276 11.911074455357932 10.079371070856968 0 0 0
4 1 22.368278995596274 10.482393210950036 14.239395229787231 0 0 0
49 1 21.897599892802933 12.343792242480534 10.527307122632132 0 1 1
6 1 17.132652767091926 14.091478839034682 9.77761482257253 0 0 -1
3 1 21.22616890800723 14.630590973252676 12.076412521812076 0 0 1
22 1 18.299887741755388 14.873020213694737 12.071819565700068 0 0 0
103 1 18.645821264350978 17.744946746558938 11.83380369957417 0 0 0
52 1 17.142777412010552 0.541343666381272 12.546646133417072 0 0 0
14 1 17.42904453686849 20.406768277449096 10.92652046748366 0 0 0
326 1 22.163223279074796 9.711267304132482 11.364984656142429 0 0 0
275 1 22.180283968299157 1.515282699594706 15.885543710856126 0 0 0
29 1 16.703129797637757 3.3201119729671102 13.760433966198534 0 0 0
17 1 18.220333833224462 2.3581002972429994 16.22051835297587 0 0 -1
63 1 19.10112947925552 7.254258077199823 15.177255036153229 0 0 0
66 1 20.58962770782584 9.398933203392547 15.767153993271405 0 0 -1
37 1 22.316165274263454 8.766224505826782 17.883752591881475 0 0 0
540 1 22.59062307110322 2.2666970691278183 1.4842391015325411 0 0 1
249 1 19.693850761207116 0.5931201290302399 9.527038496860731 0 1 0
26 1 22.752259333358236 5.418637862763042 9.921275246452256 0 0 0
20 1 22.82320869435501 18.839059651719847 5.770757666746924 0 0 1
64 1 22.82252954936083 0.46912355639133363 13.324539770270531 0 0 0
61 1 22.025684365745587 23.305857355986358 1.3068616405024909 0 0 1
118 1 19.398343105223045 25.65398845977475 3.257980851363963 0 0 0
107 1 19.834789687697405 26.19148792835996 16.77009648419348 0 0 0
98 1 19.42645851150892 29.62219548810814 0.9945588438865738 0 0 1
79 1 18.20980800020969 28.04200090662591 2.9313049699775893 0 0 1
176 1 14.928027381517426 42.38506128587586 11.188321816083752 0 0 0
95 1 21.862312200214028 33.20457587370238 2.3209341472613243 0 0 1
93 1 19.50439999371463 34.15509329130412 3.357044224571926 0 0 0
76 1 17.81161167275983 34.4737846977777 1.1924455353420897 0 0 1
201 1 17.991801501996587 38.779620516589574 2.415396119057735 0 0 0
116 1 20.715815690348542 37.86979976848534 2.335424341832364 0 0 0
132 1 22.36974903748038 37.54900221596194 17.695097653743115 0 0 -1
203 1 18.059567547376453 41.72398307224477 1.8270463718143444 0 0 0
818 1 21.118854227838263 22.757753279690597 15.200936383404501 0 0 0
346 1 20.81239327196076 21.716579235483643 8.550310131504856 0 0 1
90 1 22.369318909449166 39.93507320512255 2.4623809603345763 0 0 0
220 1 22.735122288217873 42.035927390978095 0.549341834764418 0 0 1
53 1 18.592879546572416 23.749070208865888 5.036584694462436 0 0 1
62 1 20.722109127018594 22.086907072961065 5.287931892386091 0 0 1
161 1 20.401448513146953 41.769149234902315 3.276061485797334 0 0 0
138 1 20.622412184166286 27.43622645511553 6.940059456224961 0 0 1
86 1 21.92101188002388 26.362197089786193 2.965032648723142 0 0 1
144 1 22.681131960384032 26.204213850727538 5.752502550311959 0 0 0
83 1 19.522561218475076 29.295848638418015 5.179990147913598 0 0 1
649 1 22.612802764025922 23.50063087513894 6.9856275545894055 0 0 1
99 1 17.223324647903894 32.990600661954275 7.670371348299609 0 0 1
673 1 19.103421018220253 32.46586973019856 5.493661425805496 0 0 0
205 1 16.75411216566461 36.981166379262255 0.6369656185385674 0 0 1
133 1 21.645705846918815 32.10219699227643 6.715674568969886 0 0 1
139 1 17.75840101832389 35.627660933786956 6.556911463627323 0 0 0
110 1 21.339616030422178 36.03169866787072 4.269800281060298 0 0 1
100 1 20.559918554886774 36.239150484014395 6.7094370230069424 0 0 0
73 1 16.919362284342895 37.914009196219496 4.789420190121039 0 0 1
616 1 21.300312904157824 38.91894557447468 7.124260765141008 0 0 1
88 1 17.704550049518986 28.329057677136486 16.974949845667272 0 0 -1
204 1 14.71200165441339 41.249783107195846 6.856797597157169 0 0 1
123 1 17.157717278834408 40.46568876421047 5.853400739679276 0 0 0
129 1 20.011066087213077 41.306413863936314 5.893739879491996 0 0 1
81 1 17.880807122224123 21.964801161429687 8.6428375719546 0 0 0
126 1 17.80808193450401 24.61519769839772 9.304184929762437 0 0 -1
111 1 22.56389565604048 40.10667410928431 16.49429014726845 0 0 0
647 1 20.26765535819302 24.115724422384492 10.32591417323928 0 0 1
135 1 18.464667899009825 25.64319887365139 6.810331361202033 0 0 1
157 1 18.46264124317168 41.95606906734702 16.489915588702793 0 0 0
664 1 18.62750622503481 31.036726653410522 10.77139771502483 0 0 1
127 1 21.65699968568451 27.95388966022281 9.577903059694387 0 0 1
131 1 17.63009346030177 33.572527017718755 10.298652471929023 0 0 0
119 1 21.008471363902384 30.819098120779106 9.080028843022141 0 0 0
91 1 20.304334402084066 34.743060854706606 10.6104854771846 0 0 1
75 1 21.877681643237132 34.5681650164943 8.406527186419513 0 0 0
114 1 15.544053393638158 37.65356181075643 9.991926585011013 0 0 0
182 1 18.103383990705037 36.773646260959744 9.261540471210637 0 0 0
873 1 21.684661539031524 39.1760059709247 10.044109610414516 0 0 0
94 1 15.555382799910326 40.17182145744894 9.241286188070148 0 0 1
77 1 20.587783145740175 36.35034507527615 15.803019402892524 0 0 -1
1144 1 18.341965067163937 39.53130802970166 8.290409659901483 0 0 1
164 1 18.760800428652267 41.57519420996851 10.061078549398964 0 0 -1
84 1 18.241122741076552 24.757388450542663 13.190919811598812 0 0 0
141 1 18.934793304378758 22.218320861726593 12.448512056900787 0 0 1
146 1 17.965357339297995 26.839931605004516 11.58786016894923 0 0 0
105 1 20.223753633650816 39.95605844800795 15.041745640145333 0 0 0
140 1 20.493926297886112 27.27375515950065 12.120183979989498 0 0 1
121 1 16.93497230144282 29.396682525620292 12.230829279246878 0 0 0
122 1 17.822279172193447 29.795794520991507 14.617701576013694 0 0 0
104 1 20.36030663836089 29.992820681883796 13.12518704610742 0 0 1
102 1 18.551125596969097 32.83382390195631 14.442222928353036 0 0 0
657 1 21.61801292875082 36.24252126869576 13.2015136956495 0 0 0
722 1 20.83816927746799 32.762489966176524 12.782038147405748 0 0 0
108 1 17.198999923651176 34.680952774067975 13.058754539256856 0 0 1
137 1 18.15433050466847 37.073572409044864 13.464429884648677 0 0 0
145 1 19.356649688132684 34.02448752437053 16.782007174707093 0 0 -1
97 1 15.52212850950472 38.108609836385725 12.882650653626945 0 0 1
748 1 19.874516063978703 37.65304419796457 11.48395396305023 0 0 1
128 1 20.97313971426238 25.394142700097255 14.163249011672638 0 0 0
115 1 15.947452831375207 40.918866832393725 13.19306163981167 0 0 1
739 1 18.497544087877824 38.16242955243171 16.18153190816468 0 0 0
897 1 18.781578385008377 41.1274315646839 12.928757305603877 0 0 0
101 1 17.24545348479457 23.86684718788913 15.686495118823327 0 0 1
651 1 18.892181915539197 22.190759662944977 16.982704897482563 0 0 0
96 1 20.91988009890907 32.263231294293284 17.888608607735367 0 0 1
87 1 19.52817085290182 24.379238337177355 0.8147226555718696 0 0 1
125 1 22.461780480872697 29.143236973577814 15.14724213602704 0 0 1
747 1 21.688181500641612 42.16617510506113 10.482137217450967 0 0 0
82 1 21.39263343525908 28.083197047384232 17.59149787551173 0 0 0
709 1 22.734503609892826 24.510689017063672 11.594551199486698 0 0 1
78 1 21.391302598729414 30.540893719541884 3.4140496505790994 0 0 0
180 1 15.691941436691751 41.912919576252506 15.854629985750407 0 0 0
782 1 22.87942529456052 33.64721731113526 14.691735473752152 0 0 1
723 1 22.820527607778047 32.180061773239835 10.785907355169392 0 0 1
1087 1 22.75939201150758 42.64486301248031 15.020006552800874 0 0 -1
40 1 16.910869374597482 21.558823058181552 5.967311599438268 0 0 0
208 1 18.876558930664007 44.573797416157134 2.3275706038004103 0 0 0
219 1 18.206088880799705 47.05902851288911 3.9850647656863085 0 0 0
879 1 20.465531895330177 46.31849195950731 5.447239833854259 0 0 0
117 1 22.615287984809264 46.05903081758564 3.6800887975470222 0 0 0
200 1 16.231976560467434 49.06829482284698 3.908238485065442 0 0 0
1162 1 19.243255550829485 48.648009187452786 1.968396471599488 0 0 0
903 1 22.161771240828735 48.320936879158005 2.106735077483535 0 0 0
222 1 14.913855586710033 49.076467139668175 1.7910220090449263 0 0 0
154 1 16.405757095272065 51.53600891036045 1.3199315867055925 0 0 1
218 1 18.326641915557094 50.96517165981011 3.36031979501691 0 0 0
921 1 20.602525455684834 53.802536775641656 2.421013157390267 0 0 0
183 1 18.193557334511326 56.83407883795567 3.1609059312344314 0 0 1
282 1 20.260538438812336 58.77749510557122 2.361410068509204 0 0 0
1410 1 22.0132512763154 59.588735394252524 4.186836175691608 0 0 1
1413 1 20.13366069417943 61.68290763141438 1.8990022311838848 0 0 0
214 1 22.116325066917273 62.49135964597349 3.634916562144614 0 0 -1
187 1 22.334944151296888 52.42098554583313 16.83510086468735 0 0 -1
199 1 15.621141945557916 43.75661698280804 7.058045657267553 0 0 0
893 1 17.961316528928595 45.07184865985979 8.185660970830078 0 0 0
152 1 20.901003377982114 47.96124826828185 7.667115291113406 0 0 -1
749 1 22.73634288573559 43.71964529829387 8.390667501686867 0 0 1
196 1 20.87517333406894 50.70183314853098 7.0412258342465215 0 0 1
163 1 22.67864188249942 46.51683647803351 9.004313331077269 0 0 1
191 1 20.353255422119677 52.274491702210284 9.52681082348623 0 0 -1
106 1 17.05140690262258 44.03219754833667 10.582510922364694 0 0 0
174 1 19.855555456613764 52.73517377536746 5.024372696964715 0 0 0
976 1 22.622062203248497 52.99896393769143 5.125026004935662 0 0 -1
165 1 18.71818604965949 55.29544251068245 5.354940841104754 0 0 0
192 1 20.043867310071334 59.36668437385285 6.305556549343528 0 0 1
188 1 20.92683928541301 61.54786824950282 7.6653722057367615 0 0 0
1067 1 20.27736393473193 63.45693788283228 5.879523566310787 0 0 0
1065 1 17.423100505367618 45.205968035705574 13.219035486546211 0 0 0
904 1 22.447566941057733 45.991638194162554 13.314535815132771 0 0 -1
210 1 18.466795891281095 47.45177137526458 9.091266474961406 0 0 1
195 1 22.243063188098567 47.71051622831271 11.385996312183888 0 0 -1
175 1 20.913077446494487 50.35702434709992 11.727851372620181 0 0 -1
169 1 17.778147043007007 56.93912539840041 9.57688487340817 0 0 -1
190 1 21.524294320253073 55.0722375803902 16.459048774421582 0 0 -1
189 1 22.55679075430131 56.36102317780659 10.394045575779701 0 0 -1
179 1 20.1093153022926 56.679361322227635 7.4404182892085275 0 0 -1
206 1 22.81309609748753 59.14867157733738 14.340895255740827 0 0 -1
953 1 22.96192900580712 58.918091227668896 11.532184221686062 0 0 -1
231 1 19.696197220446802 63.09329712627983 17.43213141546045 0 0 -2
228 1 20.653199954107013 63.13888444864638 11.138830393631308 0 0 -1
280 1 20.48022449216718 60.514979907374276 10.353619805482218 0 0 0
1024 1 16.100123733740848 44.87969388546568 15.760668566861035 0 0 0
181 1 18.9962675266587 43.45462217784438 14.100369725027372 0 0 0
704 1 21.27761730252319 43.57143916476893 12.94390542635559 0 0 0
198 1 19.106027800000913 47.29916348142773 11.690020018184462 0 0 0
156 1 18.454026763575147 49.71009496705475 13.137515610068837 0 0 -1
173 1 18.740521379994135 47.49638478779915 15.07099132016602 0 0 -1
153 1 20.197344408853535 51.07757832395092 15.082756977313968 0 0 -2
193 1 20.004879390073214 55.125171388134554 10.350881708173825 0 0 -1
1128 1 22.471690431665657 46.64073487175772 17.55012968800693 0 0 0
186 1 17.992983424606827 59.03322176711522 10.925256854634583 0 0 0
170 1 18.87168109845789 58.00595865097614 13.321101753252039 0 0 -1
610 1 20.19476223773257 44.07020134281682 6.900303335110578 0 0 1
185 1 20.731860906473745 55.46171130221587 13.063835630938252 0 0 0
1174 1 21.310310696553973 57.76910891555232 17.8272781340179 0 0 -1
1046 1 20.469233931331875 59.25640011071199 15.3571623239029 0 0 0
257 1 20.88570185894696 61.911926870010205 15.315528635845464 0 0 -1
160 1 18.45322746673963 45.21244220077269 17.53903298182871 0 0 -1
1145 1 21.362488081393217 44.36757565279427 1.822831617584222 0 0 0
1136 1 20.741177265060113 44.1245300017266 16.490669770804853 0 0 -1
217 1 17.209757264627292 48.017267935523954 17.620258589153266 0 0 -2
159 1 21.540596212398768 47.8103266855486 15.148282761137066 0 0 0
197 1 18.644517852732516 51.273629862044906 17.354986157994198 0 0 -2
213 1 17.726574530072245 43.40713007764959 4.837538687234696 0 0 1
221 1 20.724030422385372 51.298858608442835 1.3268431961595135 0 0 1
216 1 19.277598407000823 55.487956964232126 1.0329828143829085 0 0 0
194 1 17.869367535718172 53.94839814161783 17.04647320129371 0 0 -1
1013 1 19.490329380714307 53.604078063781095 14.600271767862472 0 0 0
166 1 19.444922325815625 63.64262457686232 13.443125602549927 0 0 -1
168 1 22.843607576397226 54.94684265309089 1.6745956912074549 0 0 0
230 1 20.90871448356877 83.6082296448893 10.205961802297198 0 0 0
1462 1 21.30943362953225 69.0238931185459 2.6792500335189833 0 0 2
1320 1 21.546852238378182 67.94065006794155 0.11882212739216058 0 0 0
236 1 19.88577165195521 71.6701011894113 1.184164126113083 0 0 0
1331 1 17.220865465983536 75.50733883968218 2.734593533706506 0 0 0
294 1 21.946407751125754 73.5524116683743 2.432426795680932 0 0 1
252 1 18.543894366394113 77.49518769000088 1.1957068479784256 0 -1 1
255 1 17.00150742021301 79.2885821809792 0.47213467698873773 0 -1 1
243 1 20.272006737379705 78.81924960220397 2.988595038681752 0 0 0
286 1 16.21165659720407 80.55235587402545 2.8430259538926754 0 0 0
1445 1 20.6839081657243 81.13660246725203 1.5181111232211935 0 0 1
233 1 16.16823026820151 83.24844464745227 2.641172183079243 0 0 1
267 1 17.87673978697894 84.43687088605853 0.6595874228887405 0 0 0
1264 1 20.33625304191192 83.8401978746505 2.1825324723443775 0 0 0
1243 1 21.53220229151715 66.3346344787816 3.460019472202626 0 0 1
1269 1 22.43797207641757 82.08377350881673 8.502220410920826 0 0 0
251 1 20.309054164592208 78.64710598252135 15.459444003809722 0 0 -1
272 1 21.404409924626112 70.62580036075593 4.837229907638076 0 0 0
1457 1 19.46098261452885 72.17043260569146 5.457461719142096 0 0 0
279 1 17.960468644786495 72.69143055192079 3.085095528598831 0 0 0
268 1 19.395911463305136 80.79002836539443 16.890777970101816 0 -1 -1
258 1 22.221002552988487 74.68789422224788 7.834114710538233 0 0 0
266 1 19.716371175888753 74.95051596674448 6.251583649224257 0 0 1
291 1 21.073299734821408 75.74968250158274 3.8073947961709584 0 0 0
1248 1 22.750180020185137 78.15214980327295 0.9513219184999971 0 0 1
290 1 17.747066467344695 76.7046863437992 5.362288713140675 0 0 0
247 1 17.918794411456542 79.4688335965627 4.6486270888014305 0 -1 0
10 1 17.933688539721988 83.59015118667075 12.9690166608096 0 -1 0
287 1 19.73909111336878 81.57254066545599 6.169050824854469 0 0 1
263 1 17.310751440134002 84.76333253940776 4.861156671119685 1 0 0
1370 1 20.11182510335772 84.14594103319828 4.8662325290240735 0 -1 0
1380 1 20.812504608232608 74.43786444787969 15.701883507622686 0 0 -1
211 1 19.80218124101391 64.4493743204937 8.774971223369139 0 0 0
285 1 16.75687105426694 81.01492331280772 15.869656791923983 0 0 0
274 1 19.634207672384786 75.44193578160429 9.286804144112176 0 0 -1
250 1 17.826459058747275 80.11252789155694 9.761169341860993 0 0 0
265 1 20.058138089011127 78.33893936045017 10.077326329749232 0 0 1
1221 1 18.632649453452352 82.70933671977787 8.621143737183896 0 0 0
9 1 16.52325685800659 84.26114923993917 7.602100132812156 0 0 0
1450 1 20.627401855856505 76.6197042907954 17.43469266443242 0 0 1
262 1 21.462768179288968 65.72746149251162 13.510829483960865 0 0 0
229 1 20.704239341660013 68.63505117628239 13.424440208223645 0 0 0
283 1 22.051196895988408 65.56035829954305 6.014228740255835 0 0 0
269 1 22.54081238200118 69.1402955458383 6.788283557550831 0 0 0
225 1 19.843836092821064 73.27160270995101 10.99031733858612 0 0 0
292 1 19.87601725818714 75.19762845279146 13.290046053912935 0 0 -1
261 1 16.946730931909553 83.82519043214441 15.788690377873104 0 -1 0
245 1 20.03683274425095 80.11937829591199 12.877444788187113 0 -1 0
259 1 18.15524230526787 77.21422239311069 14.345303895689925 0 -1 0
277 1 17.27880677042459 81.00450896115663 12.233950885373158 0 0 -1
237 1 15.659668601788914 79.05837967594861 13.820959164199621 0 0 1
11 1 20.685841778332687 82.94573853054924 13.179139799531157 0 0 0
278 1 21.028481488412076 67.03271996609162 8.036254057522099 0 -1 0
1398 1 20.069408668968595 83.78525441449352 15.93256147939567 0 0 0
1175 1 21.594624566354227 65.24235010368697 17.607983874909834 0 0 -1
1286 1 22.203262498376255 72.11398363756635 11.123088599310298 0 0 0
276 1 19.269406784552718 72.27105285051876 16.45364382012207 0 0 1
256 1 21.008003456122694 69.83264240006628 15.878746834007885 0 0 0
1322 1 21.7013719785285 76.38775229529253 11.430355154833451 0 0 0
1427 1 22.088879948186165 80.56000083659998 5.317051712881432 0 0 0
1119 1 22.30496525460393 66.8378379026353 10.657577983261248 0 0 0
1216 1 22.188466135796812 79.18676465416584 8.296153796104674 0 -1 1
30 1 21.718741092991188 85.48246249009718 0.1413682275951579 0 -1 1
273 1 22.85931746005137 83.58329534575836 6.157270317260314 0 -1 0
1132 1 22.692644214380174 71.63835328958437 8.457573829347549 0 0 0
531 1 22.77068422829018 79.5011093236985 12.20941927402198 0 0 0
281 1 22.914729889851518 69.6740518085297 11.892462796140814 0 0 0
1502 1 45.55827170216419 2.1336827625309764 2.253074910917837 0 0 1
32 1 29.15850122143663 2.307011324205614 2.6562089869605936 0 0 1
525 1 30.35107068790671 20.842729446932797 14.076042184285992 0 0 0
307 1 32.066093688114954 1.678205774371737 1.4731031383772293 0 0 -1
546 1 31.905288794333686 1.4580102324775346 16.5112629744085 0 0 -1
1533 1 45.73235312890823 10.229060681156978 13.996521773528581 0 0 -1
300 1 41.05701244009082 0.5028101793628188 0.34085226550359893 0 1 0
1379 1 43.5146078081554 2.3200764228107835 16.468871225889675 0 1 -1
43 1 28.300675940984693 1.039852425493646 9.885830545052729 0 0 0
367 1 24.942989521704135 2.542270021797463 2.700115817890858 0 0 -1
312 1 26.08207202239658 4.9451014716389246 2.1475222519259747 0 1 0
544 1 28.730380962910502 4.683963233562032 1.167468846607371 0 1 0
548 1 33.452846067209336 3.818619355805712 1.7620721347589092 0 0 0
315 1 37.14373652554962 4.1723305747417365 2.937992503253676 0 1 0
436 1 42.17841976234172 4.622409695645109 17.507473963065305 0 0 0
556 1 25.64130375594854 7.995517614190564 17.881641763611537 0 0 -2
305 1 31.456052619853637 5.957940778082782 0.6584447913853712 0 0 0
308 1 31.582982916629437 8.954167916163025 0.9716286989771448 0 0 1
560 1 38.12576438759033 6.742719925681637 17.807333921059364 0 0 -1
316 1 36.988058269594184 6.999360154612526 2.5124282852567275 0 0 0
491 1 42.57616136856337 6.908954158616706 1.4500737623487652 0 0 1
562 1 40.371143487056024 8.24985107007088 17.7559490864313 0 0 -1
1489 1 44.83393209539875 5.171639937842555 2.5201736286741676 0 0 1
563 1 44.60811921576126 9.118357912593563 0.9278835325310469 0 0 0
522 1 35.75036247763483 20.901498284199924 16.513770157915786 0 0 -1
495 1 24.53309667192515 10.692696034331998 17.822330941648854 0 0 0
559 1 24.771272124288892 7.40731075708118 2.8296920117101516 0 0 0
440 1 28.751888855353496 11.849955281584306 3.2137168241194627 0 0 -1
338 1 37.305076139705285 13.517096698693678 2.687302694404484 0 0 0
382 1 35.762161923963575 9.182680792940216 1.151361625145587 0 0 0
490 1 38.052491083605034 10.794195120861723 2.1621695244344177 0 0 -1
574 1 43.65597321993644 11.796706605876302 1.5719185932277588 0 0 1
335 1 25.425459371631447 14.093823441274635 1.4923801088522146 0 0 0
313 1 31.772197853434882 11.544842557080308 2.5425263934493665 0 1 0
519 1 34.64297732647129 14.328284871708309 1.4741525435160197 0 0 1
329 1 35.03933482281855 15.465522621117506 16.37965533231503 0 0 0
571 1 38.434560205615185 14.5972050925258 5.259148547307241 0 0 1
1478 1 44.351405565592955 19.311167171285014 14.620762011014154 0 0 0
576 1 24.765640944521692 16.29528832238989 3.5608511660915383 0 0 0
569 1 28.800791645408157 17.06029812675626 2.972160645285799 0 0 1
341 1 31.143063377352128 17.66481929676248 0.5708118628492715 0 0 1
475 1 33.42374457159296 18.27688962939535 17.238791095800824 0 0 0
656 1 38.049632446994806 17.789384435778526 0.4652324896251707 0 0 0
337 1 34.35636585924614 17.20069216632172 1.8796363893072168 0 0 0
573 1 40.47742706230886 15.152082012660637 1.2384414100137686 0 0 0
1512 1 44.324793555193935 16.791165818051734 0.5905687838593991 0 0 2
334 1 25.029623922178136 18.883882467158806 1.0564045618476743 0 0 1
476 1 27.610493550607345 20.23577830587348 1.0547324974063046 0 0 1
517 1 30.41156426456477 19.924381432082498 1.6864950763513573 0 0 2
51 1 23.855049822027016 20.147912529308744 3.526293695817941 0 0 1
1552 1 41.46917704604515 17.741084162340698 1.628755692893503 0 1 1
1759 1 43.71602898270063 1.1147496321746655 9.826977686474038 0 1 0
1278 1 24.426945342315477 2.567422256749305 5.296610051034941 0 1 1
65 1 23.370368674220884 14.042886865802929 6.304700786010904 0 0 1
459 1 41.67713049584799 20.43795631683663 11.436200344606416 0 0 -1
327 1 23.165564479702606 20.01664442955224 16.926186702175794 0 0 -2
383 1 39.84146311538361 2.4440526982461472 3.5158327903139135 0 0 0
1556 1 45.029620151469516 14.32258403263091 1.976745506877227 0 0 0
423 1 35.94615820546458 1.7367527284458066 5.535183217912201 0 0 0
403 1 38.3419464298798 20.883785916891036 13.46421260588527 0 0 0
424 1 43.0356088397421 0.6422909401598638 2.292973642375984 0 0 0
320 1 24.4998852574056 5.308194796601769 5.389921570183155 0 0 1
1481 1 45.65085575484209 16.733444930244513 13.978617719407485 0 0 -1
1349 1 27.71132457122533 3.740161039672757 7.080023117575171 0 1 -1
429 1 29.844006789216916 3.3321782059646043 5.281497948352008 0 0 -1
421 1 33.77796618976526 3.532352574767943 4.656007586812292 0 0 0
1464 1 32.01285079263877 2.089615652713987 6.434079624547827 0 0 0
420 1 31.88311116168718 3.018248045963827 9.105873382844912 0 1 0
365 1 39.601614629511374 3.956008425448262 5.755286105731858 0 0 0
1501 1 42.15207290783066 3.512466930130938 2.588421530640152 0 0 1
319 1 23.870200514524438 7.221622504593587 7.33343371222214 0 0 0
321 1 27.159593391022927 7.576278944494369 4.268680794532596 0 0 0
322 1 31.381741845559134 5.827860677529583 5.416528164135614 0 0 0
441 1 29.00404537663231 7.360257889377386 2.213243657615637 0 0 0
375 1 34.12918812449722 6.712562135291877 4.867377638234238 0 0 1
411 1 41.73647525475919 6.534764734658477 4.317073923452789 0 1 0
1551 1 44.81592944958701 6.724406985306792 4.963671482267598 0 0 -1
1455 1 40.6942662809352 1.7515056865134275 15.483121472667495 0 1 -1
404 1 24.483985403374124 10.47764067258977 3.446580178223697 0 0 -1
54 1 25.709624752562934 13.183559600437365 4.472619664340226 0 0 0
45 1 27.215989230349635 10.377529571751257 5.11214283537864 0 0 -1
372 1 30.905186632843158 8.567938330430296 4.061462187278887 0 0 -1
428 1 30.251576685357925 10.604927696755643 6.066160052425021 0 0 0
371 1 33.99575183984333 9.273017478085185 3.3841127850359634 0 0 0
451 1 38.68184857252124 7.011646594869228 4.86422240163978 0 0 0
398 1 40.083550957945334 8.969440289907586 2.8209238100318674 0 0 0
1497 1 44.96130810562217 9.900142057229024 4.433860031303506 0 0 0
570 1 28.466208581754884 14.487166402905478 4.042869816008398 0 0 0
328 1 28.56611191586592 14.991839132994505 6.833230888721839 0 0 1
396 1 32.41593032184407 13.757853166257346 4.131426345299992 0 0 0
395 1 30.952765086504062 13.333926891119035 6.506878859533785 0 0 1
387 1 35.022083443374164 13.598802014603406 4.485744538967258 0 0 0
457 1 36.171964545511464 10.968761366613785 4.55468013330067 0 0 0
391 1 41.22931977302056 15.22177303625639 3.9997545619278534 0 0 0
317 1 42.258446955553254 10.581700952091316 3.6314794713742202 0 0 0
1517 1 43.91331322960447 15.896123363918315 4.310763445242097 0 0 1
577 1 24.900617471410275 18.048625567952943 7.136588319358989 0 0 1
336 1 26.920351457314162 17.61793408470125 5.086683697327181 0 0 0
392 1 32.065114657866594 16.53679535322897 3.3422963673974158 0 0 0
348 1 31.49262025761957 18.165003234832525 5.437764283393956 0 0 0
330 1 36.0818700535997 15.171073154842357 6.672215964399882 0 0 0
332 1 37.90153115181335 17.211921176001002 7.494201160768097 0 1 0
458 1 35.40101885401688 18.620664943255566 8.3934380820543 0 0 0
1538 1 40.524385019840594 16.865192923516638 6.501299444074872 0 0 0
347 1 26.854647648290026 20.693524855785448 3.9995293649154893 0 0 1
558 1 29.538416584910863 20.03655889329855 4.304570624614193 0 0 1
342 1 37.73305028935995 20.961145168020614 3.6862042733827938 0 0 0
352 1 40.52682971770314 21.209566667568765 5.053909148553501 0 0 1
655 1 41.52402881636911 18.70995773883489 4.357747667107487 0 0 -1
757 1 44.22899314328289 18.81149811253769 4.709968434975014 0 0 -1
1503 1 45.305841413567144 15.60339241547803 11.49490602242153 0 0 0
477 1 30.78746882457317 0.8827234159120092 11.649650925126872 0 1 0
296 1 26.036013302425005 1.3653063516186075 7.119905155167095 0 1 1
489 1 33.9376599239737 1.3754300208535555 9.617710718070459 0 0 0
409 1 38.02450040267472 2.447179292296476 7.393386753670767 0 1 0
355 1 39.768153170019694 0.2528042432047718 8.174509041336654 0 1 0
1531 1 42.46039984063718 3.6317823390593036 9.078843559922923 0 0 0
1282 1 42.36387942164772 0.7351777619177993 7.173200922506613 0 1 -1
1456 1 40.228750560249026 2.9497414950022933 10.98973686902833 0 0 0
1451 1 34.12719704540887 0.18733380739794214 7.155619350794391 0 1 0
471 1 43.65912539251955 2.291820142976699 5.05928580631356 0 0 1
581 1 34.94223936305174 20.456948092075947 1.4038191830695856 0 0 1
356 1 25.012914938633397 1.584713248488294 9.877697092930175 0 1 1
370 1 33.08722975278721 5.6166391971112 9.319260747279774 0 0 0
444 1 29.27828390979631 3.4687414942369448 9.57479705247595 0 0 0
412 1 37.84838228509599 4.051692846690159 9.67605112386452 0 0 -1
1467 1 41.86886312364596 6.427095603888641 10.296450633480195 0 0 1
310 1 42.46633733646199 4.603020360158663 6.260386521712448 0 0 0
399 1 27.539644847259694 19.500459168829117 8.131774291868306 0 0 2
2 1 25.55437320140714 6.637786083209743 9.247234118648741 0 0 0
376 1 26.949360275063547 6.063527445732375 6.788284844970902 0 1 0
384 1 28.526261449279755 4.712711085970702 12.009971195524752 0 0 0
417 1 31.265234821266386 7.099606955609169 7.991144022206446 0 1 -1
486 1 28.75563278581056 7.387844300205113 9.223303512848812 0 0 -1
430 1 35.90893645383112 6.27757982239446 8.382878403188169 0 0 0
431 1 36.46406902968311 5.1038570359156665 5.668777382252042 0 0 0