
# read in graphite data
read_data data.graphite group graphite extra/atom/types 1
Reading data file ...
  orthogonal box = (0.0000000 0.0000000 0.0000000) to (68.908000 85.848302 10.062000)
  3 by 4 by 1 MPI processor grid
  reading atoms ...
  6804 atoms
  reading velocities ...
  6804 velocities
  read_data CPU = 0.168 seconds

# Insert water
read_data data.Ibeam_MLmW_240K add append shift 0.0 0.0 ${Z_G} group water offset 1 0 0 0 0
read_data data.Ibeam_MLmW_240K add append shift 0.0 0.0 10.062 group water offset 1 0 0 0 0
Reading data file ...
  orthogonal box = (0.0000000 0.0000000 0.0000000) to (68.908000 85.848302 27.975384)
  3 by 4 by 1 MPI processor grid
  reading atoms ...
  1820 atoms
  reading velocities ...
  1820 velocities
  read_data CPU = 0.148 seconds


# Define potential
# CHECK ON THIS %%%%%%%%%%%%
#
pair_style sw
pair_coeff * * MLC_e.sw C mW


# Delete water and ice atoms that are overlapping
#
delete_atoms overlap 2.5 water graphite
System init for delete_atoms ...
Neighbor list info ...
  update every 1 steps, delay 10 steps, check yes
  max neighbors/atom: 2000, page size: 100000
  master list distance cutoff = 6.6747184
  ghost atom cutoff = 6.6747184
  binsize = 3.3373592, bins = 21 26 9
  2 neighbor lists, perpetual/occasional/extra = 1 1 0
  (1) command delete_atoms, occasional, copy from (2)
      attributes: full, newton on
      pair build: copy
      stencil: none
      bin: none
  (2) pair sw, perpetual
      attributes: full, newton on
      pair build: full/bin/atomonly
      stencil: full/bin/3d
      bin: standard
Deleted 131 atoms, new total = 8493

write_data test.${NAME}
write_data test.Ibeam_240K
System init for write_data ...
Neighbor list info ...
  update every 1 steps, delay 10 steps, check yes
  max neighbors/atom: 2000, page size: 100000
  master list distance cutoff = 6.6747184
  ghost atom cutoff = 6.6747184
  binsize = 3.3373592, bins = 21 26 9
  1 neighbor lists, perpetual/occasional/extra = 1 0 0
  (1) pair sw, perpetual
      attributes: full, newton on
      pair build: full/bin/atomonly
      stencil: full/bin/3d
      bin: standard


# Fix graphite atoms in place
#
fix 1 graphite setforce 0.0 0.0 0.0
velocity graphite set 0.0 0.0 0.0
velocity water create ${TEMP} 120598 rot yes dist gaussian
velocity water create 240 120598 rot yes dist gaussian
timestep 5.0

# Define output
#

compute 1 water msd
compute 2 water stress/atom NULL
compute 3 water temp

thermo 100
thermo_style custom step c_3 press vol etotal ke pe c_1[4] density

# Neighbor lists
#
neigh_modify delay 0 every 1 check yes




# Set fixes
#
fix                 2 water momentum 10 linear 1 1 1 rescale
fix                 3 all nve
fix                 4 water temp/csvr ${TEMP} ${TEMP} 500.0 928347
fix                 4 water temp/csvr 240 ${TEMP} 500.0 928347
fix                 4 water temp/csvr 240 240 500.0 928347

# Run 0.25 ns equilibration
#
dump                1 all custom 100 eq.${NAME}.dump id type x y z vx vy vz
dump                1 all custom 100 eq.Ibeam_240K.dump id type x y z vx vy vz
run                 50000
Per MPI rank memory allocation (min/avg/max) = 5.632 | 5.634 | 5.635 Mbytes
Step c_3 Press Volume TotEng KinEng PotEng c_1[4] Density 
       0          240   -920.91976    165492.15   -14960.193    1207.5858   -16167.778            0    1.1252403 
     100    271.52229    -868.6223    165492.15   -15049.472    1366.1936   -16415.665    1.5088961    1.1252403 
     200    275.95007   -593.14585    165492.15   -15256.391    1388.4724   -16644.864    3.1268009    1.1252403 
     300    263.98427    -318.3868    165492.15    -15380.06    1328.2652   -16708.325    4.7699299    1.1252403 
     400    254.67414   -610.31708    165492.15   -15508.711    1281.4203   -16790.131    6.0929388    1.1252403 
     500    251.00706   -622.98463    165492.15   -15610.393     1262.969   -16873.362    6.9708898    1.1252403 
     600    243.72507   -663.49304    165492.15   -15764.948    1226.3289   -16991.276    7.5640726    1.1252403 
     700    247.88772   -366.37121    165492.15   -15812.531    1247.2737   -17059.804     8.133523    1.1252403 
     800    243.07471   -423.71612    165492.15   -15905.572    1223.0565   -17128.629    8.4942134    1.1252403 
     900    244.99449   -316.80846    165492.15   -15914.213    1232.7161   -17146.929     8.871544    1.1252403 
    1000    247.95256   -330.25152    165492.15   -15895.849       1247.6   -17143.449    9.2559389    1.1252403 
    1100     247.4012   -520.67079    165492.15   -15936.652    1244.8257   -17181.478    9.5445231    1.1252403 
    1200    234.64451   -425.27662    165492.15   -16004.045    1180.6391   -17184.684    10.145516    1.1252403 
    1300    241.68127   -313.01299    165492.15   -15981.695    1216.0452    -17197.74    10.706695    1.1252403 
    1400    243.03252     -263.916    165492.15   -15932.192    1222.8442   -17155.036    10.970794    1.1252403 
    1500    240.35788   -535.81789    165492.15   -15946.414    1209.3865   -17155.801    11.328265    1.1252403 
    1600    245.85743   -214.98254    165492.15   -15941.548    1237.0581   -17178.606    11.839689    1.1252403 
    1700    241.78265   -310.58331    165492.15   -15968.645    1216.5554     -17185.2     12.21729    1.1252403 
    1800    238.89738   -443.97562    165492.15   -15975.847    1202.0378   -17177.885    12.426763    1.1252403 
    1900     249.1957   -507.74696    165492.15   -15909.399    1253.8549   -17163.254    12.862796    1.1252403 
    2000    254.11448   -548.02853    165492.15   -15901.109    1278.6043   -17179.713    13.649584    1.1252403 
    2100    243.67827   -538.46659    165492.15   -15917.381    1226.0934   -17143.474     14.23539    1.1252403 
    2200    245.97034   -380.18012    165492.15   -15923.338    1237.6262   -17160.965    14.871576    1.1252403 
    2300    242.22366   -528.54155    165492.15   -15978.812    1218.7744   -17197.587    15.322937    1.1252403 
    2400    237.82414   -474.98802    165492.15   -15981.865    1196.6377   -17178.503    15.755259    1.1252403 
    2500    236.77275   -439.60191    165492.15   -15985.251    1191.3475   -17176.598    16.217476    1.1252403 
    2600    239.34612   -624.07693    165492.15   -16016.536    1204.2957   -17220.832    16.561536    1.1252403 
    2700     247.4785    -355.5487    165492.15   -15994.535    1245.2146    -17239.75    17.280178    1.1252403 
    2800    245.95609   -530.16811    165492.15   -16012.484    1237.5545   -17250.038    17.407971    1.1252403 
    2900    239.83312   -349.98871    165492.15   -16071.215    1206.7461   -17277.961    17.747404    1.1252403 
    3000    233.81694     -347.945    165492.15   -16102.374     1176.475   -17278.849    18.276918    1.1252403 
    3100    235.40866   -493.99907    165492.15   -16084.942    1184.4839   -17269.426    18.344985    1.1252403 
    3200    236.20326   -501.18085    165492.15   -16105.585    1188.4821   -17294.067     18.38168    1.1252403 
    3300    248.03025   -339.11754    165492.15   -16069.193    1247.9908   -17317.184    18.822908    1.1252403 
    3400    237.61203   -296.04947    165492.15     -16072.1    1195.5704   -17267.671    19.120986    1.1252403 
    3500    238.83817   -607.86991    165492.15   -16076.538    1201.7399   -17278.278    19.309468    1.1252403 
    3600    242.50293   -481.33009    165492.15   -16078.721    1220.1796   -17298.901    19.926935    1.1252403 
    3700     239.4928   -462.23102    165492.15   -16106.023    1205.0337   -17311.057    19.997885    1.1252403 
    3800    237.89863   -461.12356    165492.15   -16077.174    1197.0125   -17274.186    20.292211    1.1252403 
    3900    235.93404   -454.56191    165492.15   -16084.348    1187.1275   -17271.476    20.621843    1.1252403 
    4000    238.83989   -309.02039    165492.15   -16105.563    1201.7485   -17307.312    21.069317    1.1252403 
    4100    239.04659   -697.70817    165492.15   -16080.429    1202.7886   -17283.218    21.303168    1.1252403 
    4200    238.79001   -564.39962    165492.15   -16051.361    1201.4976   -17252.859    21.933561    1.1252403 
    4300    248.58206    -432.5401    165492.15   -15972.182    1250.7673   -17222.949    22.384217    1.1252403 
    4400     242.4884   -531.72269    165492.15   -15989.437    1220.1064   -17209.544    22.544653    1.1252403 
    4500    247.31967   -509.37402    165492.15   -16035.069    1244.4155   -17279.484    22.881061    1.1252403 
    4600    240.12278   -575.40964    165492.15   -16053.377    1208.2035   -17261.581     23.54222    1.1252403 
    4700    241.11475   -374.51138    165492.15    -16049.59    1213.1947   -17262.784    23.982024    1.1252403 
    4800    241.23328   -599.04901    165492.15   -16022.205    1213.7911   -17235.997    24.439619    1.1252403 
    4900    246.66725   -545.87139    165492.15   -16020.412    1241.1328   -17261.545    25.045976    1.1252403 
    5000    237.94388    -403.0648    165492.15   -16052.539    1197.2402   -17249.779    25.075582    1.1252403 
    5100    238.29775   -547.52038    165492.15   -16083.126    1199.0207   -17282.146     25.21591    1.1252403 
    5200    239.90353   -358.06671    165492.15   -16067.941    1207.1004   -17275.041    25.528258    1.1252403 
    5300    235.57693   -502.81938    165492.15   -16129.547    1185.3306   -17314.878    25.869409    1.1252403 
    5400    233.65583   -586.58869    165492.15    -16099.98    1175.6644   -17275.644    26.032449    1.1252403 
    5500    231.38848   -640.43236    165492.15    -16119.16     1164.256   -17283.416    26.401255    1.1252403 
    5600    241.57627   -421.93072    165492.15   -16131.179     1215.517   -17346.696    27.108885    1.1252403 
    5700     240.2029   -434.50053    165492.15   -16099.274    1208.6067   -17307.881     27.31682    1.1252403 
    5800    239.65101   -593.15792    165492.15   -16020.386    1205.8298   -17226.216     27.78086    1.1252403 
    5900    246.12975   -597.05592    165492.15   -16049.129    1238.4282   -17287.557    28.051547    1.1252403 
    6000    233.55459   -560.48289    165492.15    -16128.48     1175.155   -17303.635    28.182265    1.1252403 
    6100    238.10157    -511.0714    165492.15   -16117.922    1198.0336   -17315.956     28.41148    1.1252403 
    6200    238.62704   -457.07487    165492.15   -16101.144    1200.6776   -17301.821    29.081371    1.1252403 
    6300    247.40757   -460.81555    165492.15    -16080.28    1244.8578   -17325.138    29.519992    1.1252403 
    6400    240.98921   -355.09168    165492.15    -16067.22    1212.5631   -17279.783     29.80154    1.1252403 
    6500    239.99462   -387.44592    165492.15   -16091.534    1207.5587   -17299.093    30.409652    1.1252403 
    6600    233.13129   -375.89705    165492.15   -16124.111    1173.0251   -17297.136    30.865138    1.1252403 
    6700    232.20333    -364.7516    165492.15   -16152.821     1168.356   -17321.177    31.007768    1.1252403 
    6800    234.99782   -381.11279    165492.15   -16122.267    1182.4168   -17304.684    31.255972    1.1252403 
    6900     234.9545   -558.95559    165492.15   -16141.724    1182.1988   -17323.923    31.273385    1.1252403 
    7000    232.19115    -465.1154    165492.15   -16141.603    1168.2947   -17309.898    31.565552    1.1252403 
    7100    244.63502    -428.9566    165492.15   -16084.355    1230.9074   -17315.262    32.348362    1.1252403 
    7200    238.36014   -452.04626    165492.15   -16074.517    1199.3346   -17273.852    32.661704    1.1252403 
    7300    234.72425   -567.56421    165492.15   -16141.702    1181.0403   -17322.742    32.912052    1.1252403 
    7400    235.37044    -312.7491    165492.15   -16148.544    1184.2917   -17332.836    33.304324    1.1252403 
    7500    238.24667   -403.15802    165492.15   -16184.875    1198.7637   -17383.639    33.532179    1.1252403 
    7600    238.80395   -468.59703    165492.15    -16210.23    1201.5677   -17411.798    34.061097    1.1252403 
    7700    234.93499   -483.97911    165492.15    -16201.03    1182.1006   -17383.131    34.335494    1.1252403 
    7800     248.2741   -387.47077    165492.15   -16151.021    1249.2178   -17400.239    34.098736    1.1252403 
    7900    239.68064   -416.94565    165492.15   -16135.731    1205.9789    -17341.71    34.837795    1.1252403 
    8000    248.24967   -270.11023    165492.15   -16129.573    1249.0949   -17378.668    34.891789    1.1252403 
    8100     236.4036   -494.29029    165492.15   -16156.479    1189.4901   -17345.969    35.051211    1.1252403 
    8200    230.92012   -598.82275    165492.15   -16183.982    1161.8994   -17345.881    35.046731    1.1252403 
    8300     229.2792   -488.70167    165492.15   -16191.845    1153.6429   -17345.488    35.505706    1.1252403 
    8400     232.3072   -493.89853    165492.15   -16169.717    1168.8786   -17338.595    36.045707    1.1252403 
    8500    239.59846   -461.76852    165492.15   -16201.463    1205.5654   -17407.028    36.625025    1.1252403 
    8600    239.82681   -327.18518    165492.15   -16146.106    1206.7143   -17352.821    37.185563    1.1252403 
    8700    239.64681     -334.482    165492.15   -16212.791    1205.8086     -17418.6    37.361118    1.1252403 
    8800    240.21578   -343.79852    165492.15   -16160.362    1208.6715   -17369.034    37.912385    1.1252403 
    8900    234.18583   -604.23764    165492.15   -16173.007    1178.3311   -17351.338    38.503609    1.1252403 
    9000     240.0192   -484.92509    165492.15   -16125.588    1207.6824   -17333.271    38.761812    1.1252403 
    9100    244.90353   -445.23051    165492.15   -16105.263    1232.2584   -17337.521    38.622719    1.1252403 
    9200    234.90512   -403.73076    165492.15   -16150.064    1181.9503   -17332.014    38.924204    1.1252403 
    9300    235.12735   -503.31291    165492.15   -16172.928    1183.0685   -17355.997    39.006807    1.1252403 
    9400    234.95647    -488.7895    165492.15   -16198.843    1182.2087   -17381.052    39.161009    1.1252403 
    9500    238.98372   -563.45046    165492.15   -16149.027    1202.4722   -17351.499    39.595815    1.1252403 
    9600    229.28113   -503.26013    165492.15   -16202.823    1153.6526   -17356.476    39.489624    1.1252403 
    9700      241.929   -442.32795    165492.15   -16166.631    1217.2917   -17383.923    39.681305    1.1252403 
    9800    235.39043   -450.47444    165492.15   -16165.267    1184.3922   -17349.659    40.365179    1.1252403 
    9900    240.62896   -401.40584    165492.15   -16135.942    1210.7505   -17346.692    40.411222    1.1252403 
   10000      249.477    -615.7529    165492.15   -16065.485    1255.2703   -17320.755    40.648036    1.1252403 
   10100    240.75626   -390.40709    165492.15   -16084.683     1211.391   -17296.074    40.822436    1.1252403 
   10200    247.36881   -493.52889    165492.15   -16074.614    1244.6627   -17319.277    40.863308    1.1252403 
   10300    243.81748   -568.01215    165492.15   -16059.207    1226.7938   -17286.001    40.953987    1.1252403 
   10400    238.66755   -384.59305    165492.15   -16080.541    1200.8814   -17281.423    41.166146    1.1252403 
   10500    235.08751   -361.25763    165492.15   -16098.856    1182.8681   -17281.724    41.386592    1.1252403 
   10600    247.00918   -650.07149    165492.15   -16067.595    1242.8532   -17310.448    41.730479    1.1252403 
   10700    246.01275    -407.8128    165492.15   -16096.885    1237.8396   -17334.725    41.837885    1.1252403 
   10800     240.9971   -587.34708    165492.15   -16110.962    1212.6028   -17323.565    42.152998    1.1252403 
   10900    240.83956   -588.89856    165492.15   -16155.643    1211.8101   -17367.453    42.492869    1.1252403 
   11000    243.85982   -634.93253    165492.15   -16127.092    1227.0069   -17354.099    42.802247    1.1252403 
   11100    237.78601   -511.71431    165492.15   -16077.361    1196.4459   -17273.807    43.106618    1.1252403 
   11200    235.44763   -580.90211    165492.15   -16123.933      1184.68   -17308.613     43.79221    1.1252403 
   11300    236.39954   -472.51599    165492.15   -16156.153    1189.4696   -17345.622    44.206976    1.1252403 
   11400    238.60348   -459.58718    165492.15   -16123.546     1200.559   -17324.105    43.997844    1.1252403 
   11500    243.55516    -459.1687    165492.15   -16064.165     1225.474   -17289.639    44.384639    1.1252403 
   11600    237.04986    -373.6787    165492.15   -16101.661    1192.7418   -17294.403    44.631589    1.1252403 
   11700    245.79284   -421.73455    165492.15   -16087.727    1236.7331    -17324.46    44.778815    1.1252403 
   11800    246.66022    -361.1704    165492.15   -16095.471    1241.0974   -17336.568    45.043649    1.1252403 
   11900    237.48392   -270.83203    165492.15   -16139.857    1194.9258   -17334.783    44.773666    1.1252403 
   12000    249.88194    -369.5964    165492.15   -16081.637    1257.3078   -17338.945    44.951088    1.1252403 
   12100    240.14126   -542.15209    165492.15   -16082.864    1208.2966   -17291.161    44.985384    1.1252403 
   12200    234.82406   -400.30765    165492.15    -16117.01    1181.5425   -17298.552    45.291872    1.1252403 
   12300    240.32093   -435.69269    165492.15   -16160.475    1209.2006   -17369.675    45.311824    1.1252403 
   12400    242.43723   -392.61264    165492.15   -16082.205     1219.849   -17302.054     45.70488    1.1252403 
   12500    243.33541   -271.65578    165492.15   -16081.316    1224.3682   -17305.684    45.845785    1.1252403 
   12600      250.216   -411.21112    165492.15   -16039.517    1258.9887   -17298.506    45.669712    1.1252403 
   12700    241.23145   -395.88633    165492.15   -16082.076    1213.7819   -17295.858    46.497698    1.1252403 
   12800    234.46085   -431.81571    165492.15   -16122.682    1179.7149   -17302.397     46.68239    1.1252403 
   12900    242.02332   -375.56723    165492.15   -16133.616    1217.7663   -17351.382    46.645616    1.1252403 
   13000    240.12931   -534.37802    165492.15   -16163.669    1208.2364   -17371.905    46.986067    1.1252403 
   13100    235.78733   -466.73205    165492.15   -16151.293    1186.3893   -17337.682    47.448919    1.1252403 
   13200    242.33219   -638.65558    165492.15   -16119.909    1219.3204   -17339.229    47.702098    1.1252403 
   13300    246.03407    -661.8012    165492.15   -16104.376    1237.9468   -17342.323    47.993246    1.1252403 
   13400     238.2001    -348.5662    165492.15   -16077.361    1198.5294    -17275.89    48.407167    1.1252403 
   13500    242.07428   -588.65458    165492.15   -16098.618    1218.0227   -17316.641    48.588855    1.1252403 
   13600    240.52564   -521.26013    165492.15     -16076.8    1210.2306   -17287.031    48.359947    1.1252403 
   13700     231.3555   -388.28528    165492.15    -16150.54    1164.0901    -17314.63      49.0217    1.1252403 
   13800    240.08203   -501.29589    165492.15   -16113.462    1207.9985   -17321.461     49.27272    1.1252403 
   13900     235.8542   -504.38426    165492.15   -16093.476    1186.7257   -17280.202    49.468969    1.1252403 
   14000    246.42781    -483.8738    165492.15   -16088.254     1239.928   -17328.182    49.645873    1.1252403 
   14100    237.43128   -377.81771    165492.15   -16114.877     1194.661   -17309.538    49.927921    1.1252403 
   14200    237.83471   -408.89358    165492.15   -16158.831    1196.6909   -17355.522    50.186891    1.1252403 
   14300    227.13787   -501.42197    165492.15   -16155.013    1142.8686   -17297.882    50.457022    1.1252403 
   14400    232.85994   -379.47065    165492.15   -16175.763    1171.6598   -17347.423    50.913911    1.1252403 
   14500     237.1047   -512.75083    165492.15   -16161.436    1193.0177   -17354.454    51.349711    1.1252403 
   14600     230.9657     -553.834    165492.15    -16149.67    1162.1287   -17311.799    51.946419    1.1252403 
   14700    231.96667   -496.66196    165492.15   -16140.898    1167.1652   -17308.063     51.95072    1.1252403 
   14800    233.66411   -541.46316    165492.15   -16113.206    1175.7061   -17288.912     52.40451    1.1252403 
   14900      243.587   -595.18225    165492.15    -16121.33    1225.6341   -17346.964    52.979315    1.1252403 
   15000    237.53875   -545.58566    165492.15   -16087.909    1195.2017    -17283.11     53.09376    1.1252403 
   15100    244.62012   -430.83191    165492.15   -16105.554    1230.8324   -17336.386    54.251598    1.1252403 
   15200    235.10702   -272.44112    165492.15   -16144.648    1182.9662   -17327.614    54.359946    1.1252403 
   15300    232.28844   -470.79685    165492.15   -16152.253    1168.7842   -17321.037    54.889862    1.1252403 
   15400    244.27361   -398.22041    165492.15    -16109.86    1229.0889   -17338.949    55.443854    1.1252403 
   15500    237.63436   -420.60801    165492.15   -16106.191    1195.6828   -17301.874    56.057828    1.1252403 
   15600    237.63685   -268.39373    165492.15   -16155.558    1195.6953   -17351.253     56.32854    1.1252403 
   15700    233.79076   -430.41196    165492.15   -16148.724    1176.3433   -17325.067    56.734188    1.1252403 
   15800    239.92686   -495.10241    165492.15   -16072.617    1207.2178   -17279.835    56.981258    1.1252403 
   15900    245.73465    -410.3303    165492.15   -16095.917    1236.4403   -17332.357    57.809214    1.1252403 
   16000    239.25493   -565.79266    165492.15   -16096.699    1203.8369   -17300.536    58.181557    1.1252403 
   16100    245.33222   -367.31289    165492.15    -16079.62    1234.4154   -17314.035    58.243678    1.1252403 
   16200    248.18929   -375.60264    165492.15   -16047.363    1248.7911   -17296.154    58.470296    1.1252403 
   16300     247.5192   -460.06336    165492.15   -16059.377    1245.4195   -17304.796    58.733741    1.1252403 
   16400    245.13924    -538.9981    165492.15   -16023.608    1233.4444   -17257.052    59.129822    1.1252403 
   16500    249.89953   -455.69974    165492.15   -15993.012    1257.3963   -17250.409    59.638507    1.1252403 
   16600    237.23203   -579.63342    165492.15   -16043.076    1193.6584   -17236.734    59.358184    1.1252403 
   16700    233.00358   -562.98466    165492.15   -16058.464    1172.3825   -17230.847    60.006513    1.1252403 
   16800    245.91615   -418.93438    165492.15   -16031.651    1237.3535   -17269.004    60.093992    1.1252403 
   16900    239.19104   -574.20358    165492.15   -16076.359    1203.5154   -17279.874    60.385902    1.1252403 
   17000     238.8024   -273.97888    165492.15   -16024.987    1201.5599   -17226.546    60.641478    1.1252403 
   17100    234.76035   -598.01521    165492.15   -16052.654    1181.2219   -17233.875    60.755019    1.1252403 
   17200    241.37001   -547.99861    165492.15   -16037.835    1214.4791   -17252.315    61.081993    1.1252403 
   17300    240.45293   -425.41637    165492.15   -16023.265    1209.8647   -17233.129    60.956675    1.1252403 
   17400    240.18319   -362.06197    165492.15   -16001.663    1208.5075    -17210.17     61.15133    1.1252403 
   17500    242.07286   -670.88949    165492.15   -16046.573    1218.0156   -17264.589    61.743607    1.1252403 
   17600    251.78601   -345.56839    165492.15   -16020.738    1266.8883   -17287.627    62.270834    1.1252403 
   17700    250.55302   -194.01234    165492.15   -16020.748    1260.6844   -17281.433    63.077894    1.1252403 
   17800    242.26014   -375.99103    165492.15    -16024.81    1218.9579   -17243.768    63.725867    1.1252403 
   17900    245.34887   -486.20523    165492.15   -16071.118    1234.4992   -17305.617    64.333698    1.1252403 
   18000    240.07926   -285.05882    165492.15   -16067.695    1207.9846   -17275.679    64.888336    1.1252403 
   18100     240.3859   -495.45587    165492.15   -16061.247    1209.5275   -17270.775    65.511522    1.1252403 
   18200    236.82599    -440.3962    165492.15   -16064.596    1191.6154   -17256.212     65.90376    1.1252403 
   18300      247.563   -454.68352    165492.15   -16073.333    1245.6398   -17318.973    66.858151    1.1252403 
   18400    236.32241   -501.25739    165492.15   -16092.581    1189.0816   -17281.663    67.055942    1.1252403 
   18500    237.71409    -390.6154    165492.15   -16102.187     1196.084   -17298.271     67.13665    1.1252403 
   18600    241.84553   -499.40781    165492.15   -16058.292    1216.8718   -17275.164    67.584112    1.1252403 
   18700    239.88802   -363.12704    165492.15    -16047.13    1207.0223   -17254.152    67.552922    1.1252403 
   18800    246.71946   -382.56622    165492.15   -16056.617    1241.3954   -17298.012    67.901755    1.1252403 
   18900    240.09359   -279.68259    165492.15   -16054.569    1208.0567   -17262.626    68.534946    1.1252403 
   19000      240.501   -541.54706    165492.15   -16052.615    1210.1066   -17262.722    68.659918    1.1252403 
   19100    239.02535   -433.73933    165492.15   -16004.239    1202.6817    -17206.92     68.60469    1.1252403 
   19200    245.76249   -411.94028    165492.15    -16042.36    1236.5803    -17278.94    68.698334    1.1252403 
   19300    237.31733     -170.208    165492.15   -16069.264    1194.0876   -17263.351       68.612    1.1252403 
   19400    247.94935   -436.04442    165492.15   -16046.773    1247.5838   -17294.357    69.433125    1.1252403 
   19500    227.77339   -545.30022    165492.15   -16110.178    1146.0663   -17256.244    70.367601    1.1252403 
   19600    236.38865   -548.14591    165492.15   -16085.584    1189.4149   -17274.999    71.382388    1.1252403 
   19700    241.04089   -422.74984    165492.15   -16105.592    1212.8231   -17318.415    72.349127    1.1252403 
   19800    237.10532   -500.31125    165492.15    -16089.91    1193.0209   -17282.931    73.091066    1.1252403 
   19900    239.67057   -565.36536    165492.15   -16097.802    1205.9282    -17303.73    73.057053    1.1252403 
   20000    233.45583   -464.06075    165492.15   -16117.873    1174.6581   -17292.531    73.224076    1.1252403 
   20100    233.15827   -455.81326    165492.15   -16062.937    1173.1609   -17236.098     73.55839    1.1252403 
   20200    236.73505   -496.98553    165492.15   -16094.842    1191.1578       -17286    73.318664    1.1252403 
   20300    231.28551   -311.70807    165492.15   -16121.179    1163.7379   -17284.917    73.719183    1.1252403 
   20400    228.91126   -664.98576    165492.15   -16175.664    1151.7916   -17327.455    73.776682    1.1252403 
   20500    233.13375   -433.35571    165492.15   -16159.206    1173.0375   -17332.243    74.044504    1.1252403 
   20600     232.4535   -478.83527    165492.15   -16129.404    1169.6148   -17299.019    74.509673    1.1252403 
   20700     244.5699   -594.56307    165492.15   -16140.585    1230.5797   -17371.165    74.730525    1.1252403 
   20800    242.71591     -550.659    165492.15   -16108.306    1221.2512   -17329.557    74.881826    1.1252403 
   20900    238.29303   -418.87291    165492.15   -16129.678    1198.9969   -17328.675    74.162243    1.1252403 
   21000    237.19414   -338.44113    165492.15   -16116.566    1193.4678   -17310.034    73.404561    1.1252403 
   21100    243.29764   -618.30215    165492.15   -16064.992    1224.1782    -17289.17     73.60555    1.1252403 
   21200    243.12778   -459.31262    165492.15   -16043.736    1223.3235    -17267.06    73.519434    1.1252403 
   21300    235.66251   -286.74342    165492.15   -16071.374    1185.7612   -17257.135    73.053731    1.1252403 
   21400    235.24726   -525.73056    165492.15   -16113.097    1183.6718   -17296.769    72.537823    1.1252403 
   21500    238.01446   -677.20326    165492.15   -16105.521    1197.5953   -17303.117    72.377701    1.1252403 
   21600    239.03429   -452.49293    165492.15   -16058.082    1202.7267   -17260.808    72.326571    1.1252403 
   21700    237.90794   -416.80072    165492.15    -16062.48    1197.0594   -17259.539    72.350596    1.1252403 
   21800    240.69339   -519.89914    165492.15    -16026.77    1211.0746   -17237.845    72.568312    1.1252403 
   21900    253.24029     -648.982    165492.15   -15981.583    1274.2057   -17255.789    72.317238    1.1252403 
   22000    246.89725   -387.77306    165492.15   -16067.343      1242.29   -17309.633    72.912332    1.1252403 
   22100    239.08372   -615.87956    165492.15   -16057.719    1202.9754   -17260.695    72.824072    1.1252403 
   22200    236.63112   -593.65772    165492.15   -16040.372    1190.6349   -17231.007    72.906288    1.1252403 
   22300    238.61419   -423.18134    165492.15   -16019.874    1200.6129   -17220.487    73.560713    1.1252403 
   22400    244.89162   -322.67194    165492.15   -16051.595    1232.1985   -17283.794    73.791426    1.1252403 
   22500    239.91811   -540.15909    165492.15   -16051.548    1207.1737   -17258.722    74.207814    1.1252403 
   22600    233.36178   -227.33258    165492.15   -16063.456    1174.1849   -17237.641    74.901957    1.1252403 
   22700    237.26884   -639.20545    165492.15   -16064.953    1193.8436   -17258.796    75.249773    1.1252403 
   22800    238.41737   -429.94535    165492.15   -16038.825    1199.6226   -17238.448    75.848472    1.1252403 
   22900    241.41471    -256.4696    165492.15    -16047.11     1214.704   -17261.815    76.491418    1.1252403 
   23000    236.85242   -526.67143    165492.15   -16080.207    1191.7484   -17271.956    76.910775    1.1252403 
   23100    236.18472   -459.38764    165492.15   -16111.758    1188.3888   -17300.147    76.745543    1.1252403 
   23200    236.84558   -489.66786    165492.15   -16117.552     1191.714   -17309.266    77.253587    1.1252403 
   23300    229.58386   -431.02615    165492.15   -16120.178    1155.1758   -17275.353    77.880247    1.1252403 
   23400    237.20522   -410.37415    165492.15   -16070.193    1193.5235   -17263.717    78.111254    1.1252403 
   23500    240.29775   -210.31154    165492.15    -16087.32    1209.0839   -17296.404    77.750661    1.1252403 
   23600    237.91184   -416.45275    165492.15   -16133.297     1197.079   -17330.376    77.780691    1.1252403 
   23700    240.51359   -462.54119    165492.15   -16106.287    1210.1699   -17316.457    77.354865    1.1252403 
   23800    238.26624   -655.63913    165492.15   -16137.172    1198.8622   -17336.034    77.703848    1.1252403 
   23900    241.28641    -453.0414    165492.15   -16130.275    1214.0585   -17344.334    78.169922    1.1252403 
   24000    240.57122   -504.25044    165492.15    -16108.93    1210.4599    -17319.39     78.11204    1.1252403 
   24100    244.13817   -136.01282    165492.15   -16083.243    1228.4074    -17311.65    77.957201    1.1252403 
   24200     239.8966   -470.28454    165492.15    -16101.93    1207.0655   -17308.996    77.822603    1.1252403 
   24300    236.10766   -576.95781    165492.15   -16059.735    1188.0011   -17247.736    78.425325    1.1252403 
   24400    238.25277   -286.74744    165492.15   -16046.894    1198.7944   -17245.689    78.938186    1.1252403 
   24500     242.7235   -557.99534    165492.15   -16074.922    1221.2894   -17296.212    79.275095    1.1252403 
   24600    239.14936   -557.94449    165492.15   -16097.032    1203.3057   -17300.338    79.900908    1.1252403 
   24700    230.09164   -523.92764    165492.15   -16074.473    1157.7308   -17232.204    79.731402    1.1252403 
   24800    233.05863   -618.88649    165492.15    -16061.77    1172.6595   -17234.429    80.016777    1.1252403 
   24900    238.41162   -224.06869    165492.15   -16024.506    1199.5937   -17224.099    80.307208    1.1252403 
   25000    240.74308   -663.97577    165492.15   -16018.225    1211.3247    -17229.55    81.133864    1.1252403 
   25100    246.57115   -506.95759    165492.15   -16051.375    1240.6492   -17292.024    81.371046    1.1252403 
   25200    242.30615   -450.81634    165492.15   -16035.297    1219.1894   -17254.487    81.726194    1.1252403 
   25300    241.49516   -565.30497    165492.15   -16008.585    1215.1088   -17223.694    82.450158    1.1252403 
   25400    239.78025   -655.13022    165492.15   -16019.691    1206.4801   -17226.171    83.354024    1.1252403 
   25500    240.06256   -422.95191    165492.15    -16031.55    1207.9005   -17239.451    84.162061    1.1252403 
   25600    245.23457   -558.12581    165492.15   -16019.119    1233.9241   -17253.043     84.94032    1.1252403 
   25700    245.67966   -529.35214    165492.15   -16042.885    1236.1636   -17279.049    85.130539    1.1252403 
   25800    237.10073   -676.52775    165492.15   -16050.772    1192.9978    -17243.77    85.035466    1.1252403 
   25900    240.12658    -380.2883    165492.15   -16087.557    1208.2226    -17295.78    85.584075    1.1252403 
   26000    236.77835   -475.09342    165492.15   -16093.869    1191.3757   -17285.245    85.681068    1.1252403 
   26100    246.63524   -397.97377    165492.15   -16075.851    1240.9717   -17316.823    86.048875    1.1252403 
   26200    241.97135   -415.39073    165492.15   -16086.337    1217.5048   -17303.842    85.767718    1.1252403 
   26300    244.63507   -351.88955    165492.15    -16128.38    1230.9076   -17359.288    86.335217    1.1252403 
   26400    232.01071   -628.75626    165492.15   -16152.747    1167.3868   -17320.134    86.584104    1.1252403 
   26500    235.59612   -507.64263    165492.15   -16155.332    1185.4272   -17340.759    86.247923    1.1252403 
   26600    234.15593   -236.26737    165492.15   -16158.099    1178.1807   -17336.279    86.558703    1.1252403 
   26700     233.7864   -408.98605    165492.15   -16166.053    1176.3214   -17342.375    87.142186    1.1252403 
   26800      235.205   -628.81797    165492.15   -16090.173    1183.4592   -17273.632     86.92714    1.1252403 
   26900     236.1373   -304.99456    165492.15   -16080.236    1188.1502   -17268.387    87.557933    1.1252403 
   27000    249.51577   -446.27316    165492.15   -16080.866    1255.4654   -17336.332    87.964486    1.1252403 
   27100    234.17092   -478.68227    165492.15   -16050.523    1178.2561   -17228.779    88.534148    1.1252403 
   27200    241.67283   -435.70049    165492.15   -15997.653    1216.0028   -17213.656     89.23744    1.1252403 
   27300    239.41278   -219.42343    165492.15    -16089.42    1204.6311   -17294.051    89.630894    1.1252403 
   27400    246.24018   -384.64002    165492.15   -16057.668    1238.9839   -17296.652    89.806985    1.1252403 
   27500    237.69234    -548.6689    165492.15   -16042.843    1195.9745   -17238.817    89.380681    1.1252403 
   27600    241.51192   -472.05455    165492.15   -16072.199    1215.1932   -17287.392    89.850305    1.1252403 
   27700    239.45572   -348.85021    165492.15   -16087.101    1204.8472   -17291.948    90.166902    1.1252403 
   27800    227.85381   -611.66584    165492.15   -16149.992    1146.4709   -17296.463    90.329511    1.1252403 
   27900    237.32804    -338.4429    165492.15   -16111.048    1194.1415    -17305.19    90.696148    1.1252403 
   28000    237.08739   -266.07081    165492.15    -16099.77    1192.9307   -17292.701    91.237344    1.1252403 
   28100    238.64726   -580.48359    165492.15   -16088.129    1200.7793   -17288.908    92.045465    1.1252403 
   28200    237.49684    -509.7574    165492.15    -16073.04    1194.9908   -17268.031    92.716421    1.1252403 
   28300     240.5384   -465.91148    165492.15   -16085.832    1210.2948   -17296.127    92.755744    1.1252403 
   28400    241.71135   -361.03574    165492.15   -16064.914    1216.1966    -17281.11    93.325857    1.1252403 
   28500    240.73277   -232.29362    165492.15   -16038.894    1211.2728   -17250.167    93.411321    1.1252403 
   28600    243.55306   -457.28541    165492.15   -16060.753    1225.4634   -17286.217    93.415693    1.1252403 
   28700    245.88762   -475.73441    165492.15   -16085.844      1237.21   -17323.054    93.909592    1.1252403 
   28800    234.03039   -407.26847    165492.15   -16122.421    1177.5491    -17299.97    94.678644    1.1252403 
   28900    242.82365   -426.82066    165492.15    -16129.04    1221.7933   -17350.833    95.343426    1.1252403 
   29000    244.16349   -464.10242    165492.15   -16093.736    1228.5348   -17322.271     95.69309    1.1252403 
   29100    241.11773   -369.78755    165492.15   -16132.886    1213.2098   -17346.096    96.331333    1.1252403 
   29200    240.44288   -403.72393    165492.15   -16122.375    1209.8142   -17332.189    96.963908    1.1252403 
   29300    237.61055   -441.76654    165492.15   -16107.147     1195.563    -17302.71    96.947023    1.1252403 
   29400    244.77856   -259.95771    165492.15   -16102.938    1231.6296   -17334.568    96.601473    1.1252403 
   29500    234.19168   -605.80849    165492.15   -16102.682    1178.3606   -17281.043    96.672221    1.1252403 
   29600    243.08121   -328.77028    165492.15   -16113.494    1223.0892   -17336.583    97.026518    1.1252403 
   29700    238.99743   -384.12409    165492.15   -16081.924    1202.5412   -17284.465    96.936032    1.1252403 
   29800    243.89033    -451.3021    165492.15   -16085.167    1227.1604   -17312.327    97.200905    1.1252403 
   29900    246.28918   -240.24642    165492.15   -16105.562    1239.2304   -17344.793     97.53504    1.1252403 
   30000    237.75894   -373.95744    165492.15   -16129.382    1196.3097   -17325.691    98.160484    1.1252403 
   30100    236.20296   -477.69436    165492.15   -16115.624    1188.4806   -17304.104    98.598549    1.1252403 
   30200    240.95896   -461.72871    165492.15   -16118.519    1212.4109   -17330.929    98.033638    1.1252403 
   30300    237.40523   -414.92717    165492.15   -16145.803    1194.5299   -17340.333    98.770029    1.1252403 
   30400    238.46076   -244.40731    165492.15   -16164.426    1199.8409   -17364.267    99.554701    1.1252403 
   30500    232.45813   -458.34405    165492.15   -16177.914     1169.638   -17347.552    99.916683    1.1252403 
   30600    234.28085   -481.09746    165492.15   -16205.863    1178.8093   -17384.673    100.18192    1.1252403 
   30700     235.9116   -228.60231    165492.15   -16096.228    1187.0146   -17283.242    100.60141    1.1252403 
   30800    236.71264   -498.55242    165492.15    -16129.88    1191.0451   -17320.925    101.26528    1.1252403 
   30900    245.31007   -415.91657    165492.15   -16064.755    1234.3039   -17299.059    101.44976    1.1252403 
   31000    242.23499   -404.77669    165492.15   -16109.446    1218.8314   -17328.278    101.61112    1.1252403 
   31100     245.8439   -480.56611    165492.15   -16092.765      1236.99   -17329.755    102.11652    1.1252403 
   31200    242.28018   -380.41153    165492.15   -16063.273    1219.0588   -17282.331    102.68909    1.1252403 
   31300    246.82547   -467.25056    165492.15   -16053.196    1241.9289   -17295.125    102.94543    1.1252403 
   31400    241.93639   -634.76601    165492.15   -16076.953    1217.3289   -17294.282    103.42433    1.1252403 
   31500     245.6658   -502.32736    165492.15   -16087.879    1236.0939   -17323.973    104.00115    1.1252403 
   31600    241.63226   -387.02632    165492.15   -16062.499    1215.7987   -17278.298     104.3132    1.1252403 
   31700    241.37903    -287.6469    165492.15   -16058.029    1214.5245   -17272.554    104.74415    1.1252403 
   31800    244.83835   -378.45578    165492.15   -16108.506    1231.9304   -17340.436    104.94835    1.1252403 
   31900    243.96444   -541.51523    165492.15   -16099.887    1227.5333    -17327.42    105.18837    1.1252403 
   32000     249.4336   -434.74216    165492.15   -16115.469    1255.0519   -17370.521    105.18376    1.1252403 
   32100    232.82188   -522.94795    165492.15   -16137.478    1171.4683   -17308.946    105.38002    1.1252403 
   32200    235.10756   -475.09882    165492.15   -16163.889    1182.9689   -17346.858    105.98998    1.1252403 
   32300    234.47161   -464.52312    165492.15   -16167.454    1179.7691   -17347.223    106.37748    1.1252403 
   32400    233.48084   -486.24841    165492.15   -16169.065    1174.7839   -17343.849    106.86051    1.1252403 
   32500    234.98249   -536.22042    165492.15   -16125.552    1182.3396   -17307.891    106.76684    1.1252403 
   32600    237.67636   -532.88641    165492.15   -16150.401    1195.8941   -17346.295    106.80744    1.1252403 
   32700    243.88751   -392.16199    165492.15   -16117.365    1227.1462   -17344.511    106.76669    1.1252403 
   32800    237.83433   -599.94138    165492.15   -16121.948    1196.6889   -17318.637    106.55964    1.1252403 
   32900    238.78166   -414.24541    165492.15   -16124.341    1201.4556   -17325.796     107.2809    1.1252403 
   33000    239.12481    -456.9605    165492.15   -16113.331    1203.1822   -17316.513    107.51762    1.1252403 
   33100    241.62732   -627.23869    165492.15   -16120.217    1215.7738   -17335.991    107.45181    1.1252403 
   33200    239.52179   -424.41051    165492.15   -16116.577    1205.1796   -17321.757    108.40179    1.1252403 
   33300    245.72331   -453.45713    165492.15   -16127.685    1236.3832   -17364.068    108.46255    1.1252403 
   33400    241.52008   -491.12862    165492.15   -16125.424    1215.2342   -17340.658    108.79202    1.1252403 
   33500    241.46053   -522.45147    165492.15   -16120.889    1214.9346   -17335.824    109.12263    1.1252403 
   33600    233.65634   -466.32185    165492.15   -16154.407     1175.667   -17330.074    109.74391    1.1252403 
   33700    237.39017   -416.17825    165492.15    -16094.44    1194.4541   -17288.894    110.93122    1.1252403 
   33800    235.43888   -374.59211    165492.15   -16091.338     1184.636   -17275.974    111.24088    1.1252403 
   33900    244.67952   -588.31179    165492.15   -16054.319    1231.1313   -17285.451     111.3412    1.1252403 
   34000    241.26492   -260.87782    165492.15   -16093.072    1213.9503   -17307.023     111.9165    1.1252403 
   34100      237.602   -352.43368    165492.15   -16115.167      1195.52   -17310.687    112.64876    1.1252403 
   34200    241.71316   -492.59562    165492.15   -16114.039    1216.2057   -17330.245      112.388    1.1252403 
   34300    234.93264   -497.97293    165492.15   -16113.302    1182.0888   -17295.391    112.21169    1.1252403 
   34400    240.44561   -420.51038    165492.15   -16128.393    1209.8279    -17338.22    112.94736    1.1252403 
   34500     233.3475   -478.55852    165492.15   -16075.562     1174.113   -17249.675    112.98266    1.1252403 
   34600     236.4036   -348.11553    165492.15   -16084.963    1189.4901   -17274.453    113.27572    1.1252403 
   34700    235.44987   -432.40112    165492.15   -16085.118    1184.6913   -17269.809    113.46308    1.1252403 
   34800    236.79197   -417.95149    165492.15   -16075.014    1191.4442   -17266.458    113.69008    1.1252403 
   34900    245.23434   -605.25918    165492.15    -16060.72    1233.9229   -17294.643    114.18272    1.1252403 
   35000    243.67286   -477.95245    165492.15   -16039.045    1226.0661   -17265.111    114.78672    1.1252403 
   35100    239.55868   -129.17653    165492.15   -16077.959    1205.3652   -17283.324    114.76202    1.1252403 
   35200    245.84569   -591.76098    165492.15   -16038.985     1236.999   -17275.984     114.7296    1.1252403 
   35300    239.85967   -390.95489    165492.15    -15981.09    1206.8797    -17187.97    114.75347    1.1252403 
   35400     242.5333   -355.05035    165492.15   -15962.964    1220.3323   -17183.297    114.70549    1.1252403 
   35500    244.99159   -516.35327    165492.15   -16012.504    1232.7015   -17245.205    114.59726    1.1252403 
   35600    237.14624    -656.5829    165492.15   -16035.742    1193.2268   -17228.969    114.87219    1.1252403 
   35700    234.27641   -661.62353    165492.15    -16055.99    1178.7869   -17234.777    114.84809    1.1252403 
   35800    246.64441   -365.62469    165492.15     -16004.7    1241.0178   -17245.718    115.19577    1.1252403 
   35900    242.12602   -455.53009    165492.15   -16041.136    1218.2831   -17259.419    115.68969    1.1252403 
   36000    241.09928   -579.60331    165492.15   -16108.873    1213.1169    -17321.99    116.55594    1.1252403 
   36100    234.79912   -347.44851    165492.15   -16083.613     1181.417    -17265.03    116.11033    1.1252403 
   36200    235.13892   -606.01675    165492.15   -16104.203    1183.1267    -17287.33    115.87006    1.1252403 
   36300    244.18249   -503.70177    165492.15   -16056.387    1228.6304   -17285.017    115.24916    1.1252403 
   36400    236.82559   -343.38352    165492.15   -16069.956    1191.6134   -17261.569    116.30013    1.1252403 
   36500    240.26371   -673.92728    165492.15   -16061.356    1208.9127   -17270.269    116.62746    1.1252403 
   36600     235.8728   -332.01207    165492.15   -16098.875    1186.8193   -17285.695    116.24497    1.1252403 
   36700    235.85363   -478.51907    165492.15   -16109.793    1186.7229   -17296.516    116.53522    1.1252403 
   36800     239.8693   -383.65785    165492.15    -16108.55    1206.9281   -17315.478    116.41781    1.1252403 
   36900    234.26038   -477.52406    165492.15   -16123.738    1178.7063   -17302.444    117.08856    1.1252403 
   37000    244.59284   -442.72491    165492.15   -16082.307    1230.6951   -17313.003    117.40346    1.1252403 
   37100    228.00848   -650.19614    165492.15   -16170.906    1147.2492   -17318.155    117.83465    1.1252403 
   37200    237.61705   -498.26891    165492.15   -16156.931    1195.5957   -17352.527    118.26286    1.1252403 
   37300    235.90154   -512.79045    165492.15   -16113.378    1186.9639   -17300.342    118.91347    1.1252403 
   37400    237.16464   -534.93558    165492.15   -16107.931    1193.3193    -17301.25      118.925    1.1252403 
   37500    234.20054   -444.40057    165492.15   -16079.792    1178.4051   -17258.197    119.08422    1.1252403 
   37600    239.65763   -358.13108    165492.15   -16067.996    1205.8631   -17273.859    119.08456    1.1252403 
   37700    246.69383   -471.99398    165492.15   -16032.102    1241.2665   -17273.368    118.99838    1.1252403 
   37800    240.32521   -425.13687    165492.15   -16093.134    1209.2221   -17302.356    119.52591    1.1252403 
   37900      236.694   -362.50371    165492.15    -16050.14    1190.9513   -17241.091    119.37647    1.1252403 
   38000    240.27876   -573.86231    165492.15   -16068.772    1208.9884   -17277.761    119.42539    1.1252403 
   38100    235.44913   -566.44337    165492.15   -16075.772    1184.6876    -17260.46    119.91133    1.1252403 
   38200    241.81337    -424.2861    165492.15    -16055.29    1216.7099       -17272    120.53147    1.1252403 
   38300    237.49922   -559.27312    165492.15   -16059.007    1195.0028    -17254.01    120.85172    1.1252403 
   38400    234.96683   -377.56994    165492.15   -16059.652    1182.2608   -17241.913    121.08678    1.1252403 
   38500    232.74741   -497.97998    165492.15   -16055.618    1171.0936   -17226.711    121.64779    1.1252403 
   38600    236.10485   -639.57189    165492.15   -16023.743    1187.9869   -17211.729    121.37374    1.1252403 
   38700    238.91454   -428.54681    165492.15   -16022.862    1202.1242   -17224.986     121.7269    1.1252403 
   38800    248.42432   -441.67249    165492.15   -16034.724    1249.9737   -17284.698    121.75083    1.1252403 
   38900    239.06694   -812.02951    165492.15   -16014.662     1202.891   -17217.553    122.03693    1.1252403 
   39000    242.02995   -333.08546    165492.15   -16011.623    1217.7997   -17229.423    122.31551    1.1252403 
   39100    239.92437   -514.59039    165492.15   -16026.357    1207.2052   -17233.563    122.31367    1.1252403 
   39200    238.19689    -339.3203    165492.15   -16071.166    1198.5132    -17269.68    121.81577    1.1252403 
   39300    239.53244   -715.18461    165492.15   -16062.959    1205.2332   -17268.192    122.40208    1.1252403 
   39400    241.10553   -564.93949    165492.15   -16078.022    1213.1484   -17291.171    122.53492    1.1252403 
   39500    239.81954   -409.89199    165492.15   -16058.066    1206.6778   -17264.744    121.79858    1.1252403 
   39600    237.86618   -491.35198    165492.15   -16074.679    1196.8492   -17271.529    122.54204    1.1252403 
   39700    243.96399   -394.67746    165492.15   -16014.546     1227.531   -17242.077    122.61735    1.1252403 
   39800    256.05255   -459.55788    165492.15   -15970.376    1288.3559   -17258.732    122.84753    1.1252403 
   39900     240.3429   -570.35308    165492.15   -16041.243    1209.3111   -17250.555    122.61079    1.1252403 
   40000    239.67318   -519.35335    165492.15   -16063.234    1205.9413   -17269.176    122.99636    1.1252403 
   40100    236.38236   -671.08182    165492.15   -16107.632    1189.3832   -17297.015    123.32483    1.1252403 
   40200    226.85425   -307.69698    165492.15   -16157.657    1141.4415   -17299.099    123.48378    1.1252403 
   40300    240.15283   -358.13297    165492.15   -16105.091    1208.3547   -17313.446    124.24505    1.1252403 
   40400    235.08035   -624.91705    165492.15    -16056.57     1182.832   -17239.402    124.89658    1.1252403 
   40500    240.88749   -427.75935    165492.15   -16060.044    1212.0513   -17272.096    124.97493    1.1252403 
   40600    238.96974   -401.16157    165492.15   -16129.619    1202.4019   -17332.021    125.27267    1.1252403 
   40700    230.22253   -496.39579    165492.15   -16171.314    1158.3894   -17329.703    125.83064    1.1252403 
   40800    241.79852   -413.72481    165492.15   -16139.628    1216.6352   -17356.263    126.10594    1.1252403 
   40900    236.59663   -386.48639    165492.15   -16136.821    1190.4613   -17327.283    126.10683    1.1252403 
   41000    242.39202   -222.90094    165492.15   -16101.829    1219.6215    -17321.45    126.37942    1.1252403 
   41100    233.55038   -349.81129    165492.15   -16132.841    1175.1338   -17307.975    126.73588    1.1252403 
   41200    239.18343   -432.02262    165492.15   -16071.275    1203.4771   -17274.752    125.96242    1.1252403 
   41300    237.86787   -289.42267    165492.15   -16076.457    1196.8577   -17273.315    125.59058    1.1252403 
   41400    240.01394   -468.60118    165492.15   -16083.829    1207.6559   -17291.485    125.98653    1.1252403 
   41500    242.38798   -504.40218    165492.15   -16072.096    1219.6011   -17291.697    126.36297    1.1252403 
   41600    246.09439   -613.01865    165492.15   -16017.404    1238.2503   -17255.654    127.01723    1.1252403 
   41700    241.41226    -435.3105    165492.15    -16048.53    1214.6917   -17263.222    127.08081    1.1252403 
   41800    250.30961   -374.53783    165492.15   -16048.877    1259.4597   -17308.337    127.43832    1.1252403 
   41900    243.40129   -692.00295    165492.15   -16030.407    1224.6997   -17255.106    127.81824    1.1252403 
   42000    240.50666    -414.3122    165492.15    -16070.02    1210.1351   -17280.155    127.67159    1.1252403 
   42100    246.79477   -264.84408    165492.15   -16047.851    1241.7744   -17289.625     128.1427    1.1252403 
   42200    238.04568   -670.75856    165492.15   -16056.139    1197.7524   -17253.891    128.70072    1.1252403 
   42300    243.00062    -216.5652    165492.15   -16100.991    1222.6837   -17323.675    129.04632    1.1252403 
   42400    244.09873   -203.45754    165492.15    -16097.47     1228.209   -17325.679    129.63843    1.1252403 
   42500    229.14993   -651.34642    165492.15   -16067.895    1152.9925   -17220.888    130.61403    1.1252403 
   42600    232.10817   -367.17455    165492.15   -16101.178    1167.8772   -17269.055    130.81104    1.1252403 
   42700    242.66332   -97.974819    165492.15   -16015.101    1220.9866   -17236.087    131.62939    1.1252403 
   42800     243.4305   -701.35934    165492.15   -16002.154    1224.8467   -17227.001    131.86173    1.1252403 
   42900    243.06752   -353.39694    165492.15    -15973.92    1223.0203    -17196.94    131.25825    1.1252403 
   43000    243.50967   -398.95698    165492.15   -15967.877     1225.245   -17193.122    132.03619    1.1252403 
   43100    246.91379   -400.70076    165492.15   -15961.902    1242.3733   -17204.275    132.36397    1.1252403 
   43200    243.88061    -570.2031    165492.15   -15998.179    1227.1115   -17225.291    132.37951    1.1252403 
   43300    246.92089   -436.53821    165492.15   -15999.795     1242.409   -17242.204    133.29976    1.1252403 
   43400    238.63313   -294.70316    165492.15   -16052.742    1200.7082    -17253.45    134.47808    1.1252403 
   43500    237.91205   -518.75985    165492.15   -16058.196      1197.08   -17255.276    134.61018    1.1252403 
   43600    235.99784   -393.12721    165492.15   -16059.338    1187.4485   -17246.786    134.26964    1.1252403 
   43700    232.08223   -442.50296    165492.15   -16058.484    1167.7467   -17226.231    134.69095    1.1252403 
   43800    245.65622   -256.83038    165492.15   -16042.963    1236.0457   -17279.009    135.22189    1.1252403 
   43900    239.91825   -500.74447    165492.15    -16094.33    1207.1744   -17301.505    135.87402    1.1252403 
   44000    235.23516   -467.93412    165492.15   -16115.625     1183.611   -17299.236    136.05291    1.1252403 
   44100    242.10162   -528.00337    165492.15   -16094.589    1218.1603   -17312.749    136.11156    1.1252403 
   44200    240.07475    -339.4096    165492.15   -16091.089    1207.9619   -17299.051    136.35638    1.1252403 
   44300    240.42793   -531.43186    165492.15   -16079.549     1209.739   -17289.288    136.61233    1.1252403 
   44400    243.77097   -431.03569    165492.15   -16062.077    1226.5598   -17288.636    136.93787    1.1252403 
   44500    235.59694   -364.47134    165492.15   -16038.263    1185.4313   -17223.694    137.63588    1.1252403 
   44600    240.05587   -485.56715    165492.15   -16038.113    1207.8669    -17245.98    138.43994    1.1252403 
   44700    239.51946   -570.55087    165492.15   -16080.349    1205.1679   -17285.517    137.87002    1.1252403 
   44800    233.92681    -460.9807    165492.15   -16078.426    1177.0278   -17255.454    138.21978    1.1252403 
   44900    239.71203   -579.52614    165492.15   -16065.919    1206.1368   -17272.056    138.58429    1.1252403 
   45000    239.91939   -426.34697    165492.15   -16062.852    1207.1802   -17270.032    138.73452    1.1252403 
   45100    235.39852   -367.20398    165492.15   -16058.915    1184.4329   -17243.348    139.02931    1.1252403 
   45200    246.96164   -383.59933    165492.15    -15992.95     1242.614   -17235.564    139.70821    1.1252403 
   45300    255.71518   -563.39683    165492.15   -15961.915    1286.6584   -17248.574    140.23682    1.1252403 
   45400    250.44786   -497.71269    165492.15   -15963.938    1260.1553   -17224.093    141.55089    1.1252403 
   45500    249.62167   -482.38458    165492.15    -15958.16    1255.9982   -17214.158    141.75015    1.1252403 
   45600    252.61639   -530.60522    165492.15   -15958.196    1271.0665   -17229.263    141.79952    1.1252403 
   45700    243.06471   -428.68614    165492.15   -16008.264    1223.0062    -17231.27    142.04751    1.1252403 
   45800    244.24548   -177.05935    165492.15   -16016.093    1228.9474    -17245.04    142.53312    1.1252403 
   45900    244.10608   -510.38022    165492.15   -16056.384     1228.246    -17284.63    142.19017    1.1252403 
   46000    242.89424   -536.71267    165492.15   -16036.613    1222.1484   -17258.762    142.88433    1.1252403 
   46100      245.407   -291.17648    165492.15   -16081.552    1234.7917   -17316.343     142.6489    1.1252403 
   46200    247.71336   -389.09243    165492.15   -16052.902    1246.3964   -17299.298    142.57821    1.1252403 
   46300    241.91283   -439.15476    165492.15   -16028.472    1217.2104   -17245.682    142.93584    1.1252403 
   46400    238.73802   -404.99536    165492.15   -16025.851     1201.236   -17227.087    143.36911    1.1252403 
   46500    239.38675   -349.64182    165492.15   -16074.149    1204.5002   -17278.649    143.22859    1.1252403 
   46600    242.47095   -374.68143    165492.15    -16077.36    1220.0186   -17297.378    142.80593    1.1252403 
   46700    241.99148   -478.35523    165492.15   -16098.635    1217.6061   -17316.241    142.51849    1.1252403 
   46800    248.23858   -558.48284    165492.15   -16082.581    1249.0391    -17331.62    142.96289    1.1252403 
   46900    240.11967   -361.63649    165492.15   -16014.038    1208.1879   -17222.226    142.71313    1.1252403 
   47000    241.54661   -501.55746    165492.15   -16011.592    1215.3677    -17226.96    143.00694    1.1252403 
   47100     238.8427   -536.98252    165492.15   -16049.753    1201.7627   -17251.516     143.4845    1.1252403 
   47200    241.69231   -477.44279    165492.15   -16028.697    1216.1008   -17244.798    144.07445    1.1252403 
   47300    234.63353   -510.06786    165492.15   -16077.936    1180.5838    -17258.52     144.9244    1.1252403 
   47400    248.35773   -297.93503    165492.15   -16065.463    1249.6386   -17315.102     145.4641    1.1252403 
   47500    236.98428   -539.02796    165492.15   -16073.906    1192.4118   -17266.318    145.99394    1.1252403 
   47600    234.37555   -397.20883    165492.15   -16029.185    1179.2858    -17208.47    146.67781    1.1252403 
   47700    243.83455   -364.54364    165492.15   -16019.145    1226.8797   -17246.024    146.97665    1.1252403 
   47800    245.80285   -545.55817    165492.15   -16015.493    1236.7834   -17252.276     146.9006    1.1252403 
   47900    240.53214   -498.06236    165492.15   -16061.941    1210.2633   -17272.205    146.86632    1.1252403 
   48000    243.83521   -483.27652    165492.15   -16059.535    1226.8831   -17286.418    146.43525    1.1252403 
   48100    230.46226   -406.07384    165492.15   -16079.683    1159.5956   -17239.279    146.76449    1.1252403 
   48200    247.30646   -629.46177    165492.15   -16061.796     1244.349   -17306.145    146.84123    1.1252403 
   48300    234.24577    -435.6782    165492.15   -16092.942    1178.6327   -17271.575    147.69419    1.1252403 
   48400     235.6105   -489.11809    165492.15   -16096.194    1185.4995   -17281.693       148.24    1.1252403 
   48500    231.46481   -371.97573    165492.15   -16087.276    1164.6401   -17251.916    148.27058    1.1252403 
   48600    238.24965   -722.85916    165492.15   -16073.645    1198.7787   -17272.423    148.52007    1.1252403 
   48700    243.36697    -189.7049    165492.15   -16043.189     1224.527   -17267.716    148.96366    1.1252403 
   48800    237.43706   -394.14437    165492.15   -16037.323    1194.6901   -17232.013    150.51445    1.1252403 
   48900    235.78048   -324.21301    165492.15   -16051.762    1186.3548   -17238.117    150.75713    1.1252403 
   49000    237.27595   -511.21262    165492.15   -16057.265    1193.8794   -17251.144    151.43656    1.1252403 
   49100    241.17872   -422.97205    165492.15   -16034.253    1213.5166    -17247.77    152.03081    1.1252403 
   49200    241.83533   -474.89823    165492.15   -16038.282    1216.8204   -17255.102    152.36175    1.1252403 
   49300    240.36961   -477.24965    165492.15   -15973.941    1209.4455   -17183.387    152.82433    1.1252403 
   49400    237.64188   -550.44223    165492.15   -16000.061    1195.7206   -17195.781    153.26089    1.1252403 
   49500    237.67803   -335.02692    165492.15   -16062.524    1195.9025   -17258.426    154.22416    1.1252403 
   49600    237.78573   -642.36488    165492.15   -16017.344    1196.4444   -17213.789    154.19983    1.1252403 
   49700    243.71059   -550.34212    165492.15   -16002.617     1226.256   -17228.873    154.83132    1.1252403 
   49800    241.09338   -493.43176    165492.15   -16050.444    1213.0872   -17263.532    155.63419    1.1252403 
   49900    236.83157   -501.17702    165492.15   -16051.569    1191.6435   -17243.212    156.18658    1.1252403 
   50000    233.72339   -307.70091    165492.15    -16057.25    1176.0043   -17233.255    155.06617    1.1252403 
Loop time of 859.012 on 12 procs for 50000 steps with 8493 atoms

Performance: 25.145 ns/day, 0.954 hours/ns, 58.206 timesteps/s
89.9% CPU use with 12 MPI tasks x no OpenMP threads

MPI task timing breakdown:
Section |  min time  |  avg time  |  max time  |%varavg| %total
---------------------------------------------------------------
Pair    | 32.119     | 70.032     | 133.14     | 518.6 |  8.15
Neigh   | 5.3086     | 6.6047     | 8.8228     |  58.3 |  0.77
Comm    | 345.38     | 415.64     | 457.21     | 210.1 | 48.39
Output  | 13.585     | 13.842     | 14.055     |   3.1 |  1.61
Modify  | 200.29     | 232.82     | 268.09     | 148.1 | 27.10
Other   |            | 120.1      |            |       | 13.98

Nlocal:        707.750 ave         909 max         581 min
Histogram: 3 4 1 0 0 0 0 0 2 2
Nghost:        2270.17 ave        2519 max        2109 min
Histogram: 2 2 4 0 0 1 0 1 0 2
Neighs:        0.00000 ave           0 max           0 min
Histogram: 12 0 0 0 0 0 0 0 0 0
FullNghs:      74194.5 ave       91696 max       63725 min
Histogram: 4 3 0 1 0 0 0 0 3 1

Total # of neighbors = 890334
Ave neighs/atom = 104.83151
Neighbor list builds = 2830
Dangerous builds = 0

# Create data file for import to other simulations
#
write_data data.${NAME}
write_data data.Ibeam_240K
System init for write_data ...


Total wall time: 0:14:20
