
# Create simulation box
#
region 	     all block 0 ${XDIM} 0 ${YDIM} 0 ${ZDIM} units box
region 	     all block 0 68.908 0 ${YDIM} 0 ${ZDIM} units box
region 	     all block 0 68.908 0 85.84830153377978 0 ${ZDIM} units box
region 	     all block 0 68.908 0 85.84830153377978 0 18.0 units box
create_box          1 all
Created orthogonal box = (0.0000000 0.0000000 0.0000000) to (68.908000 85.848302 18.000000)
  3 by 4 by 1 MPI processor grid

# fill box with randomly distributed atoms of number density 0.0327 N/A**3
#
create_atoms        1 random 3482 63782 all
Created 3482 atoms
  create_atoms CPU = 0.002 seconds
mass                1 18.015

# Define potential
#
pair_style          sw
pair_coeff          * * ML.sw mW
Reading sw potential file ML.sw with DATE: 2019-02-27

# Run minimization
#
minimize            1.0e-8 1.0e-8 10000 1000
WARNING: Using 'neigh_modify every 1 delay 0 check yes' setting during minimization (../min.cpp:187)
Neighbor list info ...
  update every 1 steps, delay 0 steps, check yes
  max neighbors/atom: 2000, page size: 100000
  master list distance cutoff = 6.0032907
  ghost atom cutoff = 6.0032907
  binsize = 3.0016454, bins = 23 29 6
  1 neighbor lists, perpetual/occasional/extra = 1 0 0
  (1) pair sw, perpetual
      attributes: full, newton on
      pair build: full/bin/atomonly
      stencil: full/bin/3d
      bin: standard
Per MPI rank memory allocation (min/avg/max) = 4.212 | 4.215 | 4.220 Mbytes
Step Temp E_pair E_mol TotEng Press 
       0            0     15283821            0     15283821     13354298 
     633            0    -37571.26            0    -37571.26   -621.45742 
Loop time of 7.91763 on 12 procs for 633 steps with 3482 atoms

90.4% CPU use with 12 MPI tasks x no OpenMP threads

Minimization stats:
  Stopping criterion = max force evaluations
  Energy initial, next-to-last, final = 
      15283820.7204746  -37570.9792415869  -37571.2596715662
  Force two-norm initial, final = 4.8470969e+08 5.0252696
  Force max component initial, final = 2.2621239e+08 1.0437726
  Final line search alpha, max atom move = 0.052221471 0.054507338
  Iterations, force evaluations = 633 1000

MPI task timing breakdown:
Section |  min time  |  avg time  |  max time  |%varavg| %total
---------------------------------------------------------------
Pair    | 0.48572    | 0.64137    | 0.79728    |  10.9 |  8.10
Neigh   | 0.011952   | 0.013883   | 0.026195   |   3.2 |  0.18
Comm    | 2.7778     | 2.9897     | 3.196      |   6.7 | 37.76
Output  | 0          | 0          | 0          |   0.0 |  0.00
Modify  | 0          | 0          | 0          |   0.0 |  0.00
Other   |            | 4.273      |            |       | 53.96

Nlocal:        290.167 ave         309 max         269 min
Histogram: 1 0 1 2 2 2 1 0 1 2
Nghost:        859.167 ave         904 max         814 min
Histogram: 1 0 1 1 2 4 2 0 0 1
Neighs:        0.00000 ave           0 max           0 min
Histogram: 12 0 0 0 0 0 0 0 0 0
FullNghs:      8175.67 ave        9162 max        7283 min
Histogram: 2 0 0 4 1 2 0 0 2 1

Total # of neighbors = 98108
Ave neighs/atom = 28.175761
Neighbor list builds = 24
Dangerous builds = 0

# Add velocity/set timestep
#
velocity            all create ${TEMP} 120598 rot yes dist gaussian
velocity            all create 240 120598 rot yes dist gaussian
timestep            5.0

# Define output
#
compute	            1 all msd
thermo	            100
thermo_style        custom step temp press vol etotal ke pe c_1[4] density

# Neighbor lists
#
neigh_modify        delay 0 every 1 check yes

# Set fixes
#
fix                 1 all momentum 10 linear 1 1 1 rescale
fix                 2 all nve
fix                 3 all temp/csvr ${TEMP} ${TEMP} 500.0 928347
fix                 3 all temp/csvr 240 ${TEMP} 500.0 928347
fix                 3 all temp/csvr 240 240 500.0 928347
fix                 4 all press/berendsen z ${PRES} ${PRES} 1000.0 modulus 20000
fix                 4 all press/berendsen z 1 ${PRES} 1000.0 modulus 20000
fix                 4 all press/berendsen z 1 1 1000.0 modulus 20000

# Run 0.25 ns equilibration
#
dump                1 all custom 1000 whole.${NAME}.dump id type x y z vx vy vz
dump                1 all custom 1000 whole.Ibeam_MLmW_240K.dump id type x y z vx vy vz
run                 50000
Per MPI rank memory allocation (min/avg/max) = 3.462 | 3.465 | 3.470 Mbytes
Step Temp Press Volume TotEng KinEng PotEng c_1[4] Density 
     633          240    447.61853    106481.43   -35080.972    2490.2879    -37571.26            0   0.97822382 
     700    151.04498   -229.85549     106524.9   -34338.096    1567.2729   -35905.369   0.27724197    0.9778246 
     800    188.32498   -177.76861    106322.99   -33680.562    1954.0976   -35634.659   0.67136953    0.9796815 
     900    208.05544   -55.200618    106172.65   -33268.024    2158.8249   -35426.849    1.1323608   0.98106874 
    1000    219.62548   -416.29812    106047.33   -32991.191    2278.8779   -35270.069    1.6452733   0.98222809 
    1100    231.17855   -396.96238    105948.81   -32832.494    2398.7549   -35231.249    2.1948745   0.98314142 
    1200    236.50129    -153.3047    105872.57   -32666.389    2453.9846   -35120.374    2.8491282   0.98384941 
    1300    238.12965    4.3392703     105825.3   -32609.901    2470.8808   -35080.782    3.4971068   0.98428888 
    1400    244.65765    94.760903    105866.63   -32581.586    2538.6167   -35120.203    4.1256728   0.98390466 
    1500    238.72185     40.95997    105825.93   -32592.777    2477.0256   -35069.802    4.7584748   0.98428307 
    1600    240.20995   -280.08953    105862.43   -32654.314    2492.4664    -35146.78     5.352351   0.98394363 
    1700    234.81647   -290.34139    105753.49   -32671.694    2436.5026   -35108.197    5.9623461   0.98495727 
    1800    243.34474   -171.99846    105834.23   -32660.749    2524.9936   -35185.743    6.6273287   0.98420586 
    1900    241.45824   -408.69904    105711.84   -32629.125     2505.419   -35134.544    7.1923995   0.98534536 
    2000    242.66223   -63.754781    105665.48    -32650.18    2517.9118   -35168.092    7.6754007   0.98577762 
    2100    239.72726    138.54444    105753.26   -32739.238    2487.4579   -35226.696    8.1470946   0.98495939 
    2200    243.95749   -137.58472    105746.87   -32693.594    2531.3516   -35224.946    8.6937287   0.98501895 
    2300    239.98445    219.47322    105848.33   -32711.913    2490.1266   -35202.039    9.3512115    0.9840747 
    2400    242.42484   -88.890928    105901.87   -32718.055    2515.4486   -35233.504    9.9077088   0.98357721 
    2500    244.68338   -41.442126     105797.2   -32671.315    2538.8837   -35210.199    10.505577   0.98455032 
    2600    241.95885   -80.069498    105784.99   -32651.772    2510.6133   -35162.386    11.051513     0.984664 
    2700    236.69947      416.175     105847.4   -32730.474     2456.041   -35186.515    11.424116   0.98408342 
    2800     240.4258    81.376019    105765.43   -32721.643    2494.7061   -35216.349    11.910143   0.98484609 
    2900    241.78254   -164.27853    105764.15   -32689.259     2508.784   -35198.043    12.284688   0.98485796 
    3000     243.4841   -315.76311    105725.58   -32699.988    2526.4396   -35226.428    12.673938   0.98521725 
    3100    238.60294    237.82169    105611.64   -32676.033    2475.7918   -35151.825    13.066542   0.98628019 
    3200    239.01534    49.196497    105643.12   -32697.061    2480.0709   -35177.132    13.580854   0.98598632 
    3300    245.52388    219.99537    105524.27   -32732.244    2547.6048   -35279.848    13.936522   0.98709679 
    3400    243.47186   -51.857265    105621.51   -32713.316    2526.3127   -35239.628    14.515505   0.98618806 
    3500    242.53352     162.0744    105556.55   -32672.477    2516.5763   -35189.053    14.916763   0.98679491 
    3600    233.44146    109.92666    105465.19   -32719.563    2422.2352   -35141.798    15.385699   0.98764976 
    3700    244.41673   -97.505321       105513   -32639.064    2536.1169    -35175.18    15.921929    0.9872022 
    3800    239.45628     182.7074    105566.44   -32721.847    2484.6462   -35206.494    16.208174   0.98670249 
    3900    241.17648    58.724662    105450.98    -32800.94    2502.4953   -35303.435    16.492822   0.98778281 
    4000     237.9171    305.86104    105508.59   -32774.006    2468.6753   -35242.682    16.927246   0.98724348 
    4100    241.61118    -6.137404     105358.6   -32763.021    2507.0059   -35270.027    17.655197   0.98864895 
    4200    238.85389   -53.612266    105368.33   -32782.037    2478.3957   -35260.433    18.288817   0.98855766 
    4300     242.9022    63.935451    105284.76   -32790.319    2520.4018   -35310.721    18.853793   0.98934235 
    4400    239.88698    26.111615    105282.54   -32717.288    2489.1152   -35206.404    19.433679   0.98936322 
    4500    242.42052   -376.98782    105244.59   -32672.757    2515.4038   -35188.161    19.862329   0.98971989 
    4600    238.40576    337.52894    105129.93   -32787.227    2473.7458   -35260.972    20.314884   0.99079933 
    4700    242.01393   -187.92106    105096.66   -32780.783    2511.1849   -35291.968    20.656171   0.99111304 
    4800    244.10415    42.619159    105040.17    -32715.73    2532.8735   -35248.604    20.976681   0.99164605 
    4900    239.27474    8.2996953    105023.47   -32781.899    2482.7625   -35264.662     21.44201   0.99180374 
    5000    239.05813    8.5589566    104947.28   -32692.261    2480.5149   -35172.776    21.977515   0.99252377 
    5100    235.46387   -147.86774    104949.58   -32741.254    2443.2201   -35184.474    22.409857   0.99250203 
    5200    232.27252    48.968599    104964.88   -32808.688    2410.1061   -35218.794    22.817351   0.99235733 
    5300    241.75417   -107.12623    104928.26   -32750.953    2508.4896   -35259.442    23.257875   0.99270364 
    5400    240.70238   -55.676096    104908.67    -32666.38     2497.576   -35163.956    23.935765   0.99288904 
    5500    245.65852    14.706407    104881.46   -32632.324    2549.0019   -35181.326    24.471896   0.99314665 
    5600    246.71039    96.442419    104834.69   -32625.015    2559.9163   -35184.931    25.095821   0.99358969 
    5700    243.54963     155.5999     105000.7   -32651.375    2527.1196   -35178.495    25.667198   0.99201879 
    5800    242.03791   -273.62664    105003.17     -32636.3    2511.4337   -35147.734     26.27468   0.99199542 
    5900    235.41581    46.226929    104927.73   -32756.571    2442.7215   -35199.292    26.733468   0.99270867 
    6000    233.95867    262.93149    104965.73   -32777.393    2427.6019   -35204.995    27.422673   0.99234929 
    6100    239.43594   -328.04064    105038.95   -32767.311    2484.4351   -35251.746    27.774831   0.99165753 
    6200    237.95508    167.34308    105094.62   -32797.876    2469.0694   -35266.945    28.696339   0.99113227 
    6300    238.51579     202.3103     104998.6   -32766.746    2474.8875   -35241.634    29.156912   0.99203862 
    6400    238.63543    95.741752     104867.3   -32744.059    2476.1289   -35220.188     29.88537    0.9932807 
    6500    237.55451    83.549983    104869.02   -32745.604    2464.9131   -35210.517    30.416035    0.9932644 
    6600    231.91819   -223.17304    104797.68   -32784.283    2406.4295   -35190.712    31.024904   0.99394056 
    6700    234.46414   -60.358361    104815.83   -32804.198    2432.8467   -35237.045    31.585631    0.9937685 
    6800    238.44407    -75.75562    104665.37   -32818.074    2474.1433   -35292.217    31.913433   0.99519709 
    6900    238.53818   -114.29971    104642.73   -32752.667    2475.1198   -35227.787     32.13358   0.99541235 
    7000    240.05843     165.3744     104667.4   -32730.992    2490.8943   -35221.887    32.679343   0.99517774 
    7100    232.87982   -27.757456    104781.47   -32778.406    2416.4075   -35194.813    33.032449   0.99409439 
    7200    234.69967    43.618386    104703.69    -32785.91    2435.2906   -35221.201    33.474975   0.99483283 
    7300    237.56553   -39.062504    104637.41   -32798.259    2465.0274   -35263.286    33.778013   0.99546299 
    7400    236.57207    186.98932    104608.87   -32821.239     2454.719   -35275.958    34.163477   0.99573461 
    7500    243.67811    146.79586    104659.61   -32755.625    2528.4528   -35284.078    34.780313   0.99525186 
    7600     238.7953    -106.9376    104672.79   -32736.819    2477.7878   -35214.607    35.568557   0.99512653 
    7700    234.28688    -40.55406    104771.68   -32743.164    2431.0074   -35174.171     35.88809   0.99418727 
    7800    234.57783   -466.21959    104771.69   -32729.467    2434.0265   -35163.494    36.516558   0.99418715 
    7900    234.69865   -44.909075    104579.79   -32809.398    2435.2801   -35244.678    37.153273   0.99601142 
    8000    237.55946    366.50252    104707.74   -32715.903    2464.9644   -35180.867    38.088715   0.99479432 
    8100    239.59481   -106.09203     104885.4   -32670.028    2486.0836   -35156.112    38.798096   0.99310934 
    8200    240.45153   -281.02897    104871.03   -32713.782    2494.9731   -35208.755    39.462475   0.99324537 
    8300    238.84383   -210.90518    104768.06   -32715.274    2478.2913   -35193.565    39.803089   0.99422156 
    8400     240.1201   -72.123996    104769.11   -32744.964    2491.5342   -35236.498    40.333617   0.99421166 
    8500    232.22773   -278.93176    104737.05   -32801.573    2409.6413   -35211.214    40.714102   0.99451592 
    8600    244.31594    64.740726    104647.98   -32712.447     2535.071   -35247.518    41.262732   0.99536247 
    8700    243.84321    253.53936     104667.8   -32711.419    2530.1659   -35241.585    41.900893   0.99517398 
    8800    244.30162     139.4186     104776.5   -32734.635    2534.9224   -35269.558    42.495355   0.99414149 
    8900    240.23442    219.74761    104737.47   -32696.985    2492.7203   -35189.705    42.799024   0.99451194 
    9000    242.51265    39.965673     104845.7   -32653.903    2516.3597   -35170.263    43.513694   0.99348533 
    9100    239.94905   -90.237321     104826.4   -32696.966    2489.7592   -35186.726    44.112913   0.99366828 
    9200    238.41862    123.04061    104912.12   -32695.783    2473.8793   -35169.662    44.732332   0.99285633 
    9300    244.32585     179.4751    104920.89   -32700.791    2535.1739   -35235.965    45.040566   0.99277336 
    9400    243.00226   -14.641269    105007.58   -32708.553      2521.44   -35229.993    45.718504   0.99195379 
    9500    236.11819   -14.901889    104961.25   -32752.346    2450.0095   -35202.356    46.203861    0.9923916 
    9600    242.46841    154.89458    105143.63   -32726.541    2515.9007   -35242.441    46.953002   0.99067022 
    9700    239.97282   -22.345576    105154.74   -32723.338     2490.006   -35213.344       47.854   0.99056563 
    9800    243.96088   -195.99744    105169.92   -32696.551    2531.3869   -35227.937    48.430308   0.99042265 
    9900    238.68652   -95.691202    105044.79   -32744.411     2476.659    -35221.07    49.138061   0.99160241 
   10000    240.22025    142.26327    105007.83   -32778.605    2492.5734   -35271.178    49.882762   0.99195146 
   10100    240.75641   -299.54995     104977.3   -32765.092    2498.1366   -35263.229    50.828648   0.99223993 
   10200    234.48096   -1.0923443    104928.33   -32820.273    2433.0213   -35253.295    51.528696   0.99270299 
   10300    234.15067   -169.81083    105099.17   -32729.812    2429.5942   -35159.407    52.401307   0.99108939 
   10400    239.96756    109.08006     105026.2    -32654.73    2489.9513   -35144.682    53.209927   0.99177795 
   10500    243.02939    -49.93848    104994.91   -32680.135    2521.7215   -35201.856    53.919065   0.99207346 
   10600    239.74129   -171.21286    104990.69   -32686.673    2487.6036   -35174.276    54.613164   0.99211338 
   10700    239.29397   -58.375125    105018.95   -32647.491     2482.962   -35130.453    55.579596   0.99184636 
   10800    244.50225   -5.5073903    104973.62   -32630.006    2537.0042    -35167.01    55.624999   0.99227472 
   10900    241.62152 -0.031299027     105065.5   -32623.624    2507.1131   -35130.737    56.200635   0.99140698 
   11000    245.28705    -26.50895    105216.69   -32633.604    2545.1474   -35178.752    56.704323   0.98998236 
   11100    239.23289   -272.20232    105300.48    -32682.47    2482.3283   -35164.799    57.522393   0.98919462 
   11200    243.88675    55.639871     105315.6   -32659.261    2530.6176   -35189.878    58.302154   0.98905262 
   11300    245.23125   -54.616395    105406.25   -32732.923    2544.5684   -35277.491    59.082646   0.98820198 
   11400    236.76496     219.1878    105407.34   -32779.716    2456.7206   -35236.436    59.509347   0.98819177 
   11500    235.70688    131.77017    105543.92   -32868.467    2445.7417   -35314.208    59.986223     0.986913 
   11600    234.87514    111.80339    105610.84   -32904.363    2437.1114   -35341.475    60.612119   0.98628761 
   11700    234.43008     222.2345    105787.19   -32847.972    2432.4934   -35280.466     60.96818   0.98464345 
   11800    242.04257    128.76127    105845.02   -32847.483     2511.482   -35358.965    61.312743   0.98410555 
   11900    238.78283   -225.88888    105816.26   -32896.784    2477.6584   -35374.442    61.669529   0.98437295 
   12000    237.23008    229.55568    105840.55   -32863.351    2461.5467   -35324.898    61.880026   0.98414708 
   12100     241.7338    124.65827    105816.13    -32765.73    2508.2782   -35274.008    61.744182   0.98437419 
   12200    241.66658     17.64609    105794.79   -32736.402    2507.5807   -35243.983    62.173587   0.98457274 
   12300    243.34396    112.30546    105802.04   -32695.069    2524.9856   -35220.054    62.458047   0.98450527 
   12400    244.69169    -177.5589     105934.8   -32689.955    2538.9699   -35228.925    62.963447   0.98327148 
   12500    243.91965   -33.185434    105896.45   -32712.162    2530.9591   -35243.121    63.316775   0.98362757 
   12600    240.87267   -233.01343     105797.2   -32718.524    2499.3429   -35217.867    63.794504   0.98455033 
   12700    241.13706   -36.463844    105790.06   -32780.102    2502.0863   -35282.188    64.196145   0.98461676 
   12800    242.21046    161.85992    105771.34   -32792.489    2513.2242   -35305.713    65.087521   0.98479102 
   12900    238.40859    79.120668    105885.42   -32848.442    2473.7751   -35322.217    66.045828   0.98373003 
   13000     239.4897    3.1098443    106018.21   -32815.135     2484.993   -35300.128    66.537256   0.98249791 
   13100    242.80482    176.55405    106128.11   -32757.931    2519.3913   -35277.322    66.735276   0.98148043 
   13200    246.00769   -88.670109    106137.92   -32698.241    2552.6249   -35250.866    67.154659   0.98138979 
   13300    242.84634    113.77914     105933.3    -32695.69    2519.8221   -35215.512    67.201363   0.98328542 
   13400    242.73095    -118.6431    105927.53   -32735.099    2518.6249   -35253.724    67.452957   0.98333898 
   13500    238.20796    12.971547    105868.47   -32759.742    2471.6934   -35231.436    67.630584   0.98388757 
   13600    240.68721    120.94957    105874.45   -32787.363    2497.4186   -35284.782    68.095056   0.98383194 
   13700    239.58788    37.507514    105952.41   -32808.573    2486.0117   -35294.585    68.703773   0.98310805 
   13800    241.86051     11.32106    106018.63   -32863.099    2509.5929   -35372.691    69.184836   0.98249397 
   13900    238.40636   -65.096133    106062.58   -32851.502     2473.752   -35325.254    69.653694    0.9820869 
   14000    241.17537    27.741033    106114.82   -32936.412    2502.4838   -35438.895    70.641504   0.98160342 
   14100    236.29809    69.919298    106173.38   -32877.671    2451.8761   -35329.547    71.145493   0.98106196 
   14200    236.77095   -149.43153    106023.61   -32861.651    2456.7827   -35318.434    71.489118   0.98244788 
   14300    235.86834   -80.682072    105911.48   -32880.494     2447.417   -35327.911    71.632275   0.98348793 
   14400    240.71254   -16.909852    105952.71   -32801.307    2497.6815   -35298.988    72.208085   0.98310526 
   14500     239.3703   -32.925944    106129.62   -32827.899    2483.7541   -35311.653    72.638006   0.98146647 
   14600    243.41849   -8.8122347    105930.37   -32764.003    2525.7589   -35289.762    73.008466   0.98331258 
   14700    241.74334   -43.497709    106000.55   -32810.625    2508.3772   -35319.002    73.617714   0.98266162 
   14800    237.69622    199.36035    105937.52   -32822.465    2466.3835   -35288.848     73.83131   0.98324622 
   14900    240.41919   -118.68236    105931.31   -32782.964    2494.6376   -35277.601    74.342289   0.98330386 
   15000    237.53061   -110.52291    105883.99   -32868.587    2464.6651   -35333.252     75.07177   0.98374329 
   15100    234.80432   -78.329924    105880.19   -32853.562    2436.3765   -35289.939    75.243575   0.98377863 
   15200    234.04553    28.387688    105914.08   -32869.796    2428.5032   -35298.299     75.55152   0.98346387 
   15300    239.06976   -64.035716    105950.17   -32826.545    2480.6356   -35307.181    75.950875   0.98312886 
   15400    244.73708    175.76154    105882.35   -32763.339    2539.4408   -35302.779    76.335205   0.98375854 
   15500    241.36182   -180.80316    105815.68   -32824.964    2504.4185   -35329.382    76.763245   0.98437835 
   15600    240.09973   -240.71171    105595.53   -32852.424    2491.3228   -35343.747     76.95212   0.98643061 
   15700    237.56986    31.913299    105678.54   -32839.377    2465.0724   -35304.449    76.925397   0.98565579 
   15800    241.42147   -22.546912    105623.03   -32809.735    2505.0374   -35314.773     76.96735   0.98617383 
   15900    236.88215    207.54534    105606.41   -32802.436    2457.9365   -35260.373    77.084442   0.98632902 
   16000    237.18426    94.431215    105587.02   -32834.933    2461.0713   -35296.005    77.558891   0.98651012 
   16100    240.24979    415.14302    105726.92    -32816.34    2492.8798   -35309.219    78.191236    0.9852048 
   16200    242.03772    18.897367    105710.62   -32724.306    2511.4318   -35235.737     78.65877   0.98535674 
   16300    242.25506   -401.96828    105654.08   -32699.674     2513.687    -35213.36    79.060824   0.98588397 
   16400    243.82805   -148.40236    105562.69   -32680.187    2530.0085   -35210.196    79.475964   0.98673753 
   16500    239.35102    -16.10508    105444.87   -32703.815     2483.554   -35187.369    79.545066   0.98784007 
   16600    242.43242   -251.16598    105448.51   -32732.534    2515.5273   -35248.061    79.891341   0.98780595 
   16700    241.01637   -211.25149    105324.77   -32770.292     2500.834   -35271.126    80.094269   0.98896652 
   16800    241.39519    130.83693    105238.99    -32718.16    2504.7647   -35222.925    80.192575   0.98977254 
   16900    240.23488   -38.566099    105331.24   -32772.877    2492.7251   -35265.603    81.011697   0.98890572 
   17000    238.05509   -58.031458    105331.67   -32740.822    2470.1071   -35210.929    81.587369   0.98890172 
   17100     243.0317     52.68307    105436.56   -32685.474    2521.7454    -35207.22     82.25464   0.98791795 
   17200    247.27235   -183.01301    105380.47    -32655.62    2565.7473   -35221.367    82.766135   0.98844377 
   17300    244.57978    97.588027    105272.92   -32713.582    2537.8087    -35251.39    83.213907   0.98945354 
   17400    242.14989    37.978841    105275.92   -32740.571    2512.5957   -35253.167    83.558939    0.9894254 
   17500    246.05833    245.76352    105408.34   -32769.222    2553.1504   -35322.372    83.484936   0.98818241 
   17600    235.20811    46.513009     105396.2   -32787.954    2440.5663   -35228.521    83.760389   0.98829624 
   17700     241.3105    343.28077    105385.12   -32776.531     2503.886   -35280.417    83.904784   0.98840011 
   17800    236.51996   -95.207921    105579.97   -32808.336    2454.1783   -35262.515    84.172715   0.98657606 
   17900    235.16279   -221.74105    105547.34   -32802.515    2440.0961   -35242.611    84.237312   0.98688103 
   18000     233.4219    71.442305    105450.49   -32851.984    2422.0323   -35274.017    84.592989   0.98778743 
   18100    231.14696    74.984374    105468.91   -32793.498     2398.427   -35191.925    84.844976   0.98761494 
   18200    237.76715    61.853355    105485.18   -32733.545    2467.1194   -35200.665    85.367329   0.98746261 
   18300    243.42221    157.86198    105558.81   -32742.775    2525.7975   -35268.572    85.612087   0.98677377 
   18400    235.55298   -551.26703    105456.73   -32779.711    2444.1448   -35223.856    86.583277   0.98772898 
   18500    240.89073    -92.19274    105189.17   -32709.139    2499.5303   -35208.669    87.532738   0.99024134 
   18600    242.77095    106.40692    105212.81   -32740.574    2519.0399   -35259.614     88.36574    0.9900189 
   18700    243.73977   -144.85315    105169.23   -32686.556    2529.0925   -35215.648    88.854021   0.99042916 
   18800    236.84389   -296.69925     105047.4   -32761.065    2457.5395   -35218.605     89.05594   0.99157781 
   18900    239.91608    23.315094    104897.55   -32777.149    2489.4172   -35266.566     89.36828   0.99299433 
   19000    239.10886    115.41161    105012.76   -32774.852    2481.0413   -35255.894    89.955334   0.99190487 
   19100    241.76151   -148.79976    104912.31    -32818.95    2508.5658   -35327.516    90.172691   0.99285453 
   19200    236.85018    165.24406    104928.29   -32797.026    2457.6048   -35254.631    90.652155   0.99270339 
   19300    240.15847   -47.747724    104954.16   -32733.967    2491.9323   -35225.899     91.17449   0.99245865 
   19400    236.67034   -139.03754     105070.5   -32779.503    2455.7387   -35235.242    91.826284   0.99135977 
   19500    240.16475    129.67864    105134.06   -32759.727    2491.9975   -35251.724    92.392867   0.99076046 
   19600    241.40228    61.264805    105303.56   -32746.057    2504.8383   -35250.896    93.016306   0.98916564 
   19700    245.27399    120.27265    105212.84   -32725.882    2545.0119   -35270.894    93.472355   0.99001863 
   19800     241.1651   -246.34035    105158.08   -32748.492    2502.3773   -35250.869    94.150728   0.99053416 
   19900    241.09988    62.595421    104992.72    -32700.88    2501.7006   -35202.581     94.63248   0.99209422 
   20000    240.74204    287.77188    105062.91   -32699.219    2497.9875   -35197.207     95.37861   0.99143135 
   20100    238.66557   0.93618554    105133.42    -32704.54    2476.4416   -35180.982     96.26707   0.99076645 
   20200    241.62705     93.02879    105096.29   -32678.605    2507.1705   -35185.775    97.253698   0.99111646 
   20300    242.68828    151.29316    105073.62   -32651.313    2518.1821   -35169.496    97.668788    0.9913303 
   20400    241.26895     273.2963    105216.07   -32699.507    2503.4548   -35202.962    98.032914   0.98998821 
   20500    245.96786    102.36431    105357.49   -32654.264    2552.2116   -35206.476    98.444625   0.98865937 
   20600     241.2833    25.850916    105361.43   -32710.729    2503.6038   -35214.333    98.931139   0.98862237 
   20700    233.11794   -76.477406    105302.93   -32796.021    2418.8783   -35214.899     99.52304   0.98917161 
   20800    235.93036   -98.670156    105079.35   -32785.163    2448.0606   -35233.223    99.368507   0.99127632 
   20900    240.40495   -91.504883    104933.64   -32721.776    2494.4898   -35216.265    99.182597   0.99265278 
   21000    242.27436    164.78098    104917.77   -32692.289    2513.8872   -35206.177    99.349129   0.99280289 
   21100    236.52151    121.69418     104869.8   -32763.833    2454.1945   -35218.027    99.366427   0.99325706 
   21200    237.21031   -200.13485     104879.6   -32801.226    2461.3415   -35262.567    100.02858   0.99316424 
   21300    235.61187   -167.05309    104969.18   -32803.216    2444.7558   -35247.971    100.77926   0.99231667 
   21400    244.01893     108.1748    104889.19   -32756.692    2531.9891   -35288.681    101.06739   0.99307347 
   21500    241.67251     112.3441    105009.15   -32716.063    2507.6423   -35223.705    101.97077   0.99193896 
   21600    239.28948   -38.411973     105043.3   -32752.503    2482.9154   -35235.418     102.6683   0.99161647 
   21700    239.43983    41.473035    105084.08   -32749.389    2484.4755   -35233.864    103.15241   0.99123168 
   21800    242.61685    163.21844    105206.36   -32697.543    2517.4409   -35214.984    103.83888   0.99007953 
   21900    241.20279   -27.491299     105300.2   -32677.949    2502.7684   -35180.717    104.48035   0.98919723 
   22000    241.44881    56.189544    105252.83    -32713.26    2505.3211   -35218.581    105.00563   0.98964244 
   22100    241.27782   -31.670347    105284.09   -32676.169    2503.5469   -35179.716    105.54463   0.98934862 
   22200    245.00819    71.353919    105371.58   -32610.675    2542.2539   -35152.929    105.78759   0.98852719 
   22300    239.18455   -95.549877    105404.86   -32656.232    2481.8266   -35138.058    105.68087   0.98821499 
   22400    243.70175   -125.81199    105266.74   -32707.736     2528.698   -35236.434    106.02488   0.98951164 
   22500    237.56276    31.968029    105153.57    -32735.84    2464.9986   -35200.838    106.04454    0.9905766 
   22600    235.30919    57.165332    105073.33   -32749.043    2441.6152   -35190.658    106.30398   0.99133306 
   22700    240.54367    208.66569    105159.15   -32711.819    2495.9292   -35207.748    106.47743   0.99052404 
   22800    237.74203    107.28612    105284.27   -32827.758    2466.8588   -35294.617    107.12257   0.98934691 
   22900    238.37377    274.28395    105322.28   -32791.209    2473.4138   -35264.623    107.29574   0.98898987 
   23000    242.51839    250.09859    105485.69   -32691.006    2516.4192   -35207.425    108.62735    0.9874578 
   23100    242.08365    433.21019    105601.82   -32697.754    2511.9083   -35209.663    109.12113    0.9863719 
   23200    237.56406    128.96625    105663.27   -32712.406    2465.0122   -35177.418    110.25402   0.98579824 
   23300    237.20437    293.83022    105755.25   -32801.728    2461.2799   -35263.008    111.26699   0.98494082 
   23400    239.69063   -9.0905127    105505.47    -32725.02    2487.0778   -35212.098    111.27566   0.98727266 
   23500    240.07217   -342.52175    105383.76   -32744.533    2491.0368    -35235.57    111.51183   0.98841285 
   23600    239.19355   -127.16727    105291.95   -32782.746      2481.92   -35264.666     111.5303   0.98927475 
   23700    228.93647    56.382051    105238.48   -32792.955    2375.4906   -35168.446    111.94261   0.98977738 
   23800     241.6706   -64.843483    105342.95   -32733.147    2507.6225   -35240.769    112.40389   0.98879578 
   23900    235.66613    92.184591    105345.26   -32718.287    2445.3189   -35163.606    112.50049   0.98877415 
   24000    238.69979   -101.88122    105278.95   -32680.891    2476.7967   -35157.688    112.54354   0.98939689 
   24100    239.16445   -336.35552    105249.79   -32682.921    2481.6181   -35164.539    112.70956   0.98967102 
   24200    249.47178   -144.19453    105146.15   -32597.951    2588.5691    -35186.52    112.83241    0.9906465 
   24300    241.98338   -325.21596    105227.96   -32652.903    2510.8679   -35163.771    113.77949   0.98987631 
   24400    245.60676   -162.08635    105083.05   -32627.538    2548.4648   -35176.003    114.61235   0.99124138 
   24500    243.98999   -325.48253    104922.38     -32687.4    2531.6889   -35219.089    115.27387   0.99275925 
   24600    240.04903    27.522225    104859.35   -32681.105    2490.7967   -35171.901    116.03816   0.99335605 
   24700    243.12627    18.129285    104920.85   -32662.305    2522.7268   -35185.032    116.55475   0.99277381 
   24800    244.10602    31.021962     104903.7   -32668.975    2532.8928   -35201.868    117.41523   0.99293611 
   24900    237.69409   -30.988046    104964.39   -32693.777    2466.3614   -35160.139    118.13239   0.99236199 
   25000    237.82584    406.51782    105107.49   -32712.488    2467.7285   -35180.217    118.96582   0.99101089 
   25100    238.37045   -132.73261    105144.98   -32726.107    2473.3794   -35199.486    119.50856   0.99065757 
   25200    241.01102   -496.02413    105036.69   -32756.966    2500.7785   -35257.744    120.08684   0.99167893 
   25300    238.13948   -126.23036    104853.23   -32771.885    2470.9828   -35242.868    120.42919   0.99341397 
   25400    244.10803      99.5229    104953.99   -32709.295    2532.9137   -35242.208    121.00038   0.99246025 
   25500     236.7595    146.55858    104974.21   -32754.047    2456.6639   -35210.711    121.13765   0.99226915 
   25600    242.87387   -146.16956    105034.77   -32776.874    2520.1078   -35296.981     121.3809     0.991697 
   25700    232.78906    27.243675     104948.8   -32772.148    2415.4658   -35187.614    122.32885   0.99250936 
   25800    235.06377   -272.75257    105008.51   -32866.097    2439.0686   -35305.166    122.91171     0.991945 
   25900    235.60684    379.72009    105101.26   -32883.483    2444.7037   -35328.187    124.08053   0.99106963 
   26000    234.61091    21.697632    105156.03   -32767.304    2434.3697   -35201.674    124.59852   0.99055341 
   26100    236.80719   -93.401939    105086.01   -32788.862    2457.1587   -35246.021     124.8262   0.99121346 
   26200    239.03382    -17.37671    105139.93   -32676.983    2480.2626   -35157.245    125.02387   0.99070512 
   26300    238.34241   -129.75004    105182.27   -32731.571    2473.0885   -35204.659    125.17445    0.9903063 
   26400    240.40332    16.569965    105249.33   -32701.897    2494.4729    -35196.37    125.51374   0.98967537 
   26500      247.574   -222.41189    105260.91   -32615.928    2568.8773   -35184.806     126.1673   0.98956651 
   26600    243.31036    36.430022    105300.02   -32727.761     2524.637   -35252.398     126.5158   0.98919889 
   26700    238.07791   -88.807752    105336.06   -32686.091     2470.344   -35156.435    127.43193   0.98886052 
   26800    235.53184    140.92777    105313.86   -32693.208    2443.9254   -35137.133    128.06928   0.98906892 
   26900    234.57931   -130.57398    105179.64   -32778.083    2434.0418   -35212.125    128.63533   0.99033111 
   27000    239.73504    15.134536     105161.5   -32803.307    2487.5387   -35290.846     128.8057   0.99050188 
   27100    240.19564    53.939767    105203.49   -32724.266    2492.3179   -35216.584    129.06658   0.99010657 
   27200    235.10512   -99.565311     105226.3   -32688.133    2439.4976   -35127.631     128.9199   0.98989198 
   27300    245.24979    -113.2348    105390.61   -32636.666    2544.7608   -35181.427    129.29475   0.98834861 
   27400    240.46779   -159.46699    105336.51   -32675.216    2495.1419   -35170.358    129.62785   0.98885627 
   27500    241.88683  -0.96053977    105345.78   -32698.243    2509.8661   -35208.109    130.12687   0.98876921 
   27600    245.29293   -286.27306    105189.61   -32661.669    2545.2084   -35206.877    130.41053   0.99023726 
   27700    250.04858    144.05773    105168.34   -32676.548     2594.554   -35271.102    130.95787   0.99043746 
   27800    241.39439    35.793198    105189.49   -32719.781    2504.7564   -35224.538    131.64838   0.99023838 
   27900    242.50812    107.41344    105223.75   -32668.532    2516.3127   -35184.845    132.33902   0.98991595 
   28000    241.46765   -122.30516    105280.22   -32614.617    2505.5165   -35120.134    132.74715   0.98938498 
   28100    240.20182   -90.720781    105305.02   -32667.671    2492.3821   -35160.053    132.94054   0.98915199 
   28200     236.1936   -156.82014     105262.4   -32739.591     2450.792   -35190.384    133.06742   0.98955245 
   28300    238.88365   -186.83911    105225.46   -32726.576    2478.7045   -35205.281    133.60314   0.98989985 
   28400     244.4326    84.317284    105217.49    -32651.28    2536.2815   -35187.561    134.28097   0.98997479 
   28500    237.49621    169.63783    105273.26   -32702.063    2464.3081   -35166.371     134.7495   0.98945037 
   28600    239.41127   -121.37596    105199.61   -32738.824    2484.1791   -35223.003    134.98585   0.99014311 
   28700    240.70468   -268.15683    105078.54   -32788.533    2497.5999   -35286.133    134.81354   0.99128389 
   28800     239.6058   -225.67503    105096.17   -32772.819    2486.1976   -35259.017    134.98382   0.99111767 
   28900    238.38096    141.63409    105045.71   -32792.685    2473.4884   -35266.173    135.59049   0.99159375 
   29000    236.13138   -279.16102    104895.29   -32768.696    2450.1464   -35218.842    135.51068   0.99301565 
   29100     241.2534   -175.07873    104758.86   -32742.324    2503.2935   -35245.618    135.41008   0.99430892 
   29200    241.23457   -195.96945    104855.09   -32773.218    2503.0981   -35276.316    135.95339   0.99339639 
   29300    243.98759    511.41628    105019.07   -32739.573    2531.6639   -35271.237    136.56553   0.99184523 
   29400     236.8986   -49.277276    105099.53   -32795.499    2458.1072   -35253.607    137.17288   0.99108593 
   29500    241.85094    308.74331    105239.85   -32781.305    2509.4937   -35290.799    137.96228   0.98976452 
   29600    245.69156   -70.742657     105284.9   -32804.356    2549.3447     -35353.7    139.38282   0.98934103 
   29700    241.80171    291.72586    105150.37   -32741.984    2508.9829   -35250.967    139.75768   0.99060675 
   29800    240.82281   -160.14679    105204.24   -32680.837    2498.8256   -35179.663    140.68015   0.99009954 
   29900    242.24903   -59.274002    105126.06   -32676.283    2513.6243   -35189.907     141.3201   0.99083587 
   30000    242.83163     68.47515    105030.97   -32690.025    2519.6695   -35209.695     141.4947   0.99173287 
   30100    240.25721   -28.128088    105106.15   -32686.869    2492.9568   -35179.826    142.63412   0.99102357 
   30200    240.22382    160.03056    105188.36   -32694.974    2492.6104   -35187.584    143.04115   0.99024903 
   30300    239.50663   -82.701128    105141.55   -32687.725    2485.1686   -35172.893    143.29702   0.99068984 
   30400    236.56563   -53.998906    105083.21    -32784.53    2454.6522   -35239.183     144.2013   0.99123986 
   30500    240.94223   -63.065628    104896.46   -32765.188    2500.0647   -35265.253    144.18089   0.99300459 
   30600     238.1626    357.54686    105092.53    -32818.89    2471.2228   -35290.113    145.35578   0.99115198 
   30700    231.09119    95.429991     105335.4   -32847.767    2397.8483   -35245.615    146.43478   0.98886665 
   30800     242.5726    34.165773    105439.52   -32772.208    2516.9818   -35289.189    147.23859   0.98789023 
   30900    240.60412    -408.1109    105378.32    -32791.16    2496.5564   -35287.716    147.46693   0.98846392 
   31000    239.29086   -176.81521    105101.17   -32772.314    2482.9297   -35255.244    147.85147   0.99107047 
   31100    236.53592    75.234425    105099.18   -32862.825     2454.344   -35317.169    148.68164   0.99108926 
   31200    240.30742    316.46807    105104.51   -32824.179    2493.4778   -35317.657    148.73934   0.99103898 
   31300    233.85229    3.4413563    105182.37   -32821.358    2426.4981   -35247.856    149.30327   0.99030542 
   31400    235.70323    203.02034    105131.72   -32835.022    2445.7038   -35280.726    149.60213   0.99078248 
   31500    245.33851    85.286065    105115.36   -32767.682    2545.6814   -35313.363    149.55139   0.99093674 
   31600    236.03517    70.922701    105157.09   -32815.207    2449.1481   -35264.355    150.00841   0.99054349 
   31700    238.46005    164.89352    105199.91   -32822.823    2474.3091   -35297.133    151.00237   0.99014026 
   31800     240.0915   -237.15281    105318.27    -32838.17    2491.2373   -35329.407    151.43361   0.98902748 
   31900    243.59952   -81.195876    105344.85   -32768.977    2527.6373   -35296.614    151.44638   0.98877795 
   32000    242.14524    122.84963    105381.79   -32772.683    2512.5474    -35285.23    151.75289   0.98843134 
   32100     238.6111    219.03088    105370.37   -32784.725    2475.8765   -35260.602     151.8389   0.98853854 
   32200    241.18729   -115.77308    105445.18   -32777.975    2502.6075   -35280.583    151.64197   0.98783715 
   32300    239.83933    469.79996    105368.21   -32757.985    2488.6208   -35246.606    151.89852   0.98855881 
   32400     241.5814   -133.25062    105368.41   -32683.649    2506.6969   -35190.346     151.9948   0.98855688 
   32500    237.63575   -66.780401    105314.26   -32751.296     2465.756   -35217.052    152.05719   0.98906515 
   32600    238.31397    19.326901    105294.12   -32791.867    2472.7933    -35264.66    153.30132   0.98925433 
   32700    242.37466    35.637174    105326.55   -32741.301    2514.9279   -35256.229    154.20659   0.98894973 
   32800     234.7712   -303.52941    105263.19   -32800.431    2436.0329   -35236.464    154.94546   0.98954506 
   32900    237.69658   -93.657626    105095.21   -32868.761    2466.3872   -35335.148    155.37143    0.9911267 
   33000    236.67733    235.49526    105057.05   -32829.623    2455.8113   -35285.434    155.89317   0.99148672 
   33100    238.88071   -148.78771    105127.92   -32785.416     2478.674    -35264.09    156.58747   0.99081831 
   33200    241.24105   -207.38129    105221.21   -32741.027    2503.1653   -35244.193    157.23539   0.98993979 
   33300    243.78166    20.232238    105161.04   -32735.329    2529.5272   -35264.856    157.31982   0.99050627 
   33400    246.21188     50.51003    105217.86   -32736.803    2554.7437   -35291.547    158.01722   0.98997135 
   33500     238.9672    39.290529    105341.03   -32687.657    2479.5714   -35167.228    158.81839   0.98881382 
   33600    238.39908    226.24536    105369.17    -32724.18    2473.6765   -35197.856    159.44696   0.98854977 
   33700    243.89304    229.45453    105278.65   -32711.419    2530.6829   -35242.102    160.13699   0.98939969 
   33800    242.72876    43.788826    105276.62   -32722.271    2518.6021   -35240.873    160.91822   0.98941884 
   33900    239.34644    80.639371    105306.45   -32711.253    2483.5064   -35194.759    161.35666   0.98913856 
   34000    236.15486    210.67806    105302.19   -32773.767      2450.39   -35224.157    161.70995   0.98917854 
   34100    238.15096   -130.90038    105385.64   -32822.641    2471.1019   -35293.743     162.4563   0.98839529 
   34200    242.44261    -168.1342    105328.88   -32811.368     2515.633   -35327.001    162.76969   0.98892791 
   34300    236.64668   -9.1331095    105346.55   -32799.907    2455.4932     -35255.4    163.72371   0.98876202 
   34400    249.74962     111.8217    105294.82   -32699.629    2591.4519   -35291.081    164.56704   0.98924778 
   34500    244.35439   -31.140625    105292.85   -32685.718      2535.47   -35221.188    165.10616   0.98926631 
   34600    233.34455   -93.257733    105138.46   -32749.512    2421.2296   -35170.742    165.87307   0.99071901 
   34700    240.03145    188.72624    105015.84   -32775.326    2490.6143    -35265.94    166.33426   0.99187578 
   34800    239.33512     95.76898    105099.55    -32796.14    2483.3891   -35279.529    166.93956   0.99108577 
   34900    232.35299    445.13129    105270.08   -32783.968     2410.941   -35194.909    167.61011   0.98948028 
   35000    237.93926    135.04427    105294.69   -32821.864    2468.9053   -35290.769    167.98411     0.989249 
   35100    242.27316    88.211434    105444.48   -32752.652    2513.8747   -35266.527    168.76232   0.98784375 
   35200    247.69589    -15.25164    105521.86   -32659.486    2570.1421   -35229.628    169.23507   0.98711933 
   35300    242.08281    50.640122    105431.71   -32719.453    2511.8996   -35231.353    169.43611   0.98796336 
   35400    237.53669   -111.86456    105290.86   -32758.438    2464.7281   -35223.166    169.14181   0.98928496 
   35500    238.54358   -221.55784    105274.45    -32774.29    2475.1758   -35249.466    169.34156    0.9894392 
   35600    239.21111   -99.387991    105184.05   -32782.572    2482.1023   -35264.675    169.15066   0.99028955 
   35700    240.38415   -45.738126    105292.47   -32741.209     2494.274   -35235.483    169.74702   0.98926987 
   35800    240.50027   -32.252353    105361.17   -32695.482    2495.4788   -35190.961    169.86691   0.98862477 
   35900    240.50574    213.75311     105398.1   -32692.403    2495.5356   -35187.938    170.35264   0.98827838 
   36000    238.46046      94.7378    105356.08    -32685.11    2474.3134   -35159.423    170.28157   0.98867256 
   36100    242.04376   -11.082868    105427.93   -32744.594    2511.4945   -35256.089    171.05812    0.9879988 
   36200    237.52996    101.34492    105305.96   -32730.668    2464.6584   -35195.326    171.55329    0.9891431 
   36300    244.18344    46.021789    105377.32   -32708.731    2533.6962   -35242.427    171.86037   0.98847335 
   36400    241.49585    26.812387     105387.1   -32653.588    2505.8092   -35159.397    171.89576   0.98838156 
   36500    241.02708    166.14549     105387.2   -32680.464    2500.9452   -35181.409    172.17307   0.98838064 
   36600    239.63836    73.353279    105414.08   -32748.911    2486.5355   -35235.447    171.86229   0.98812861 
   36700     239.7301    -275.7923    105318.88   -32756.721    2487.4874   -35244.208    171.96085   0.98902176 
   36800    234.71664   -71.637345    105084.35    -32798.57    2435.4668   -35234.037    171.68979   0.99122914 
   36900    237.51597   -55.565961    105171.36   -32812.971    2464.5132   -35277.484     172.3257    0.9904091 
   37000    237.12441   -274.48797    105205.19   -32760.837    2460.4502   -35221.287    172.28028   0.99009055 
   37100    236.76628    9.9391973     105268.9   -32776.987    2456.7342   -35233.722    172.65964   0.98949141 
   37200     241.2955    88.973868     105367.8   -32761.067    2503.7303   -35264.798    172.70371   0.98856261 
   37300    241.30784    87.736467    105387.32   -32775.242    2503.8584     -35279.1    173.32085   0.98837947 
   37400    237.73548    126.34182    105428.95   -32830.903    2466.7908   -35297.694    173.51923   0.98798921 
   37500    239.55631    159.60971    105474.01   -32830.704    2485.6841   -35316.388    173.70482   0.98756717 
   37600    236.76319    276.24676    105599.03   -32840.217    2456.7021   -35296.919    174.02633   0.98639791 
   37700    234.62002     109.1595    105650.11   -32833.895    2434.4642   -35268.359    174.39813   0.98592106 
   37800    239.15265    155.98587    105650.45   -32830.665    2481.4957   -35312.161    174.51267    0.9859179 
   37900    236.30895      138.777    105759.39     -32843.1    2451.9888   -35295.089    174.85437   0.98490235 
   38000    237.75831   -376.45239    105808.51   -32866.353    2467.0277   -35333.381    175.02017   0.98444509 
   38100      235.516   -264.82487     105787.1    -32813.75     2443.761   -35257.511    175.31637   0.98464436 
   38200    234.81588   -203.97567    105669.64   -32868.107    2436.4965   -35304.604    175.25751   0.98573882 
   38300    236.83702    158.80849    105731.53   -32890.168    2457.4683   -35347.636    176.29062   0.98516182 
   38400    232.93549    301.29452    105615.67   -32921.188    2416.9851   -35338.173    176.74238   0.98624255 
   38500    235.05653    136.86043    105531.26   -32918.266    2438.9935    -35357.26    177.54575   0.98703141 
   38600    236.64095    247.87096    105364.05   -32843.312    2455.4338   -35298.746    178.10544   0.98859776 
   38700     236.5735    30.377491    105412.92   -32849.291    2454.7339   -35304.025    178.50652   0.98813946 
   38800    240.47954    197.36984    105417.27   -32818.904    2495.2637   -35314.167    178.81122   0.98809874 
   38900    243.40532    87.116006    105539.22   -32824.577    2525.6222   -35350.199    179.27656     0.986957 
   39000    239.15631    92.560001    105650.67   -32775.638    2481.5337   -35257.172    180.44239   0.98591585 
   39100    239.49959   -9.1748438    105639.12   -32848.078    2485.0956   -35333.174    180.65683   0.98602365 
   39200    241.36195    216.58887    105701.68   -32808.948    2504.4199   -35313.368     181.4324   0.98544008 
   39300    244.93882    150.49526    105744.69   -32755.641    2541.5341   -35297.175     182.3218   0.98503921 
   39400    244.08449   -43.988031    105681.94   -32767.688    2532.6694   -35300.358     183.3071    0.9856241 
   39500    243.73756   -86.234874    105735.76   -32737.871    2529.0696   -35266.941    183.55851   0.98512239 
   39600    240.76624   -304.96636    105661.09   -32749.149    2498.2386   -35247.388    184.01748   0.98581861 
   39700    239.36054    175.48985    105608.66   -32803.094    2483.6528   -35286.747    184.10353   0.98630797 
   39800    235.71127     18.81762    105526.92   -32859.787    2445.7872   -35305.574     183.7809   0.98707204 
   39900    237.08419   -206.53877    105422.89   -32914.063    2460.0329   -35374.096    183.79686     0.988046 
   40000    238.00434    83.651434     105493.9   -32856.019    2469.5806     -35325.6    184.24555   0.98738092 
   40100    237.67229    56.311841    105459.57   -32804.282    2466.1352   -35270.417    184.87252   0.98770241 
   40200    240.92336    -31.51182    105547.11   -32798.251     2499.869    -35298.12    185.35927   0.98688315 
   40300    244.80251   -75.083274    105651.42   -32780.519    2540.1198   -35320.639    185.65812   0.98590882 
   40400     239.2104    343.42432    105652.97   -32824.065    2482.0949    -35306.16    186.04509   0.98589433 
   40500    241.70968    85.550059     105672.5   -32800.975    2508.0279   -35309.003     186.1823   0.98571215 
   40600    242.29095   -22.185619    105609.27   -32784.701    2514.0593   -35298.761    186.28269   0.98630233 
   40700    241.61568   -189.21581    105693.03   -32805.709    2507.0526   -35312.762    186.98602   0.98552066 
   40800    235.23707   -143.17545    105706.85   -32793.984    2440.8669   -35234.851    188.34603   0.98539188 
   40900      234.617   -81.339823    105760.69   -32840.959    2434.4328   -35275.392    188.73768   0.98489024 
   41000    239.92792   -33.503886    105673.68   -32824.404      2489.54   -35313.944    189.13532   0.98570111 
   41100    246.94492    53.402955    105572.57   -32764.117    2562.3498   -35326.467    189.71572   0.98664516 
   41200     237.0993   -188.66525    105580.66   -32740.526    2460.1897   -35200.716    190.20884   0.98656956 
   41300    235.02598   -331.74697    105455.01   -32825.753    2438.6765   -35264.429    190.96532   0.98774506 
   41400    232.25498   -65.890645    105540.07   -32821.982    2409.9241   -35231.906    191.85296   0.98694902 
   41500    240.55197   -144.79267     105567.9   -32824.553    2496.0153   -35320.569    192.51366   0.98668879 
   41600    236.28546   -54.087672    105530.28       -32816    2451.7452   -35267.745    193.32576   0.98704057 
   41700    239.48791    260.79736    105578.09   -32856.444    2484.9744   -35341.419    193.56323    0.9865936 
   41800    238.76509   -18.260292    105651.73    -32789.15    2477.4743   -35266.624    193.71302   0.98590598 
   41900    242.96381   -326.89594    105746.09   -32820.967     2521.041   -35342.008    193.41767   0.98502619 
   42000    241.54689    39.224085    105810.12   -32836.955    2506.3388   -35343.294    193.90913   0.98443013 
   42100    241.38634   -286.74543    105708.15   -32828.002    2504.6729   -35332.675     193.8681   0.98537968 
   42200    245.31207   -61.355869    105557.77   -32809.335    2545.4071   -35354.742    193.52109   0.98678349 
   42300    241.17568   -18.981417    105404.29   -32889.494     2502.487   -35391.981    194.19015   0.98822042 
   42400    240.31398   -72.799941    105411.17   -32820.974    2493.5459    -35314.52     194.7424   0.98815588 
   42500    233.79441    -218.6559    105455.43   -32884.624    2425.8975   -35310.521    194.91719   0.98774119 
   42600     238.9087    409.85506    105367.32   -32831.673    2478.9644   -35310.638    195.50578   0.98856713 
   42700    238.28824    171.23638    105429.27   -32903.496    2472.5264   -35376.023     196.2453    0.9879862 
   42800    230.97772    292.23608    105553.02   -32874.556    2396.6709   -35271.227    197.67627   0.98682792 
   42900    240.05763   -127.88052    105454.79   -32824.062     2490.886   -35314.948    198.38844   0.98774716 
   43000    237.34324    -126.7506    105445.35   -32819.874    2462.7209   -35282.595    198.49849   0.98783554 
   43100    234.30796   -44.463892    105432.95   -32800.524    2431.2262    -35231.75    198.57768   0.98795172 
   43200    242.31595   -10.892996    105574.65   -32776.113    2514.3187   -35290.432     199.5741   0.98662575 
   43300    235.00106    404.16306    105587.81   -32826.383    2438.4179   -35264.801     199.8161   0.98650274 
   43400    237.45956    60.229889    105647.34   -32777.643    2463.9278   -35241.571    200.11811   0.98594694 
   43500    232.67109   -325.65076    105492.59   -32778.087    2414.2417   -35192.329    199.86183   0.98739321 
   43600    235.88884    100.75355    105428.86   -32766.339    2447.6297   -35213.969    200.35531   0.98799004 
   43700    243.82282   -243.99838    105382.29   -32730.418    2529.9542   -35260.372    200.67447   0.98842666 
   43800    237.31215    172.67786    105248.63   -32751.848    2462.3983   -35214.246    200.91208   0.98968196 
   43900    239.23479   -52.224392    105246.07   -32780.453     2482.348   -35262.801    201.23429   0.98970599 
   44000    238.90299    177.84359    105417.37   -32745.152    2478.9052   -35224.058     201.8322   0.98809777 
   44100    237.27293    14.299865    105379.69   -32674.944    2461.9913   -35136.935    201.30921   0.98845103 
   44200     240.2945   -42.222511    105421.53   -32744.926    2493.3438   -35238.269    202.27765   0.98805875 
   44300    230.83475   -204.01608    105373.95   -32802.959    2395.1875   -35198.147    202.53289   0.98850489 
   44400    234.78529    82.401907    105295.53   -32787.765    2436.1791   -35223.944    202.60312   0.98924111 
   44500    241.57753    -184.3513    105236.77   -32771.199    2506.6567   -35277.855    202.63039   0.98979345 
   44600    233.16193   -125.12283     105252.2   -32832.832    2419.3348   -35252.167    203.13749   0.98964837 
   44700    238.44273    -212.5052    105223.68   -32820.452    2474.1295   -35294.582    204.04077    0.9899166 
   44800    232.79298    84.204155     105105.6   -32782.568    2415.5065   -35198.074    204.70392   0.99102872 
   44900    240.88363    127.89378    105214.57   -32784.486    2499.4567   -35283.943    205.48722   0.99000232 
   45000    236.86461   -36.754162    105258.68   -32770.535    2457.7545    -35228.29    206.59491   0.98958748 
   45100    240.61273    231.08671    105240.45   -32789.574    2496.6457   -35286.219    206.61304   0.98975885 
   45200    232.08887    148.17605    105409.18   -32839.174    2408.2005   -35247.375    207.84781   0.98817453 
   45300    239.92156     152.0058    105477.32    -32827.07     2489.474   -35316.544    208.48613   0.98753613 
   45400    235.92415    209.06105    105567.78   -32851.051    2447.9962   -35299.047    209.10177   0.98668997 
   45500    240.53046    172.98031    105740.91   -32820.806    2495.7921   -35316.598    209.54771   0.98507446 
   45600    237.91693     110.6446    105800.03   -32829.302    2468.6736   -35297.975     209.6279     0.984524 
   45700     242.8907    62.319315    105743.99   -32780.115    2520.2824   -35300.398    209.41949   0.98504578 
   45800    239.40771    -147.8403    105698.29   -32829.788    2484.1423    -35313.93     209.1549   0.98547166 
   45900    238.50279   -67.670944    105593.16   -32802.405    2474.7526   -35277.158    209.35343   0.98645283 
   46000    238.42528    230.13116    105645.48   -32799.315    2473.9483   -35273.263    210.41075   0.98596424 
   46100    236.54292    84.827756    105813.32   -32802.429    2454.4166   -35256.845     211.2924   0.98440033 
   46200    239.65751    22.779167    105843.82   -32760.305    2486.7342    -35247.04    211.63342   0.98411666 
   46300    243.62303   -304.04298    105802.92   -32815.029    2527.8813    -35342.91    212.26048   0.98449709 
   46400    240.16092    96.024581    105715.98   -32807.016    2491.9577   -35298.973    212.94026   0.98530675 
   46500    240.95081   -56.017369    105608.28   -32784.104    2500.1537   -35284.257    214.03097    0.9863116 
   46600    244.65431     31.41289    105637.41   -32713.939     2538.582   -35252.521    214.41264    0.9860396 
   46700    245.76864   -87.743294    105652.79   -32722.588    2550.1445   -35272.732     215.1546   0.98589606 
   46800    244.37236   -297.70387     105564.2   -32693.744    2535.6564     -35229.4    215.30991   0.98672345 
   46900    243.71264   -191.29354    105593.61   -32722.074    2528.8111   -35250.885     215.9059   0.98644862 
   47000    238.91244   -167.13545    105529.75   -32787.104    2479.0032   -35266.108    215.37188   0.98704554 
   47100    236.46041   -171.26577    105449.85   -32768.996    2453.5605   -35222.556    215.63622   0.98779344 
   47200    240.38201   -220.14417    105434.13   -32808.888    2494.2518    -35303.14    216.39495   0.98794073 
   47300    240.00374   -34.729497    105383.64   -32763.593    2490.3267    -35253.92    216.89325   0.98841397 
   47400    234.71431   -5.3336633    105336.98   -32765.461    2435.4426   -35200.903     216.9564   0.98885181 
   47500    241.82383    284.27663    105352.08   -32767.604    2509.2124   -35276.816    216.60248   0.98871012 
   47600    245.77799    187.75516    105518.12   -32767.702    2550.2415   -35317.943    216.58708   0.98715434 
   47700    246.31655    23.971867     105606.1   -32786.145    2555.8298   -35341.975    217.26373    0.9863319 
   47800    239.94889   -174.76568    105523.61   -32841.823    2489.7576   -35331.581    218.11495   0.98710291 
   47900    233.70226     206.8165    105628.81   -32841.254    2424.9413   -35266.196    218.91869   0.98611982 
   48000    244.93902    14.528786    105719.93   -32836.221    2541.5362   -35377.757    219.64092   0.98526992 
   48100    235.34927   -5.1346156    105675.47   -32873.412    2442.0311   -35315.443    220.19947   0.98568449 
   48200    242.09348   -1.4482591    105716.49   -32860.439    2512.0104    -35372.45    220.71428   0.98530194 
   48300    240.68006   -151.30628    105597.77   -32877.872    2497.3444   -35375.216    220.97418    0.9864097 
   48400    238.28819     50.38381    105477.99   -32892.463    2472.5259   -35364.989    220.89213   0.98752993 
   48500    233.27646    17.113214     105539.5   -32907.343    2420.5232   -35327.866     221.1717   0.98695432 
   48600    237.32664    38.843775    105658.29   -32919.198    2462.5486   -35381.747    221.17463   0.98584476 
   48700    236.60246   -53.294508    105628.18   -32925.753    2455.0344   -35380.787    220.96422   0.98612577 
   48800    238.32067    90.808348    105656.87   -32908.754    2472.8629   -35381.617    221.08772   0.98585796 
   48900    237.66967   -94.069796    105705.84   -32920.751     2466.108   -35386.859    221.44343   0.98540123 
   49000    238.67549    46.364056    105685.01   -32885.965    2476.5445   -35362.509    221.58533   0.98559543 
   49100    239.56286     -35.6948    105672.26   -32924.637    2485.7521   -35410.389    221.77906    0.9857144 
   49200     238.0021    150.85236    105674.81   -32962.049    2469.5574   -35431.606    221.83304   0.98569063 
   49300    239.30951   -91.182968    105697.28   -32860.966    2483.1233   -35344.089    222.00208   0.98548105 
   49400    241.70916   -233.89782    105705.24    -32898.79    2508.0225   -35406.813    222.20329   0.98540682 
   49500    238.89313    145.09515    105680.25   -32863.388    2478.8028   -35342.191    222.38566   0.98563984 
   49600    236.32812   -426.98194    105712.23   -32877.627    2452.1877   -35329.815    222.75015   0.98534173 
   49700    237.98848    243.81961    105654.32   -32842.683     2469.416   -35312.099     223.0877   0.98588178 
   49800    240.52016   -10.390271    105700.86   -32798.073    2495.6853   -35293.759    224.06995   0.98544765 
   49900    240.15709    67.272704    105570.41   -32798.385    2491.9179   -35290.303     224.0751   0.98666534 
   50000    234.44494    155.00199    105595.05   -32869.209    2432.6476   -35301.857    224.43978   0.98643515 
   50100    243.32676    24.923186    105563.13   -32820.517    2524.8071   -35345.324    224.93974   0.98673339 
   50200    239.53705   -168.55651    105518.83    -32871.92    2485.4842   -35357.404    226.18387   0.98714768 
   50300    235.70511    196.43832    105424.95   -32847.339    2445.7233   -35293.062    226.81897   0.98802669 
   50400    239.95761   -103.19201    105322.09   -32850.774    2489.8481   -35340.622    227.15597   0.98899163 
   50500     240.4761    78.712328     105522.7   -32814.796     2495.228   -35310.024    227.80389   0.98711143 
   50600    241.60687   -158.48962    105485.63    -32859.63    2506.9611   -35366.591    228.25013   0.98745833 
   50633    237.00868   -18.232631    105456.65   -32858.758    2459.2494   -35318.008    228.35512   0.98772973 
Loop time of 475.488 on 12 procs for 50000 steps with 3482 atoms

Performance: 45.427 ns/day, 0.528 hours/ns, 105.155 timesteps/s
90.2% CPU use with 12 MPI tasks x no OpenMP threads

MPI task timing breakdown:
Section |  min time  |  avg time  |  max time  |%varavg| %total
---------------------------------------------------------------
Pair    | 27.51      | 28.185     | 29.033     |   8.9 |  5.93
Neigh   | 1.6521     | 1.7122     | 1.8009     |   3.2 |  0.36
Comm    | 165.13     | 172.95     | 176.85     |  24.1 | 36.37
Output  | 3.2952     | 3.3282     | 3.3954     |   1.8 |  0.70
Modify  | 210.7      | 217.58     | 225.77     |  32.3 | 45.76
Other   |            | 51.73      |            |       | 10.88

Nlocal:        290.167 ave         299 max         282 min
Histogram: 1 2 2 0 2 1 1 1 0 2
Nghost:        864.250 ave         882 max         846 min
Histogram: 2 0 1 2 1 1 1 1 2 1
Neighs:        0.00000 ave           0 max           0 min
Histogram: 12 0 0 0 0 0 0 0 0 0
FullNghs:      8313.00 ave        8671 max        7952 min
Histogram: 2 1 1 0 1 2 2 0 1 2

Total # of neighbors = 99756
Ave neighs/atom = 28.649052
Neighbor list builds = 2964
Dangerous builds = 0

unfix               2
unfix               3
unfix               4

write_data		data.whole_${NAME}
write_data		data.whole_Ibeam_MLmW_240K
System init for write_data ...


# Create the I-beam, width 35A
region beam block 17.0 53.0 0.0 INF 0.0 INF side out
delete_atoms region beam
Deleted 1662 atoms, new total = 1820

fix                 1 all momentum 10 linear 1 1 1 rescale
fix                 2 all nve
fix                 3 all temp/csvr ${TEMP} ${TEMP} 500.0 928347
fix                 3 all temp/csvr 240 ${TEMP} 500.0 928347
fix                 3 all temp/csvr 240 240 500.0 928347

# Run 0.05 ns equilibration
#
dump                2 all custom 1000 eq.${NAME}.dump id type x y z vx vy vz
dump                2 all custom 1000 eq.Ibeam_MLmW_240K.dump id type x y z vx vy vz
run                 10000
Per MPI rank memory allocation (min/avg/max) = 4.732 | 4.735 | 4.739 Mbytes
Step Temp Press Volume TotEng KinEng PotEng c_1[4] Density 
   50633    239.38376   -482.62657    105456.65   -16599.168    1297.9611   -17897.129    228.46082   0.51627459 
   50700    240.02049    247.91108    105456.65   -16619.058    1301.4135   -17920.472    228.77742   0.51627459 
   50800     239.3865    -79.76952    105456.65   -16706.855     1297.976   -18004.831    230.13047   0.51627459 
   50900    240.08603    149.48589    105456.65   -16714.838    1301.7689   -18016.606    230.09606   0.51627459 
   51000    239.02205   -228.05053    105456.65   -16712.175    1295.9999   -18008.175    230.90881   0.51627459 
   51100    235.45971   -251.91607    105456.65   -16720.111    1276.6845   -17996.795    231.80543   0.51627459 
   51200    239.93956    306.91812    105456.65   -16668.837    1300.9747   -17969.811    231.92728   0.51627459 
   51300    243.91033   -307.42788    105456.65   -16664.491    1322.5046   -17986.996    232.70651   0.51627459 
   51400    239.51541    -59.70161    105456.65   -16659.543     1298.675   -17958.218    233.74155   0.51627459 
   51500    249.00332   -328.26007    105456.65   -16685.099    1350.1193   -18035.219    234.20487   0.51627459 
   51600    236.77424   -333.17283    105456.65   -16718.262    1283.8121   -18002.074    235.01912   0.51627459 
   51700    237.04107    65.725296    105456.65   -16738.153    1285.2588   -18023.412    234.67403   0.51627459 
   51800    243.90682   -331.79966    105456.65   -16722.095    1322.4856   -18044.581    234.72021   0.51627459 
   51900    239.37193    49.590711    105456.65   -16695.501     1297.897   -17993.398    234.96487   0.51627459 
   52000    239.48635   -113.88231    105456.65   -16708.449    1298.5174   -18006.967    234.97003   0.51627459 
   52100    238.40433    67.081458    105456.65   -16768.942    1292.6505   -18061.593    235.14961   0.51627459 
   52200    244.96338   -162.29474    105456.65   -16733.157    1328.2144   -18061.371    235.78789   0.51627459 
   52300    235.41898   -269.16302    105456.65   -16748.515    1276.4637   -18024.978    236.29448   0.51627459 
   52400    244.72094    -233.4064    105456.65   -16738.553    1326.8998   -18065.453    236.27803   0.51627459 
   52500    245.84657   -175.84673    105456.65   -16713.568    1333.0031   -18046.571    236.07484   0.51627459 
   52600     245.4051    -361.1828    105456.65   -16671.706    1330.6094   -18002.315    237.13906   0.51627459 
   52700    240.39718    46.024959    105456.65   -16743.902     1303.456   -18047.358    237.96725   0.51627459 
   52800    241.22149   -90.598673    105456.65   -16733.895    1307.9255    -18041.82     238.4554   0.51627459 
   52900     245.4231   -90.242243    105456.65   -16728.323     1330.707    -18059.03    238.09933   0.51627459 
   53000    241.19004   -214.15424    105456.65    -16722.41     1307.755   -18030.165    238.88482   0.51627459 
   53100    240.81843   -150.96897    105456.65   -16707.298    1305.7401   -18013.038    239.20839   0.51627459 
   53200    241.32871   -20.384446    105456.65   -16695.143    1308.5069    -18003.65    239.73581   0.51627459 
   53300     243.2316   -193.71955    105456.65   -16712.092    1318.8245   -18030.917    238.75379   0.51627459 
   53400    243.25224    58.616659    105456.65   -16721.143    1318.9364   -18040.079     239.3218   0.51627459 
   53500     248.0327   -16.435458    105456.65    -16675.94    1344.8565   -18020.796     240.0314   0.51627459 
   53600    245.46527   -232.83243    105456.65   -16711.459    1330.9357   -18042.394    240.26728   0.51627459 
   53700     243.4469   -212.55509    105456.65   -16712.514    1319.9919   -18032.506     240.6611   0.51627459 
   53800    233.37461    136.02494    105456.65   -16716.518    1265.3789   -17981.897    240.32624   0.51627459 
   53900     234.6948   -157.24531    105456.65   -16802.131    1272.5372   -18074.668    240.82639   0.51627459 
   54000    239.99339    106.89172    105456.65   -16760.849    1301.2666   -18062.116    241.02972   0.51627459 
   54100    238.06964   -161.47118    105456.65   -16722.759    1290.8358   -18013.594    242.00421   0.51627459 
   54200    239.96556     -354.409    105456.65   -16734.436    1301.1157   -18035.551    243.29161   0.51627459 
   54300    246.26169   -237.04353    105456.65   -16742.498    1335.2539   -18077.752    244.44611   0.51627459 
   54400    241.14393   -105.86796    105456.65   -16729.079    1307.5049   -18036.584    245.35121   0.51627459 
   54500    243.82841    12.207173    105456.65   -16703.771    1322.0604   -18025.831    246.51527   0.51627459 
   54600     245.9927   -279.01681    105456.65   -16735.148    1333.7954   -18068.943    247.41026   0.51627459 
   54700    240.78533    111.75566    105456.65   -16776.449    1305.5606    -18082.01    248.31187   0.51627459 
   54800    244.34173    185.88319    105456.65   -16749.834    1324.8437   -18074.677    248.64779   0.51627459 
   54900    240.17457   -267.95496    105456.65   -16790.521     1302.249    -18092.77    249.75516   0.51627459 
   55000    242.74183    -169.6082    105456.65   -16776.594    1316.1689   -18092.763     250.7075   0.51627459 
   55100    238.13987   -133.14286    105456.65   -16807.644    1291.2167    -18098.86     251.4394   0.51627459 
   55200    232.75054   -236.26166    105456.65   -16842.849    1261.9952   -18104.844    250.56368   0.51627459 
   55300    239.81057   -8.2877812    105456.65   -16806.651    1300.2753   -18106.926    250.75825   0.51627459 
   55400    239.81512     -144.453    105456.65   -16734.634       1300.3   -18034.933    250.43404   0.51627459 
   55500    249.93743    28.188318    105456.65   -16725.483    1355.1841   -18080.667    250.94164   0.51627459 
   55600    243.91813   -302.60245    105456.65   -16715.072    1322.5469   -18037.619    251.53103   0.51627459 
   55700    241.21454   -183.41136    105456.65   -16737.509    1307.8878   -18045.397    251.86054   0.51627459 
   55800    240.01899    29.943892    105456.65   -16705.053    1301.4054   -18006.459    252.03224   0.51627459 
   55900    237.72294   -222.19772    105456.65   -16777.203     1288.956   -18066.159    253.23929   0.51627459 
   56000    231.39675   -166.56526    105456.65   -16791.655    1254.6548    -18046.31    253.95708   0.51627459 
   56100    237.33892   -39.674118    105456.65   -16757.987    1286.8738    -18044.86    253.61331   0.51627459 
   56200    240.96465   -208.68814    105456.65   -16784.962    1306.5329   -18091.495    253.28098   0.51627459 
   56300    237.53241   -449.08839    105456.65   -16772.028    1287.9229   -18059.951    254.21255   0.51627459 
   56400    238.82932    73.047224    105456.65   -16756.599    1294.9549   -18051.554    255.19181   0.51627459 
   56500    238.94045    -103.0582    105456.65   -16777.776    1295.5575   -18073.333    256.07635   0.51627459 
   56600    236.99319    291.57437    105456.65   -16800.583    1284.9992   -18085.583    256.02182   0.51627459 
   56700     230.7783   -550.50835    105456.65   -16786.785    1251.3015   -18038.086    256.46863   0.51627459 
   56800    235.46058    92.653196    105456.65   -16797.178    1276.6893   -18073.867    256.07944   0.51627459 
   56900    242.18404   -178.50153    105456.65   -16750.625    1313.1445    -18063.77    256.88334   0.51627459 
   57000    238.15849   -268.30507    105456.65   -16730.389    1291.3176   -18021.707    257.73518   0.51627459 
   57100    242.26803   -345.18053    105456.65   -16772.119    1313.5999   -18085.719    258.57425   0.51627459 
   57200    235.52985   -178.13757    105456.65   -16776.759    1277.0649   -18053.824    259.78641   0.51627459 
   57300    241.99876   -59.186991    105456.65   -16771.339    1312.1399   -18083.479    261.26178   0.51627459 
   57400    233.86014   -123.95714    105456.65   -16804.426    1268.0115   -18072.437     262.0492   0.51627459 
   57500     240.7254   -136.84276    105456.65   -16721.663    1305.2356   -18026.898    262.25494   0.51627459 
   57600    243.66659   -293.21298    105456.65   -16752.431     1321.183   -18073.614    262.45712   0.51627459 
   57700     241.8316   -178.05222    105456.65   -16761.039    1311.2335   -18072.273     262.8778   0.51627459 
   57800     242.6549   -50.709076    105456.65   -16782.924    1315.6975   -18098.622    263.83558   0.51627459 
   57900    237.25019    94.775838    105456.65   -16857.044    1286.3927   -18143.437    265.71545   0.51627459 
   58000    234.76128   -224.73551    105456.65   -16870.586    1272.8976   -18143.483    266.05496   0.51627459 
   58100    240.11285   -163.40284    105456.65   -16813.538    1301.9143   -18115.452    266.36001   0.51627459 
   58200    232.81203   -272.94994    105456.65     -16841.7    1262.3286   -18104.029    266.53405   0.51627459 
   58300    243.92988    12.764958    105456.65   -16789.875    1322.6106   -18112.485    266.21227   0.51627459 
   58400    245.71866     78.67632    105456.65   -16842.515    1332.3095   -18174.824    266.15586   0.51627459 
   58500    238.71122   -353.32911    105456.65   -16850.283    1294.3145   -18144.597    266.45504   0.51627459 
   58600    240.68015   -333.62683    105456.65     -16824.2    1304.9903    -18129.19     266.1834   0.51627459 
   58700    239.29246    73.349987    105456.65   -16811.637    1297.4661   -18109.103    266.74013   0.51627459 
   58800    235.84181    35.963395    105456.65   -16779.028    1278.7563   -18057.785    267.57467   0.51627459 
   58900    237.66991   -445.61433    105456.65   -16778.314    1288.6685   -18066.983     268.6812   0.51627459 
   59000    239.53545   -83.864851    105456.65   -16720.898    1298.7836   -18019.682    269.44752   0.51627459 
   59100    243.42061   -269.70579    105456.65   -16738.727    1319.8493   -18058.576    269.67575   0.51627459 
   59200    245.20042    -88.73661    105456.65   -16757.572    1329.4996   -18087.071    269.93633   0.51627459 
   59300    244.36094    37.296511    105456.65   -16759.283    1324.9479   -18084.231    271.09461   0.51627459 
   59400     238.4479   -326.99311    105456.65   -16785.702    1292.8868   -18078.589    271.61304   0.51627459 
   59500    241.62424   -192.54913    105456.65   -16808.139    1310.1092   -18118.248      270.797   0.51627459 
   59600    240.64306   -116.33213    105456.65     -16834.2    1304.7892    -18138.99    271.81832   0.51627459 
   59700    239.99021   -189.52746    105456.65   -16825.415    1301.2494   -18126.665    272.75107   0.51627459 
   59800    243.83619   -89.697145    105456.65    -16822.57    1322.1026   -18144.672    272.71979   0.51627459 
   59900    237.95318    65.766553    105456.65   -16811.737    1290.2044   -18101.941     273.1348   0.51627459 
   60000    235.97687   -274.08501    105456.65   -16887.572    1279.4886   -18167.061    273.79937   0.51627459 
   60100    234.38812   -151.31068    105456.65   -16856.598    1270.8743   -18127.472     274.6473   0.51627459 
   60200    238.95237   -58.275101    105456.65   -16875.513    1295.6221   -18171.135    274.41667   0.51627459 
   60300    244.18522   -164.86872    105456.65   -16845.424    1323.9951   -18169.419    275.29405   0.51627459 
   60400    235.54888   -289.39852    105456.65   -16835.997    1277.1681   -18113.165    275.33397   0.51627459 
   60500    240.71585   -145.53982    105456.65   -16829.946    1305.1839    -18135.13    275.87296   0.51627459 
   60600    244.70542   -95.204517    105456.65   -16821.475    1326.8156   -18148.291    275.38521   0.51627459 
   60633    241.35469   -99.617007    105456.65   -16830.632    1308.6477    -18139.28     274.9187   0.51627459 
Loop time of 71.5296 on 12 procs for 10000 steps with 1820 atoms

Performance: 60.395 ns/day, 0.397 hours/ns, 139.802 timesteps/s
90.7% CPU use with 12 MPI tasks x no OpenMP threads

MPI task timing breakdown:
Section |  min time  |  avg time  |  max time  |%varavg| %total
---------------------------------------------------------------
Pair    | 0.83915    | 2.5734     | 5.3415     | 115.5 |  3.60
Neigh   | 0.054328   | 0.1624     | 0.34055    |  25.9 |  0.23
Comm    | 27.042     | 30.797     | 32.501     |  31.6 | 43.05
Output  | 0.89386    | 0.91406    | 0.95176    |   2.1 |  1.28
Modify  | 18.762     | 24.257     | 28.247     |  60.1 | 33.91
Other   |            | 12.83      |            |       | 17.93

Nlocal:        151.667 ave         296 max          67 min
Histogram: 6 2 0 0 0 0 0 0 0 4
Nghost:        503.500 ave         868 max         308 min
Histogram: 8 0 0 0 0 0 0 0 0 4
Neighs:        0.00000 ave           0 max           0 min
Histogram: 12 0 0 0 0 0 0 0 0 0
FullNghs:      4088.67 ave        8674 max        1465 min
Histogram: 7 1 0 0 0 0 0 0 0 4

Total # of neighbors = 49064
Ave neighs/atom = 26.958242
Neighbor list builds = 575
Dangerous builds = 0


write_data		data.${NAME}
write_data		data.Ibeam_MLmW_240K
System init for write_data ...
Total wall time: 0:09:16
