
### Dimensions ###
variable Z_G equal 10.062000000000001
variable Z_W equal 23.803019087

variable	XDIM string 78.752
variable 	YDIM string 68.92587069519459


### IMPORT ATOMS ###
read_data ../Box_Setup/data.Ibeam_240K
Reading data file ...
  orthogonal box = (0.0000000 0.0000000 0.0000000) to (78.752000 68.925871 33.963510)
  8 by 8 by 2 MPI processor grid
  reading atoms ...
  8098 atoms
  reading velocities ...
  8098 velocities
  read_data CPU = 0.020 seconds
group water type 2
1794 atoms in group water
group graphite type 1
6304 atoms in group graphite


# Define potential
#
pair_style          sw
pair_coeff * * MLC_e.sw C mW

# Add velocity/set timestep
#

fix		1 graphite setforce 0.0 0.0 0.0
velocity 	graphite set 0.0 0.0 0.0
velocity            water create ${START_TEMP} ${SEED} rot yes dist gaussian
velocity            water create 240 ${SEED} rot yes dist gaussian
velocity            water create 240 7416 rot yes dist gaussian
timestep            5.0

# Define output
#
compute 1 water msd
compute 2 water temp


thermo	            100
thermo_style custom step c_2 press vol etotal ke pe c_1[4] density

# Neighbor lists
#
neigh_modify        delay 0 every 1 check yes


# Set fixes
#
fix                 2 water momentum 10 linear 1 1 1 rescale
fix                 3 all nve
fix                 4 water temp/csvr ${START_TEMP} ${START_TEMP} 500.0 928347
fix                 4 water temp/csvr 240 ${START_TEMP} 500.0 928347
fix                 4 water temp/csvr 240 240 500.0 928347

# Run 0.05 ns equilibration
#
dump                1 all custom 100 ${DIR}/eq.${NAME}.dump id type x y z vx vy vz
dump                1 all custom 100 run_3/eq.${NAME}.dump id type x y z vx vy vz
dump                1 all custom 100 run_3/eq.ibeam_cooling_3.dump id type x y z vx vy vz
run                 10000
Neighbor list info ...
  update every 1 steps, delay 0 steps, check yes
  max neighbors/atom: 2000, page size: 100000
  master list distance cutoff = 6.6747184
  ghost atom cutoff = 6.6747184
  binsize = 3.3373592, bins = 24 21 11
  1 neighbor lists, perpetual/occasional/extra = 1 0 0
  (1) pair sw, perpetual
      attributes: full, newton on
      pair build: full/bin/atomonly
      stencil: full/bin/3d
      bin: standard
Per MPI rank memory allocation (min/avg/max) = 3.600 | 4.444 | 4.730 Mbytes
Step c_2 Press Volume TotEng KinEng PotEng c_1[4] Density 
       0          240   -393.07244    184355.63   -16966.788    1282.7022    -18249.49            0   0.97305373 
     100    239.98894    -331.7613    184355.63   -16989.546    1282.6431   -18272.189   0.93101125   0.97305373 
     200    239.88998   -382.34737    184355.63    -17036.49    1282.1142   -18318.604    1.3191271   0.97305373 
     300     237.6696   -441.23893    184355.63   -17017.538    1270.2471   -18287.785    1.6986433   0.97305373 
     400    237.50402   -530.35043    184355.63   -17036.859    1269.3622   -18306.221    2.2045131   0.97305373 
     500    234.98321   -198.95703    184355.63   -17015.469    1255.8895   -18271.358    2.5442866   0.97305373 
     600    248.11314    -274.9647    184355.63   -16943.147    1326.0636   -18269.211     2.752915   0.97305373 
     700    245.39094   -361.28832    184355.63   -16938.936    1311.5146    -18250.45    3.1012171   0.97305373 
     800    253.23701   -131.50595    184355.63   -16916.793    1353.4486   -18270.242    3.3825304   0.97305373 
     900    245.05128   -449.20406    184355.63   -16957.756    1309.6992   -18267.455    3.7819781   0.97305373 
    1000    238.27514    -488.8755    184355.63   -16994.427    1273.4835    -18267.91    4.1891838   0.97305373 
    1100    243.31562   -281.11997    184355.63   -16965.387    1300.4228    -18265.81    4.5857495   0.97305373 
    1200    243.50597   -257.32695    184355.63    -16972.15    1301.4402    -18273.59     5.015698   0.97305373 
    1300    247.71059   -328.80868    184355.63   -16948.532    1323.9121   -18272.444    5.4909404   0.97305373 
    1400    243.71502   -286.79574    184355.63   -16967.411    1302.5574   -18269.968    6.0851681   0.97305373 
    1500    243.32633   -309.08315    184355.63   -16984.856    1300.4801   -18285.336    6.3917851   0.97305373 
    1600     236.3336   -519.01076    184355.63   -16964.559    1263.1068   -18227.666    6.8792091   0.97305373 
    1700    244.84345    -486.1359    184355.63   -16969.299    1308.5884   -18277.888    7.2420438   0.97305373 
    1800    242.31983   -393.36805    184355.63   -16942.779    1295.1007    -18237.88    7.5780729   0.97305373 
    1900    250.21104   -283.83859    184355.63   -16915.678     1337.276   -18252.954    7.8942774   0.97305373 
    2000    243.29938   -261.95397    184355.63   -16901.197     1300.336   -18201.533     8.387877   0.97305373 
    2100    241.23293   -392.47875    184355.63   -16989.417    1289.2917   -18278.709    8.8363833   0.97305373 
    2200    239.80002   -431.59303    184355.63   -16957.949    1281.6334   -18239.583    9.2139855   0.97305373 
    2300    248.12762   -416.60017    184355.63   -16944.875     1326.141   -18271.016    9.5566314   0.97305373 
    2400    246.91064   -359.21482    184355.63   -16939.269    1319.6368   -18258.905    9.5395871   0.97305373 
    2500    237.95049   -375.28554    184355.63   -16960.097    1271.7484   -18231.845    9.8230245   0.97305373 
    2600    246.92622   -400.53729    184355.63   -16953.176      1319.72   -18272.896    10.087785   0.97305373 
    2700    237.29109   -235.85947    184355.63   -16970.193    1268.2242   -18238.417    10.553607   0.97305373 
    2800     250.8352   -432.79246    184355.63    -16935.47    1340.6119   -18276.081    11.061495   0.97305373 
    2900    247.02178   -388.70296    184355.63   -16943.854    1320.2307   -18264.085    11.506745   0.97305373 
    3000    240.80943   -432.09974    184355.63     -16965.1    1287.0283   -18252.129    12.062467   0.97305373 
    3100    245.15886   -613.71426    184355.63   -16948.828    1310.2742   -18259.103    12.376423   0.97305373 
    3200    241.43531   -392.68401    184355.63   -16999.554    1290.3733   -18289.927    12.510649   0.97305373 
    3300    235.99977   -452.56933    184355.63   -17052.666    1261.3226   -18313.988    12.918179   0.97305373 
    3400    237.62739   -279.83783    184355.63   -17008.913    1270.0215   -18278.934    13.447148   0.97305373 
    3500     236.4492    -152.8806    184355.63   -16991.575    1263.7246     -18255.3    13.472364   0.97305373 
    3600    236.30299   -340.83812    184355.63   -16998.972    1262.9432   -18261.916    13.915401   0.97305373 
    3700    236.81618   -313.93078    184355.63   -16986.553     1265.686   -18252.239    14.600562   0.97305373 
    3800    246.14376   -335.24229    184355.63   -16949.086    1315.5381   -18264.624     14.72414   0.97305373 
    3900    234.78694   -406.75779    184355.63    -16943.88    1254.8405   -18198.721    14.905841   0.97305373 
    4000     241.4621   -197.27466    184355.63   -16994.269    1290.5165   -18284.785    15.135852   0.97305373 
    4100    242.79604    -363.0385    184355.63   -16989.311    1297.6459   -18286.957    15.772817   0.97305373 
    4200    244.92251   -316.19322    184355.63   -16969.961     1309.011   -18278.972    16.008731   0.97305373 
    4300    236.68661   -469.43046    184355.63   -17018.886    1264.9934   -18283.879    16.277538   0.97305373 
    4400    241.82022   -558.91208    184355.63   -16975.781    1292.4305   -18268.212    16.403682   0.97305373 
    4500    235.10529   -645.05585    184355.63   -17022.496    1256.5419   -18279.038     16.97843   0.97305373 
    4600    237.54698   -284.80395    184355.63   -17068.081    1269.5918   -18337.673    17.321949   0.97305373 
    4700      239.188   -212.77039    184355.63   -16994.087    1278.3624   -18272.449    17.401969   0.97305373 
    4800    240.68263   -600.18814    184355.63   -16960.324    1286.3506   -18246.674    17.863026   0.97305373 
    4900    242.77374    -366.1415    184355.63   -16907.379    1297.5267   -18204.906    18.371336   0.97305373 
    5000    246.57223   -402.83775    184355.63   -16956.991    1317.8281   -18274.819    18.738576   0.97305373 
    5100    248.02371   -589.77994    184355.63    -16952.33    1325.5856   -18277.916    19.247931   0.97305373 
    5200    237.74115   -586.91166    184355.63    -16947.11    1270.6295    -18217.74    19.725746   0.97305373 
    5300    235.06193   -474.16687    184355.63   -17018.153    1256.3102   -18274.464    19.992193   0.97305373 
    5400    239.71106   -470.97182    184355.63   -17013.056    1281.1579   -18294.214     20.13519   0.97305373 
    5500    237.46469   -458.06325    184355.63   -16991.659     1269.152   -18260.811    20.812466   0.97305373 
    5600    236.72668   -467.69489    184355.63   -17032.536    1265.2076   -18297.743    21.359503   0.97305373 
    5700    236.11929   -342.75683    184355.63    -16992.55    1261.9614   -18254.511    21.478063   0.97305373 
    5800    236.70861   -464.32913    184355.63   -16985.714    1265.1111   -18250.825    21.500366   0.97305373 
    5900    238.89773   -490.39746    184355.63   -17012.985     1276.811   -18289.796    21.894712   0.97305373 
    6000    241.65766   -386.25549    184355.63   -17009.391    1291.5617   -18300.953    22.176549   0.97305373 
    6100    241.10499   -287.57996    184355.63   -17020.382    1288.6079    -18308.99      22.5554   0.97305373 
    6200    240.43185   -421.41459    184355.63   -17030.743    1285.0102   -18315.753    22.667174   0.97305373 
    6300    245.19292   -256.48894    184355.63    -16982.91    1310.4562   -18293.367    22.990498   0.97305373 
    6400    238.50317   -392.24136    184355.63   -17003.206    1274.7022   -18277.909    23.469768   0.97305373 
    6500    242.93365   -386.30127    184355.63    -16998.87    1298.3814   -18297.251    23.681119   0.97305373 
    6600    238.41592   -373.89066    184355.63   -17029.611    1274.2359   -18303.847    23.758619   0.97305373 
    6700     228.1626   -444.69206    184355.63   -17029.845    1219.4361   -18249.281    24.631087   0.97305373 
    6800    236.17041   -229.74772    184355.63   -17033.555    1262.2346   -18295.789    24.987379   0.97305373 
    6900     236.1837   -272.93954    184355.63   -17007.927    1262.3056   -18270.233    25.280699   0.97305373 
    7000    239.59765   -476.97565    184355.63   -17005.816    1280.5518   -18286.368    25.484348   0.97305373 
    7100    230.62275   -444.28774    184355.63   -17015.389    1232.5846   -18247.974    25.778032   0.97305373 
    7200     233.6922   -524.31889    184355.63   -17060.298    1248.9896   -18309.288    26.225264   0.97305373 
    7300    240.67087   -226.34372    184355.63   -17073.347    1286.2877   -18359.635    26.542998   0.97305373 
    7400    235.32906   -348.01207    184355.63   -17040.294    1257.7379   -18298.032     26.90887   0.97305373 
    7500    237.14454   -465.43588    184355.63   -17030.326    1267.4409   -18297.767    27.099614   0.97305373 
    7600     239.6185    -395.6286    184355.63   -17019.466    1280.6632   -18300.129     26.99415   0.97305373 
    7700    237.17435   -281.96917    184355.63   -16996.802    1267.6002   -18264.403    26.788786   0.97305373 
    7800    233.07225   -360.36115    184355.63   -17022.771    1245.6762   -18268.447    27.166819   0.97305373 
    7900    239.68872   -361.69581    184355.63   -17023.182    1281.0385    -18304.22    27.556904   0.97305373 
    8000    242.50579   -468.73674    184355.63   -16962.021    1296.0946   -18258.116     28.23234   0.97305373 
    8100    247.08991   -408.08275    184355.63   -16946.081    1320.5949   -18266.676    28.493195   0.97305373 
    8200    246.02612    -406.8036    184355.63   -16960.234    1314.9093   -18275.144    28.752483   0.97305373 
    8300    246.79836   -259.96897    184355.63   -16932.131    1319.0366   -18251.167    29.258029   0.97305373 
    8400    241.97105   -378.20096    184355.63   -16918.763    1293.2367       -18212    29.745247   0.97305373 
    8500    240.73781   -266.31021    184355.63   -16954.159    1286.6455   -18240.804    30.073245   0.97305373 
    8600    243.79196   -464.74329    184355.63   -16975.202    1302.9687    -18278.17    30.349036   0.97305373 
    8700    237.73582    -341.9488    184355.63    -16981.18    1270.6011   -18251.781    30.770694   0.97305373 
    8800    243.78781   -348.89326    184355.63   -16980.448    1302.9465   -18283.394    30.850689   0.97305373 
    8900    233.98055   -484.77747    184355.63   -17013.944    1250.5307   -18264.474    31.083554   0.97305373 
    9000    236.79643   -382.13232    184355.63   -16988.913    1265.5804   -18254.493    31.567922   0.97305373 
    9100    235.26452   -180.49374    184355.63   -16988.925    1257.3929   -18246.317    31.657922   0.97305373 
    9200    242.42568   -326.61508    184355.63   -16960.241    1295.6664   -18255.907    32.057497   0.97305373 
    9300    240.75632   -483.06644    184355.63   -16998.221    1286.7444   -18284.965    32.544702   0.97305373 
    9400    237.98903   -323.77497    184355.63   -17015.503    1271.9543   -18287.457    32.925218   0.97305373 
    9500    247.11791   -385.71459    184355.63   -17015.569    1320.7445   -18336.313    33.154063   0.97305373 
    9600    238.28019   -485.35507    184355.63   -17070.083    1273.5105   -18343.593    33.591002   0.97305373 
    9700     236.9561   -420.35552    184355.63   -17017.634    1266.4338   -18284.068    33.684836   0.97305373 
    9800    239.12475   -312.37761    184355.63   -16973.185    1278.0243   -18251.209    33.876906   0.97305373 
    9900    235.11039   -486.31622    184355.63   -16967.804    1256.5692   -18224.373    34.257143   0.97305373 
   10000    241.81911   -427.20915    184355.63   -16951.629    1292.4246   -18244.054    34.712227   0.97305373 
Loop time of 5.98799 on 128 procs for 10000 steps with 8098 atoms

Performance: 721.444 ns/day, 0.033 hours/ns, 1670.009 timesteps/s
96.5% CPU use with 128 MPI tasks x no OpenMP threads

MPI task timing breakdown:
Section |  min time  |  avg time  |  max time  |%varavg| %total
---------------------------------------------------------------
Pair    | 0.00067282 | 1.7009     | 4.5007     | 118.5 | 28.40
Neigh   | 0.0028174  | 0.12348    | 0.29424    |  27.6 |  2.06
Comm    | 0.1711     | 1.625      | 4.0549     |  85.3 | 27.14
Output  | 0.14083    | 0.14094    | 0.14178    |   0.0 |  2.35
Modify  | 0.1917     | 2.323      | 5.6028     | 132.9 | 38.79
Other   |            | 0.07474    |            |       |  1.25

Nlocal:        63.2656 ave         130 max           0 min
Histogram: 33 6 7 14 4 0 4 21 24 15
Nghost:        592.672 ave         850 max         389 min
Histogram: 20 10 22 12 13 6 12 13 7 13
Neighs:         0.00000 ave           0 max           0 min
Histogram: 128 0 0 0 0 0 0 0 0 0
FullNghs:      6505.59 ave       15213 max           0 min
Histogram: 44 20 0 0 0 0 9 24 24 7

Total # of neighbors = 832716
Ave neighs/atom = 102.82983
Neighbor list builds = 570
Dangerous builds = 0
write_data 	    ${DIR}/data.${NAME}_eq
write_data 	    run_3/data.${NAME}_eq
write_data 	    run_3/data.ibeam_cooling_3_eq
System init for write_data ...

undump              1
unfix               4



################################################
#######         Run Simulation         #########
################################################

reset_timestep      0
timestep	    10.0
log                 ${DIR}/log.run_${NAME}
log                 run_3/log.run_${NAME}
log                 run_3/log.run_ibeam_cooling_3
