
# Set production fixes - Nose/Hoover
#
fix                 4 water temp/csvr ${START_TEMP} ${END_TEMP} 500.0 928347
fix                 4 water temp/csvr 240 ${END_TEMP} 500.0 928347
fix                 4 water temp/csvr 240 227 500.0 928347


## divide "droplet" into core and surface
#region		core_reg cylinder z 135 135 44.6 20 INF units box
#region		surface_reg cylinder z 135 135 44.6 20 INF units box side out
#group		core dynamic all region core_reg
#group		surface dynamic all region surface_reg

## compute pressure core
#compute        peratom_core core stress/atom NULL
#compute        p_core core reduce sum c_peratom_core[1] c_peratom_core[2] c_peratom_core[3]
#variable       press_core equal -(c_p_core[1]+c_p_core[2]+c_p_core[3])/(3*1249982.5)


## compute pressure surface
#compute        peratom_surf surface stress/atom NULL
#compute        p_surf surface reduce sum c_peratom_surf[1] c_peratom_surf[2] #c_peratom_surf[3]
#variable       press_surf equal -(c_p_surf[1]+c_p_surf[2]+c_p_surf[3])/(3*33365)

## compute total pressure of drop
compute        peratom water stress/atom NULL
compute        p water reduce sum c_peratom[1] c_peratom[2] c_peratom[3]
variable       press equal -(c_p[1]+c_p[2]+c_p[3])/(3*50320)


# compute order parameter
compute        3 all orientorder/atom nnn NULL cutoff 3.5

# compute center of mass of bridge
compute 	4 water com

# Run simulation
thermo_style        custom step c_2 press vol etotal ke pe v_press c_1[4] c_4[*]
thermo              200
dump		     1 water custom 400 ${DIR}/prod.${NAME}.dump id type x y z vx vy vz c_3[*] c_peratom[*]
dump		     1 water custom 400 run_27/prod.${NAME}.dump id type x y z vx vy vz c_3[*] c_peratom[*]
dump		     1 water custom 400 run_27/prod.ibeam_cooling_27.dump id type x y z vx vy vz c_3[*] c_peratom[*]
run                 ${STEPS}
run                 5200000
Neighbor list info ...
  update every 1 steps, delay 0 steps, check yes
  max neighbors/atom: 2000, page size: 100000
  master list distance cutoff = 6.67472
  ghost atom cutoff = 6.67472
  binsize = 3.33736, bins = 48 13 9
  2 neighbor lists, perpetual/occasional/extra = 1 1 0
  (1) pair sw, perpetual
      attributes: full, newton on
      pair build: full/bin/atomonly
      stencil: full/bin/3d
      bin: standard
  (2) compute orientorder/atom, occasional, copy from (1)
      attributes: full, newton on
      pair build: copy
      stencil: none
      bin: none
Per MPI rank memory allocation (min/avg/max) = 6.145 | 6.612 | 7.275 Mbytes
Step c_2 Press Volume TotEng KinEng PotEng v_press c_1[4] c_4[1] c_4[2] c_4[3] 
       0    252.75257   -419.57938    181563.75   -13284.415    1039.7022   -14324.118   -936.60875    34.272258    78.722103    25.136509    16.455829 
     200    234.88702   -345.19954    181563.75   -13334.003    966.21197   -14300.215   -638.52761    34.553815    78.722118    25.136459    16.442801 
     400      233.567   -390.26733    181563.75   -13325.489    960.78203   -14286.271   -815.98997    35.263287    78.721105    25.135161    16.446401 
     600    233.02753   -343.41016    181563.75   -13400.287    958.56293    -14358.85   -663.22204    36.108827     78.72346    25.133899    16.444206 
     800    237.78146   -252.11741    181563.75   -13392.655     978.1183   -14370.773   -349.29297    37.508365    78.725111    25.132755    16.423294 
    1000    232.36047   -321.25819    181563.75   -13282.012    955.81896   -14237.831   -536.58322    38.557544    78.726053    25.131001    16.400137 
    1200    228.45607   -368.57246    181563.75   -13355.094    939.75814   -14294.852    -762.9113    39.121154    78.724922    25.132152    16.377263 
    1400    251.31934   -159.47487    181563.75   -13242.903    1033.8066   -14276.709   -24.586782    41.234538     78.72357    25.133019    16.397327 
    1600    245.97133   -251.61609    181563.75   -13261.227    1011.8074   -14273.034    -301.1186    42.758337    78.720586    25.136293    16.413019 
    1800    237.23968   -374.47062    181563.75    -13285.19    975.88964    -14261.08   -792.54878    44.232375    78.720149    25.135674    16.394606 
    2000    246.82299   -325.92957    181563.75   -13213.068    1015.3108   -14228.379   -615.73375    46.053838    78.719757    25.135134    16.405438 
    2200     242.7519   -451.31542    181563.75   -13233.293    998.56427   -14231.857   -978.66695    46.734872    78.722481    25.134066    16.400589 
    2400    240.36509    -180.7348    181563.75   -13269.949     988.7461   -14258.695   -59.565143     47.53987    78.722639    25.130342    16.371864 
    2600    239.00157   -438.83182    181563.75   -13312.489    983.13721   -14295.626    -1016.709    48.546078    78.721987    25.125788    16.365055 
    2800    247.21983   -287.39923    181563.75   -13297.829    1016.9432   -14314.773   -427.66048    48.978101     78.72203    25.126906    16.359538 
    3000    231.03751   -444.48748    181563.75   -13368.591    950.37693   -14318.968   -999.07858    51.531922    78.726013    25.130018    16.347106 
    3200     229.4573   -395.73563    181563.75   -13368.201    943.87672   -14312.078    -842.0138    52.711248    78.729245    25.129986    16.365176 
    3400    242.11703   -439.47066    181563.75    -13340.99    995.95274   -14336.943   -1005.3667    53.913291    78.723976    25.128065    16.342963 
    3600    235.87554   -306.64608    181563.75   -13311.182    970.27824    -14281.46   -517.80514    54.361805    78.722776    25.129185    16.318749 
    3800    236.03775   -250.53541    181563.75   -13314.894    970.94551   -14285.839   -354.13999    55.973595    78.726613    25.129492    16.344273 
    4000    232.89109   -279.54837    181563.75   -13315.849    958.00167   -14273.851   -435.79811    57.212951    78.722347    25.128488    16.348293 
    4200    246.84984   -457.87956    181563.75   -13228.125    1015.4212   -14243.546   -1129.1124    58.912368    78.720999    25.129347    16.348858 
    4400    250.62982   -296.31547    181563.75    -13225.47    1030.9702    -14256.44   -506.00827     61.10412    78.721936    25.131566    16.366581 
    4600    238.94464   -374.05245    181563.75   -13271.287    982.90305    -14254.19   -851.08757     62.62462    78.723078    25.131335    16.379079 
    4800    238.32995   -304.18449    181563.75   -13245.181     980.3745   -14225.556   -504.43635     64.35183    78.721857    25.129321    16.380144 
    5000    239.00608   -309.62887    181563.75   -13303.359    983.15578   -14286.515   -536.19784    65.857084    78.720479    25.128395    16.384918 
    5200    238.41996    -354.8693    181563.75   -13304.372    980.74477   -14285.117    -735.6337    66.794961    78.720605    25.123345    16.360456 
    5400    240.76214   -353.67708    181563.75   -13278.716    990.37938   -14269.095   -695.11117    68.469191    78.721221     25.12194    16.363249 
    5600    240.12731   -238.57393    181563.75   -13306.383      987.768   -14294.151   -240.07849    69.774437    78.720284    25.123024    16.352572 
    5800    248.45189   -239.08623    181563.75   -13196.374    1022.0113   -14218.385   -293.20753    71.788089    78.717798    25.122174    16.326356 
    6000    223.57468   -486.02504    181563.75   -13337.763    919.67844   -14257.441   -1145.7188    73.601933    78.717785    25.123013    16.335605 
    6200       234.94   -160.94062    181563.75   -13274.143    966.42987   -14240.573   -31.600286     75.06481     78.71364    25.120071    16.343241 
    6400    239.14477   -424.75714    181563.75    -13236.74    983.72627   -14220.466   -911.65811    78.433605     78.71338    25.114656     16.34902 
    6600    232.69002   -371.00153    181563.75   -13307.548    957.17455   -14264.723   -769.95923    78.441909    78.714402    25.111907    16.351545 
    6800    234.24977   -317.45653    181563.75   -13326.757    963.59063   -14290.348   -570.90497    80.087507    78.712487    25.108272    16.334725 
    7000    232.20231   -304.33744    181563.75   -13345.521    955.16835    -14300.69    -522.3303     81.70413    78.711591    25.103649    16.337653 
    7200    242.26527     -322.854    181563.75   -13275.146    996.56252   -14271.709   -599.63051    81.753102    78.708972     25.10177    16.332789 
    7400    233.33264   -410.89638    181563.75   -13343.143    959.81798   -14302.961   -885.34627    81.920297    78.708925    25.100689      16.3224 
    7600    231.32704    -417.5078    181563.75   -13336.073    951.56792   -14287.641   -894.91361    82.532952    78.708726    25.103319    16.346024 
    7800    240.24858   -495.04926    181563.75   -13255.783    988.26683    -14244.05   -1195.6093    83.819714    78.713265    25.106838    16.342577 
    8000    245.70592   -287.57981    181563.75   -13288.198    1010.7157   -14298.913   -497.61021    84.132704    78.716022    25.110012    16.340838 
    8200     231.2701   -204.95382    181563.75    -13321.62     951.3337   -14272.954   -124.22205    86.627096    78.711088    25.110269    16.360594 
    8400    238.75434   -480.94415    181563.75   -13320.117    982.12025   -14302.237   -1126.3448    88.234571    78.709798     25.10918     16.38097 
    8600     235.0171   -327.19992    181563.75   -13254.169    966.74705   -14220.916   -622.17485    90.669729    78.707718    25.103935    16.395901 
    8800    247.89474   -329.48842    181563.75   -13266.909    1019.7195   -14286.628   -560.42779    91.755133    78.705449    25.101816    16.398154 
    9000    238.89105    -426.8151    181563.75   -13275.459    982.68259   -14258.142   -959.92263    92.986906    78.706052    25.101751    16.404222 
    9200    232.88923   -362.52805    181563.75   -13310.396    957.99403    -14268.39   -712.64301    94.748864    78.702447    25.102611    16.405303 
    9400    240.95633   -279.85989    181563.75   -13334.153    991.17817   -14325.331    -432.7304     94.95339    78.703484    25.105688    16.406073 
    9600     230.6111   -402.30243    181563.75   -13393.656    948.62288   -14342.279   -861.89657    94.979481     78.70339    25.105219    16.393893 
    9800    230.58058   -326.62292    181563.75   -13334.587    948.49732   -14283.084   -592.43105    94.312067    78.704393    25.106997    16.413816 
   10000    244.78855   -351.03909    181563.75    -13203.69    1006.9421   -14210.632   -670.30788    95.582912     78.70343    25.104472    16.411985 
   10200    246.57051   -360.87688    181563.75   -13244.676    1014.2722   -14258.948   -734.20786    97.326448    78.701966    25.109135     16.43042 
   10400    240.42014   -264.92228    181563.75   -13278.268    988.97254   -14267.241   -365.47729    99.747017    78.705893    25.108514    16.421075 
   10600    242.91127    -414.1355    181563.75   -13242.725    999.21983   -14241.945   -869.34408    101.91055    78.708913    25.109588    16.439304 
   10800    242.35473   -325.32421    181563.75   -13257.862    996.93053   -14254.793   -550.87415    101.39802    78.706664    25.108979    16.440917 
   11000    229.91835   -393.92178    181563.75   -13247.239    945.77324   -14193.012   -866.25488    102.10973    78.712479    25.112961    16.441698 
   11200    237.23523    -266.3326    181563.75   -13252.596    975.87135   -14228.467   -398.27858    103.11597     78.71663     25.11446    16.413852 
   11400    241.58211   -484.41736    181563.75   -13265.073    993.75232   -14258.825   -1179.3893    105.16836     78.71659    25.114879    16.403317 
   11600    238.94827   -439.49765    181563.75   -13254.078    982.91799   -14236.996   -1020.7668     107.1886    78.718283    25.113248    16.402183 
   11800    238.93548   -500.62181    181563.75   -13250.492    982.86536   -14233.358   -1204.6576    108.67743    78.719752    25.113722    16.439235 
   12000    242.08764   -454.99759    181563.75   -13211.746    995.83183   -14207.578   -1042.4875    109.32511    78.722587     25.10869    16.439567 
   12200    239.77721   -490.24894    181563.75   -13243.169    986.32783   -14229.497   -1178.4548    109.31879    78.724056    25.108893    16.441622 
   12400    241.19178   -377.71089    181563.75   -13226.252    992.14672   -14218.399   -794.17506    110.55254    78.724433    25.105477    16.453215 
   12600    250.87563   -361.69353    181563.75   -13194.897    1031.9814   -14226.878   -717.40143    111.62348    78.725951    25.104595    16.475894 
   12800    237.17842   -315.03168    181563.75   -13290.177    975.63765   -14265.815   -519.65014    112.31672    78.731082    25.104427    16.461073 
   13000    235.39285    -340.7009    181563.75   -13326.846    968.29269   -14295.138   -645.63732    112.07149    78.728306    25.104935    16.465461 
   13200    239.02016   -413.29945    181563.75   -13303.762     983.2137   -14286.975   -909.42122    111.83617    78.733439    25.102506     16.45473 
   13400    245.78167   -329.33646    181563.75   -13276.331    1011.0273   -14287.358   -604.35253    111.31787       78.735    25.099438    16.479498 
   13600    234.91351   -364.55951    181563.75    -13277.48    966.32094   -14243.801   -704.26206     112.0213    78.731895    25.102895    16.482605 
   13800    233.80121   -296.52618    181563.75   -13310.495    961.74544   -14272.241   -459.12315    113.78418    78.732155    25.100941    16.489242 
   14000    244.76242   -347.44698    181563.75    -13283.56    1006.8346   -14290.395    -667.6716    115.38752    78.735208    25.100838    16.498206 
   14200    236.17685   -430.88892    181563.75   -13317.361    971.51768   -14288.879   -950.12606     116.6274    78.733635    25.095545    16.503432 
   14400    234.69009   -420.02494    181563.75   -13347.629    965.40187   -14313.031   -967.34344    118.20609    78.736751    25.096909    16.495329 
   14600    230.92053   -320.79688    181563.75     -13305.9    949.89574   -14255.795   -580.82586    117.76417    78.735287    25.099895    16.447491 
   14800    239.84175   -462.05168    181563.75   -13277.009    986.59332   -14263.602   -1086.9613    119.18874    78.732575    25.103393    16.433272 
   15000      236.895   -298.29503    181563.75   -13294.443     974.4718   -14268.915   -470.69238    119.00399    78.734323    25.105586    16.434636 
   15200    228.10356   -398.42419    181563.75   -13348.945    938.30806   -14287.253   -867.37468    120.81716    78.733619    25.106622    16.457884 
   15400    245.34121   -366.53795    181563.75   -13275.677    1009.2154   -14284.892   -759.35946    122.09121    78.732993    25.107703    16.428777 
   15600    240.82205   -353.29916    181563.75   -13345.071    990.62581   -14335.697   -683.23826    123.48105    78.731455    25.108408    16.447392 
   15800     249.1898   -206.09457    181563.75   -13251.314    1025.0467   -14276.361   -118.29752    123.80144    78.733456    25.105462    16.442186 
   16000    235.04583   -301.54051    181563.75    -13305.71    966.86523   -14272.575   -525.40057    126.04955    78.734695    25.106876    16.430278 
   16200    247.10346   -471.78565    181563.75   -13211.587    1016.4645   -14228.051   -1054.9461     127.5509     78.73482    25.106332    16.416609 
   16400    241.66526   -427.21677    181563.75   -13213.221    994.09437   -14207.315   -956.10517    126.76625    78.736384    25.105965     16.38187 
   16600    233.92593   -348.14953    181563.75   -13258.118    962.25849   -14220.376   -662.88911    128.90296    78.738106    25.104639    16.378335 
   16800    237.99931   -349.92464    181563.75   -13260.294    979.01442   -14239.308   -682.82506    130.62484    78.738171    25.101607    16.359374 
   17000    246.20092   -426.61396    181563.75   -13280.933    1012.7519   -14293.685   -966.36429    132.09213    78.737799    25.099785    16.354736 
   17200    234.79283   -310.51429    181563.75   -13274.848    965.82448   -14240.673   -534.55481    131.73995    78.735052    25.101428    16.356445 
   17400    237.36727   -408.41157    181563.75   -13255.186     976.4145     -14231.6   -906.60373    133.48309    78.732522    25.099616    16.336754 
   17600    244.50863   -290.56733    181563.75   -13217.414    1005.7906   -14223.205   -496.38801    134.45428    78.736288    25.101787    16.331624 
   17800    238.03691   -386.04312    181563.75   -13252.558    979.16909   -14231.727   -780.69443    135.52212    78.734842    25.105875    16.341875 
   18000     237.5979   -432.74253    181563.75   -13272.208     977.3632   -14249.571    -996.3665    136.98738    78.734025    25.108318    16.338605 
   18200    240.10935   -303.41746    181563.75   -13288.448     987.6941   -14276.142   -534.77969    138.13325    78.730681    25.110778    16.328431 
   18400    230.43563   -374.23333    181563.75    -13287.51    947.90107   -14235.411   -744.60195    140.40482    78.727295    25.111704    16.357502 
   18600    246.78957      -321.37    181563.75   -13252.347    1015.1733    -14267.52   -579.75292    142.44301    78.726454    25.111468    16.336321 
   18800    244.40127   -497.06023    181563.75   -13273.371     1005.349    -14278.72    -1184.313    142.97814    78.725592    25.110058    16.347175 
   19000    244.26905    -391.5806    181563.75   -13298.964    1004.8051   -14303.769   -805.57211    143.10556    78.726529    25.111895    16.337089 
   19200     235.5632   -404.09079    181563.75   -13274.352    968.99345   -14243.346   -866.22273    144.42279    78.726589    25.114455    16.383943 
   19400    241.29783   -467.98949    181563.75   -13258.055    992.58292   -14250.638    -1139.742    145.52827    78.731136    25.116184    16.388587 
   19600     231.8092   -430.05843    181563.75   -13303.406    953.55127   -14256.958   -951.91059    148.04105    78.731167    25.117815    16.395549 
   19800    245.63141   -249.63637    181563.75   -13288.362    1010.4092   -14298.771   -314.97118    149.97603    78.728795    25.114079    16.376289 
   20000    235.18553     -451.159    181563.75   -13302.751    967.43986   -14270.191   -1059.8727    151.19719    78.730432    25.110913    16.369906 
   20200    238.44391   -257.01209    181563.75   -13291.948    980.84327   -14272.791   -360.21214    150.63814    78.730821    25.108862    16.405017 
   20400    231.53095   -349.38336    181563.75   -13347.736     952.4067   -14300.143   -677.94825    151.11015    78.731876    25.106096     16.40154 
   20600    237.86112   -362.54624    181563.75   -13288.428    978.44597   -14266.873    -747.0741    150.81268    78.732072    25.106311     16.42442 
   20800    236.03196   -322.51082    181563.75   -13296.198    970.92167    -14267.12   -584.33063    151.47583    78.730781     25.10754    16.443357 
   21000    248.88695   -183.21629    181563.75    -13237.89    1023.8009   -14261.691    -53.32055    152.09715     78.73283    25.107162    16.439055 
   21200    242.31972   -303.86151    181563.75   -13224.476     996.7865   -14221.263   -546.48311     154.2188    78.735481    25.112373      16.4454 
   21400    237.21194   -354.59464    181563.75   -13304.929    975.77556   -14280.705   -695.17915    155.31711    78.740282    25.117394    16.421666 
   21600    243.46735   -208.06913    181563.75   -13258.914    1001.5073   -14260.421   -172.60135    154.80821    78.739634      25.1199    16.409135 
   21800     229.1371   -334.75102    181563.75   -13239.152    942.55957   -14181.711   -620.09322    156.25543    78.741223    25.126215    16.397315 
   22000    242.02839   -199.86241    181563.75   -13223.178    995.58812   -14218.766   -202.66902    157.80057    78.743172    25.128896    16.403953 
   22200    246.33513   -235.18743    181563.75   -13238.772     1013.304   -14252.076   -312.28711    160.79792    78.743721    25.125064    16.411371 
   22400    244.98225   -528.88929    181563.75   -13248.769    1007.7389   -14256.508   -1279.1501     164.3333     78.74228    25.120637    16.406707 
   22600    237.73157   -388.87193    181563.75   -13324.716    977.91305   -14302.629   -820.19675    163.62073    78.738472    25.118837    16.381976 
   22800    246.11067   -445.90751    181563.75   -13312.677    1012.3806   -14325.058   -1015.4684    167.26674    78.739404    25.115809    16.399399 
   23000     239.0683   -212.04537    181563.75    -13323.65    983.41171   -14307.062    -145.9039    171.63462    78.741662    25.113859    16.394177 
   23200    239.40458   -295.40366    181563.75   -13300.285    984.79504    -14285.08   -509.97008    171.67979    78.740724    25.109152    16.392524 
   23400    241.26427   -306.84958    181563.75   -13264.319     992.4449   -14256.763   -556.92184     172.8754    78.742607    25.106034    16.416853 
   23600     226.2816   -336.41422    181563.75   -13338.608    930.81341   -14269.422   -678.99711    174.50765    78.742123    25.105007    16.398088 
   23800    234.78452   -401.09373    181563.75   -13356.197    965.79033   -14321.987    -812.2034    177.35138     78.74054    25.106332    16.365224 
   24000    242.77298   -178.52121    181563.75   -13299.626    998.65098   -14298.277   -40.099477    179.30311    78.741011    25.106637    16.328495 
   24200    246.63685   -504.25908    181563.75   -13266.445    1014.5451    -14280.99   -1250.8301    180.23088    78.740716    25.108412    16.357951 
   24400    235.62249    -424.9584    181563.75   -13251.046    969.23734   -14220.283   -939.93113    179.40577    78.741111    25.106051    16.361688 
   24600    238.56862   -504.11293    181563.75   -13282.341    981.35629   -14263.697   -1226.5545    180.96339    78.738848    25.108572    16.376509 
   24800    236.20466   -196.48423    181563.75   -13273.667    971.63208   -14245.299   -124.45227    179.05557    78.739391    25.107984     16.39029 
   25000     233.5551   -392.90936    181563.75   -13282.073    960.73309   -14242.806   -816.32162    181.21139    78.738238    25.107341    16.374316 
   25200    230.79447   -355.46841    181563.75   -13253.215    949.37716   -14202.592   -710.63663    181.07954    78.736045    25.108676     16.36305 
   25400    235.36116   -486.19856    181563.75    -13303.45    968.16233   -14271.612   -1178.0083    181.54318    78.733286    25.108377      16.3693 
   25600    238.93457   -470.96259    181563.75   -13270.024    982.86161   -14252.886   -1094.6736    180.93612    78.731807    25.108887    16.402852 
   25800     236.8498   -420.41861    181563.75   -13297.091    974.28589   -14271.377   -955.43504    181.85723    78.726537     25.10985    16.401126 
   26000    241.88908   -431.81397    181563.75   -13352.969    995.01507   -14347.984   -983.33523    182.67809    78.723224    25.110603    16.399431 
   26200    241.82825    -431.9622    181563.75    -13313.99    994.76484   -14308.755   -989.98824    183.26687    78.722771    25.111984    16.422216 
   26400    231.65909   -382.99412    181563.75   -13376.282    952.93379   -14329.216   -800.08555    181.96086     78.72398       25.111    16.414229 
   26600    234.57627   -274.39815    181563.75   -13349.953    964.93368   -14314.887    -447.2945    182.48757    78.721824    25.111045    16.414981 
   26800    238.81468   -420.00794    181563.75   -13267.451    982.36847    -14249.82   -985.36015    183.23993    78.719136    25.110417    16.426494 
   27000    241.10416   -436.74717    181563.75   -13324.596    991.78626   -14316.383   -1011.5634    185.98995    78.715546    25.105045    16.419833 
   27200     237.7746   -324.66486    181563.75   -13288.418    978.09007   -14266.508   -589.82522    185.27398    78.715336    25.100262    16.408083 
   27400     243.7032    -335.8813    181563.75   -13265.314    1002.4775   -14267.792   -660.67483    184.93715    78.715414    25.097546    16.405602 
   27600    239.34705   -472.32091    181563.75   -13319.974    984.55836   -14304.533   -1131.0517    185.44576    78.716823    25.094702    16.394658 
   27800    230.49833   -275.84296    181563.75   -13409.094    948.15901   -14357.253   -381.63033    185.84695    78.717618    25.092628    16.394999 
   28000    234.76413    -491.4059    181563.75   -13350.795    965.70643   -14316.501   -1143.8491    186.39895    78.716575    25.087767    16.399875 
   28200    237.26179    -311.8404    181563.75   -13252.366    975.98061   -14228.347   -514.10968    188.41291    78.719973    25.087471    16.399169 
   28400    245.76713   -442.23426    181563.75   -13246.543    1010.9675   -14257.511   -995.62459    190.39281    78.723116    25.086987    16.399569 
   28600    242.16572   -384.32708    181563.75   -13277.706    996.15301   -14273.859   -821.71406    187.71182    78.721801    25.087171     16.41794 
   28800    222.07166   -411.17805    181563.75   -13338.469    913.49574   -14251.965   -886.04239    189.14593     78.71682    25.086193    16.411227 
   29000    231.64577   -372.72662    181563.75    -13302.37    952.87902   -14255.249   -776.20337    189.93695    78.718359    25.082208      16.4083 
   29200    239.44404   -286.97275    181563.75    -13321.57    984.95734   -14306.527   -435.58563    191.27765    78.720558    25.083715    16.397567 
   29400    235.48716   -302.33629    181563.75   -13306.063    968.68065   -14274.744   -485.96969    190.19874    78.718992    25.088306    16.400538 
   29600    232.94626   -402.50129    181563.75   -13320.936    958.22859   -14279.165   -885.54796     191.4277    78.718334    25.090889     16.38515 
   29800    245.25381   -456.68347    181563.75   -13279.466    1008.8559   -14288.322    -1082.195    193.62186    78.722412    25.093586     16.36103 
   30000    238.29136    -439.3835    181563.75    -13279.62    980.21577   -14259.836   -961.51327    194.45321    78.721252    25.091472    16.356429 
   30200    236.90214   -346.76321    181563.75   -13306.444    974.50117   -14280.945   -643.68372    195.17495    78.722688    25.086619    16.347645 
   30400    237.19041   -386.63195    181563.75   -13340.105    975.68701   -14315.792   -759.28327    195.65052     78.72228    25.082862    16.371081 
   30600    243.85546   -330.46976    181563.75   -13336.399    1003.1038   -14339.503   -585.58032     194.9837    78.721214     25.08501    16.356354 
   30800    237.27948   -531.84979    181563.75   -13317.926    976.05338   -14293.979   -1328.7262    196.50349    78.720794    25.084768    16.327938 
   31000    240.18459   -478.24227    181563.75   -13325.834    988.00358   -14313.837   -1151.0293    197.72611    78.721811     25.08427     16.37931 
   31200    246.35627   -163.66289    181563.75    -13304.52    1013.3909   -14317.911   -59.313213    198.31685    78.722674    25.086746    16.373021 
   31400    238.40727   -391.41475    181563.75    -13297.09    980.69256   -14277.783   -810.31207    199.57772    78.720191    25.087127    16.381221 
   31600    246.43649   -303.25244    181563.75   -13245.577    1013.7209   -14259.298   -494.44668    200.12161    78.723026    25.082921    16.371813 
   31800    240.11799   -259.45701    181563.75   -13280.835    987.72964   -14268.565     -360.657    199.88078    78.727137    25.081925    16.369448 
   32000    236.52864   -398.16813    181563.75   -13269.607    972.96479   -14242.572   -910.28338    199.56304     78.73132    25.079955    16.389508 
   32200    236.84821    -444.1743    181563.75   -13303.405    974.27935   -14277.684   -1005.4765    203.18979    78.733469    25.075878    16.365736 
   32400    233.14015   -461.93973    181563.75   -13270.977    959.02616   -14230.003    -1050.556    204.23484    78.733029    25.075961     16.38034 
   32600     247.1851   -407.04532    181563.75   -13258.561    1016.8003   -14275.362   -866.84937    205.32736    78.736428    25.072069    16.405642 
   32800    230.65305   -406.78497    181563.75   -13292.322    948.79545   -14241.118   -841.39199    205.03154    78.739198    25.068058     16.41643 
   33000     241.1361   -322.10064    181563.75   -13247.774    991.91764   -14239.692   -582.09545    204.96422    78.740711    25.065637    16.409883 
   33200    237.87687   -220.56043    181563.75   -13263.887    978.51076   -14242.398   -190.17722    205.59945    78.738373     25.06289    16.412766 
   33400    231.14851   -297.15176    181563.75   -13263.911    950.83351   -14214.745    -451.5791    206.01611    78.736829    25.064725    16.413449 
   33600    236.56374   -352.29284    181563.75   -13287.419    973.10917   -14260.528   -707.72852    206.54548    78.737905    25.063426    16.411431 
   33800    248.16273   -433.89116    181563.75   -13239.358    1020.8218    -14260.18   -1016.5071    208.18107    78.739509    25.065284    16.404835 
   34000     243.9814   -151.86699    181563.75   -13268.473    1003.6219   -14272.095   -8.7833662    208.94692    78.734594    25.066631    16.403481 
   34200    233.71376   -208.33593    181563.75   -13303.521    961.38572   -14264.907    -168.3766    211.46538    78.730291    25.067206    16.424351 
   34400     240.0556   -538.30891    181563.75    -13320.81      987.473   -14308.283   -1369.2174     211.6043     78.72841    25.061176    16.410115 
   34600    236.53712   -541.97745    181563.75   -13300.117    972.99965   -14273.116   -1330.1362    213.61855    78.727466     25.05663    16.401898 
   34800    240.01372   -325.25482    181563.75   -13286.816    987.30071   -14274.117   -546.50165    214.00199    78.728623    25.059624    16.395096 
   35000    243.73962   -324.92885    181563.75   -13297.404    1002.6273   -14300.031   -585.01986    215.62796    78.732362    25.061539    16.389068 
   35200    246.05676    -329.7458    181563.75   -13249.624    1012.1589   -14261.782   -604.47508    215.92391    78.734088    25.064388    16.382034 
   35400    236.32767   -178.65316    181563.75   -13193.277     972.1381   -14165.415   -101.63002    214.84145    78.733599    25.061626     16.37486 
   35600    235.95371   -367.29179    181563.75   -13241.037    970.59981   -14211.637   -743.10055    216.35622    78.733328    25.063612    16.383841 
   35800      238.227   -255.91596    181563.75   -13224.595    979.95104   -14204.546   -361.49761    217.04062    78.732641    25.065578    16.360883 
   36000    242.75408   -473.85097    181563.75   -13292.478    998.57325   -14291.052   -1156.8489    217.95744    78.732218     25.06348    16.354106 
   36200    236.74531   -507.95235    181563.75   -13301.837    973.85606   -14275.693   -1241.8545    218.73963    78.731252    25.062556    16.340944 
   36400    247.77035   -293.54648    181563.75   -13255.671    1019.2078   -14274.878   -470.20758    218.62119    78.734206    25.061936    16.344206 
   36600     237.1704   -205.13268    181563.75   -13306.212     975.6047   -14281.817   -219.86616    219.22925     78.73342    25.063654    16.350561 
   36800    230.65636   -389.93458    181563.75   -13296.277    948.80906   -14245.086   -847.12646    220.54761    78.733508    25.065255    16.332614 
   37000    233.98333   -420.61177    181563.75   -13252.625    962.49461   -14215.119   -943.35919    221.57707    78.728722    25.066237    16.345106 
   37200    235.24596   -385.78431    181563.75   -13306.006    967.68847   -14273.695   -808.32706    221.83408     78.72954    25.062436    16.346455 
   37400    245.89271   -389.28311    181563.75   -13239.737    1011.4841   -14251.221   -778.20472    224.16616    78.734116    25.062403    16.345336 
   37600     242.2751   -318.80302    181563.75   -13238.655    996.60297   -14235.258   -610.16545    224.15732    78.740202    25.060036    16.348618 
   37800    232.42099   -498.43015    181563.75    -13302.65    956.06788   -14258.718   -1219.2964    224.62994    78.744778    25.061936    16.336852 
   38000    241.73321   -561.76973    181563.75   -13300.122    994.37389   -14294.496    -1450.036     224.2159    78.741201    25.056959    16.348217 
   38200    240.78464   -203.27634    181563.75    -13262.06    990.47191   -14252.531   -178.50141    225.90555    78.738317    25.056234    16.382182 
   38400     247.6414   -359.89204    181563.75   -13273.719    1018.6773   -14292.397   -756.20806    226.73069    78.737527    25.056337    16.354722 
   38600    240.11362   -223.12851    181563.75   -13293.714    987.71165   -14281.426   -230.17907    228.13421    78.740117    25.057864    16.363136 
   38800    235.68265   -318.14569    181563.75    -13299.85    969.48479   -14269.335   -594.25952     230.0943    78.744588    25.062807    16.364908 
   39000    243.31591   -240.81148    181563.75   -13258.115    1000.8843   -14258.999   -269.61933    230.09621    78.743291    25.068262    16.332329 
   39200    235.52715   -225.25114    181563.75   -13341.867    968.84513   -14310.713   -229.16453     230.7615    78.743279    25.066876    16.332455 
   39400    242.21121   -316.52354    181563.75    -13308.66    996.34015   -14305.001   -558.41773    231.32334     78.74333    25.071612    16.324247 
   39600    241.11139   -347.00515    181563.75   -13330.009    991.81602   -14321.825   -665.37096    233.63791    78.741471    25.072978    16.324797 
   39800    242.93712   -405.51092    181563.75   -13210.026    999.32619   -14209.352   -914.63518    233.76698    78.740735     25.07693    16.336339 
   40000    242.91997   -300.34062    181563.75   -13315.174    999.25562    -14314.43   -551.05799    234.15934    78.739555    25.083077    16.325974 
   40200    233.24611   -310.66706    181563.75   -13350.492    959.46206   -14309.954   -538.73977    235.50306    78.738973    25.080888    16.336997 
   40400    244.84622   -350.67095    181563.75   -13266.686    1007.1793   -14273.865   -672.82879    235.91415    78.734557    25.081454    16.361551 
   40600    230.71877   -326.38735    181563.75   -13402.428    949.06578   -14351.493   -600.33541    237.58699    78.730349    25.078005    16.357421 
   40800    238.27756   -265.15081    181563.75   -13332.521    980.15901    -14312.68   -413.54657    238.76288    78.732383    25.077113    16.355346 
   41000    239.19521   -264.23615    181563.75   -13308.189    983.93376   -14292.123   -327.19228    239.90671    78.731319    25.073515    16.327083 
   41200    239.24828   -393.28472    181563.75    -13320.03    984.15209   -14304.182   -803.59183    240.90613    78.731615    25.073688    16.343834 
   41400    244.75458   -414.14343    181563.75   -13275.452    1006.8023   -14282.255   -873.82643    241.01668    78.727288    25.073153    16.336487 
   41600      237.595   -339.88066    181563.75   -13245.393    977.35129   -14222.744   -641.02825    243.33619    78.725822    25.078082    16.339631 
   41800    241.05816   -586.69993    181563.75   -13274.305    991.59707   -14265.903   -1545.0736     244.9605    78.726011    25.078328    16.313017 
   42000    239.08623   -365.20944    181563.75   -13263.009    983.48546   -14246.495   -703.66425    245.67113    78.727651    25.081618    16.324165 
   42200    231.05521   -439.82843    181563.75   -13260.987    950.44972   -14211.437   -1001.5155    247.36151    78.728284    25.080499    16.321972 
   42400    232.96719   -278.09063    181563.75   -13313.307    958.31469   -14271.621   -415.91006    247.28968    78.729936    25.080978    16.318036 
   42600    235.03116   -287.95841    181563.75   -13290.283    966.80486   -14257.088   -446.87338    248.50513     78.72923    25.074591    16.341884 
   42800    240.09574   -420.97814    181563.75   -13263.147    987.63811   -14250.785    -914.2627    251.99866     78.72803     25.07239    16.332353 
   43000     242.2502   -307.22872    181563.75   -13259.035    996.50051   -14255.536   -476.49089    250.17403    78.726452    25.070385    16.327277 
   43200    244.91913     -496.143    181563.75   -13265.607    1007.4792   -14273.086   -1226.5873    250.15055    78.728641    25.069975    16.318722 
   43400    239.25782   -309.85383    181563.75   -13305.788    984.19133   -14289.979   -514.48331     250.0365    78.728585    25.070429    16.316493 
   43600    242.19319   -387.55924    181563.75   -13340.555    996.26603   -14336.821   -853.44063    252.38016    78.730785    25.069412    16.306033 
   43800     239.3414   -337.31494    181563.75   -13297.671    984.53511   -14282.206   -680.94889      252.388    78.728816    25.071603    16.282223 
   44000    231.56965   -282.42585    181563.75   -13325.233    952.56588   -14277.799   -484.39822    253.05419    78.723859    25.070967    16.271273 
   44200    245.56493   -435.31934    181563.75   -13250.103    1010.1357   -14260.239   -1009.0973    253.70701    78.718378    25.069765    16.281604 
   44400    248.68638   -276.17617    181563.75    -13205.84    1022.9759   -14228.816   -451.43018     256.4364    78.719394    25.066999    16.277774 
   44600    237.77117   -405.53637    181563.75   -13257.748    978.07596   -14235.824   -906.19195    258.60438    78.720834    25.066744    16.277506 
   44800    237.38492   -406.22115    181563.75   -13250.527    976.48711   -14227.014    -897.7031    260.67096     78.72059    25.065734    16.295911 
   45000    243.00392   -346.66093    181563.75    -13254.63    999.60098   -14254.231   -641.88033    262.04114    78.721821    25.069006    16.282432 
   45200    245.21046   -398.32886    181563.75   -13189.604    1008.6776   -14198.281     -908.381     264.5867    78.720014    25.071459    16.252341 
   45400    248.77751   -389.34238    181563.75   -13204.998    1023.3508   -14228.349   -824.64149    267.37193    78.721214    25.074093    16.254873 
   45600     241.8332   -281.81456    181563.75   -13224.711    994.78517   -14219.496   -461.18868    268.21511    78.723917    25.073888    16.282023 
   45800    239.96611   -342.54468    181563.75   -13279.581    987.10488   -14266.686   -645.45541    270.01319    78.724704    25.075979    16.293672 
   46000    240.21502   -257.98917    181563.75   -13276.646    988.12877   -14264.775   -303.58716    271.50896    78.728012    25.079277    16.275758 
   46200    236.91148   -447.98702    181563.75   -13276.063    974.53963   -14250.602   -1069.2805     274.5923    78.728592    25.080358    16.277059 
   46400    243.45679   -336.76538    181563.75   -13223.058    1001.4639   -14224.522   -675.19939    278.67366    78.724447     25.08212    16.276235 
   46600    238.39812   -385.12591    181563.75   -13283.735    980.65494    -14264.39   -817.34147    282.02012    78.722155    25.083774    16.269351 
   46800    251.94985   -300.99524    181563.75   -13252.445    1036.4002   -14288.846   -529.42536    281.15443    78.724652    25.084289    16.276062 
   47000    240.23852   -492.11257    181563.75   -13209.536    988.22543   -14197.762    -1165.681    281.88505    78.727733    25.086367    16.267124 
   47200     238.9837   -457.63531    181563.75    -13286.18    983.06371   -14269.244   -1075.5927     280.4372     78.72542    25.088578    16.270023 
   47400    251.73339   -491.58363    181563.75   -13266.068    1035.5098   -14301.577   -1187.4569    282.83699    78.725221    25.090687    16.295512 
   47600    242.00187   -203.71118    181563.75   -13295.128      995.479   -14290.607   -164.20217     283.4062    78.723767    25.086031    16.288621 
   47800    241.25702   -254.43237    181563.75   -13272.131    992.41506   -14264.546   -369.34577    282.28641    78.719561    25.085506    16.296374 
   48000    243.84088    -263.3812    181563.75   -13286.229    1003.0438   -14289.273   -321.41401    284.83022    78.718888     25.08419    16.306446 
   48200     238.3276   -192.49846    181563.75   -13298.009    980.36483   -14278.374   -159.04062    286.04199    78.718621    25.084989     16.28522 
   48400    235.20639   -432.26638    181563.75   -13318.931    967.52567   -14286.457   -978.04948    287.28762    78.719644    25.080221    16.286198 
   48600    240.75929   -285.66376    181563.75   -13290.714    990.36764   -14281.082   -455.91611      288.394    78.720227    25.076773    16.278484 
   48800    240.18687   -240.23141    181563.75   -13276.665    988.01297   -14264.678   -274.31234    290.84628    78.723759    25.073657    16.295928 
   49000     238.7268    -354.4489    181563.75   -13234.281    982.00695   -14216.287    -691.0969    291.89697    78.725401    25.073276    16.303646 
   49200    244.35618   -423.02177    181563.75   -13252.917    1005.1635   -14258.081   -982.89482    291.41184     78.72821    25.071759     16.30367 
   49400    244.13279   -247.43576    181563.75   -13259.433    1004.2446   -14263.678   -352.51233    293.24972    78.728006    25.071146    16.296587 
   49600    239.53041   -419.23003    181563.75    -13305.29    985.31263   -14290.602   -925.14542    293.83786    78.726566    25.073002    16.292124 
   49800    236.90853   -362.61827    181563.75   -13359.794    974.52746   -14334.322    -743.2575    293.22935    78.729625      25.0657    16.292063 
   50000    232.84169   -368.33651    181563.75   -13370.993    957.79846   -14328.791   -746.92209    294.54995    78.725261     25.06117     16.28254 
   50200    247.03665   -351.78691    181563.75   -13284.959    1016.1897   -14301.148   -667.01152    295.88123    78.727583    25.057375    16.286744 
   50400    238.45157   -297.08812    181563.75   -13288.405    980.87481    -14269.28   -512.99469    297.26698    78.728245    25.054018    16.289318 
   50600    236.05234   -319.71545    181563.75   -13367.401    971.00554   -14338.407   -554.50727    298.27032      78.7297    25.056052    16.294757 
   50800    232.78714   -327.08609    181563.75   -13348.499    957.57405   -14306.074   -572.19212    301.35992    78.729421    25.058294    16.284465 
   51000    244.11548   -391.91408    181563.75   -13264.371    1004.1734   -14268.544   -828.85796    303.28595    78.728713    25.062425    16.290867 
   51200    232.99515   -362.61657    181563.75   -13337.297    958.42973   -14295.727   -746.07049    303.96222    78.725809    25.060509    16.301122 
   51400    242.78723   -408.93022    181563.75   -13311.778    998.70961   -14310.488   -914.78524    307.00051    78.725805    25.059862    16.304264 
   51600    243.61058   -273.66127    181563.75   -13319.529    1002.0965   -14321.626   -416.51448    307.58469    78.726192    25.060279    16.310768 
   51800     241.7672   -352.94682    181563.75   -13310.921     994.5137   -14305.435   -695.06711    310.86771    78.727471    25.063904     16.30901 
   52000    240.41749   -393.36108    181563.75   -13321.216    988.96166   -14310.177   -872.15569    312.22673    78.729521    25.067861    16.317134 
   52200    243.87099   -429.67797    181563.75   -13307.545    1003.1677   -14310.713   -970.06018    311.73458    78.728341    25.068972    16.350936 
   52400    240.23057   -461.40159    181563.75   -13303.305    988.19276   -14291.498   -1058.2896    311.07557    78.726908    25.068028    16.356672 
   52600    238.92336   -521.11521    181563.75   -13332.304    982.81549   -14315.119   -1314.9727    313.54811    78.728159    25.070611    16.361689 
   52800    238.27817    -211.5437    181563.75   -13392.447    980.16151   -14372.609   -188.37889    315.62555    78.728509    25.067989    16.385856 
   53000    230.02891   -369.68889    181563.75   -13380.335    946.22805   -14326.563   -720.19787    319.97229    78.726914    25.068951    16.398297 
   53200     233.9955   -566.73237    181563.75   -13362.805    962.54467    -14325.35   -1474.4926    321.78335    78.729666     25.06867    16.395624 
   53400    234.76978   -421.66052    181563.75   -13297.666     965.7297   -14263.396   -945.12616    322.26834    78.730301     25.06832    16.400935 
   53600    240.09024   -444.91649    181563.75   -13248.207    987.61547   -14235.822   -1025.2528    325.47029    78.729255    25.065469     16.40891 
   53800    241.07151   -388.14327    181563.75   -13272.154    991.65198   -14263.806   -839.57234    327.04912    78.727696    25.065255    16.398118 
   54000    246.87409    -241.9903    181563.75   -13248.162     1015.521   -14263.683   -326.74794    328.05233    78.727612    25.066931    16.410131 
   54200    232.82062   -281.28867    181563.75   -13350.712    957.71177   -14308.424   -471.00406    327.53575    78.727141     25.06576    16.418187 
   54400    241.47159   -276.95846    181563.75   -13325.907     993.2977   -14319.205   -467.12135    330.38489    78.726548    25.066386    16.398965 
   54600    238.34526   -372.61522    181563.75   -13296.357     980.4375   -14276.794   -746.90843    330.37952    78.725514    25.066214    16.398296 
   54800    247.94824    -168.2594    181563.75   -13270.192    1019.9395   -14290.131   -44.658213     331.0336    78.724191    25.073435    16.397717 
   55000    240.03479    -449.2945    181563.75   -13307.097    987.38741   -14294.485   -1057.1287    333.94806    78.721017    25.076971    16.401317 
   55200    249.07974   -512.49041    181563.75   -13284.282    1024.5939   -14308.876   -1261.5511    334.52139    78.723216    25.080882    16.423075 
   55400    244.55638   -445.73065    181563.75   -13254.343     1005.987    -14260.33   -1010.2035    338.55811    78.722197    25.082259    16.415408 
   55600     230.7038   -315.15275    181563.75   -13254.774    949.00419   -14203.778   -603.69567    342.96756    78.720291    25.083827    16.419337 
   55800    238.81586   -414.25836    181563.75   -13316.909    982.37331   -14299.282   -922.31732    346.06817    78.721347    25.080013    16.398168 
   56000    230.87353   -331.61609    181563.75   -13364.411    949.70241   -14314.113   -637.50504    345.27031    78.720683     25.07881    16.382589 
   56200    238.66077   -503.24982    181563.75   -13275.377    981.73536   -14257.113   -1202.4608    346.37569    78.719612    25.077385    16.379888 
   56400    240.31211   -464.52026    181563.75    -13286.85    988.52816   -14275.379   -1122.4081     348.1299    78.720861    25.078256    16.403075 
   56600    234.95217   -342.15615    181563.75   -13358.078    966.47996   -14324.558   -678.98396    348.53692    78.721625    25.075938    16.392314 
   56800    229.35478   -255.27113    181563.75   -13407.728    943.45499   -14351.183   -347.96863    348.97253    78.722819    25.076161    16.381127 
   57000     232.3602     -281.918    181563.75   -13407.987    955.81782   -14363.804    -413.2135    350.25337    78.725428    25.079099    16.359881 
   57200    237.71296   -368.29344    181563.75   -13409.559    977.83653   -14387.396   -712.28964    351.10905    78.725431    25.081149    16.368271 
   57400    241.84352   -337.76285    181563.75   -13372.257    994.82764   -14367.085   -686.97598     350.8387    78.726898    25.085321    16.381803 
   57600     244.2598   -340.24252    181563.75   -13289.806    1004.7671   -14294.573   -662.86736    353.11846    78.730078    25.083916    16.393762 
   57800    244.63926   -367.81038    181563.75   -13342.306     1006.328   -14348.634    -749.6704     354.3187    78.730001    25.084114     16.37984 
   58000    247.63695   -335.85311    181563.75   -13315.006     1018.659   -14333.665   -580.48356    354.38709    78.731541    25.083881    16.377392 
   58200      240.224   -350.89078    181563.75   -13354.069    988.16573   -14342.235   -652.07606    353.59941    78.733592    25.084967    16.384903 
   58400    237.33916   -238.27621    181563.75    -13332.26     976.2989   -14308.558   -299.72461     353.1817    78.738214    25.083398    16.409174 
   58600    236.52373    -335.3341    181563.75   -13308.346    972.94457   -14281.291   -609.17946    354.56102    78.739635    25.076817    16.413801 
   58800     237.5652   -301.03826    181563.75   -13318.992    977.22868   -14296.221   -498.72311    355.10755    78.739398    25.074575    16.438957 
   59000    237.61922   -328.54603    181563.75   -13332.804    977.45089   -14310.255   -634.95297    355.34134    78.738271    25.073722    16.409945 
   59200    245.13549   -374.55189    181563.75   -13326.054    1008.3692   -14334.424   -767.47179     353.0577    78.736316    25.076272    16.389175 
   59400      239.939   -388.47482    181563.75   -13332.043    986.99337   -14319.036   -808.38751    352.78288    78.739132    25.077136     16.40606 
   59600    241.31789   -458.25063    181563.75   -13290.089    992.66544   -14282.754   -1037.2348    350.96247    78.737818    25.080125     16.41514 
   59800    247.62685    -431.9369    181563.75   -13291.861    1018.6175   -14310.478    -1002.254    352.82214    78.737427    25.080312    16.414035 
   60000    240.13558   -409.65437    181563.75   -13326.331      987.802   -14314.133   -905.48782    352.07349    78.737822    25.080447      16.4156 
   60200    237.60775   -319.50785    181563.75   -13260.457    977.40373   -14237.861   -606.79625    351.65913    78.736986    25.082879     16.44976 
   60400    228.31612   -447.61996    181563.75   -13360.761    939.18245   -14299.944   -1020.0111    352.69615    78.739802    25.084463    16.446139 
   60600    242.39794   -343.01105    181563.75   -13332.392    997.10826   -14329.501   -632.63817    352.63909    78.739758    25.082892     16.47168 
   60800    234.16906    -396.8258    181563.75   -13351.216     963.2586   -14314.475   -865.59222    353.16324    78.735264    25.082795    16.456599 
   61000     240.4539   -404.69406    181563.75   -13367.723    989.11141   -14356.834   -865.89976    355.47532    78.737559    25.080497    16.465047 
   61200    231.98671    -449.7353    181563.75   -13342.994    954.28148   -14297.275   -1005.2645    358.26574    78.736165     25.07635    16.450649 
   61400    235.52322   -336.69362    181563.75   -13331.943    968.82895   -14300.772   -608.35373    357.85869     78.73585    25.077943    16.442351 
   61600    233.57647   -321.98697    181563.75   -13310.101    960.82098   -14270.922    -533.6489     359.0856    78.732219    25.074902    16.411935 
   61800    242.22186   -170.71621    181563.75   -13281.913    996.38396   -14278.297   -55.124771    359.26075    78.730737    25.075422    16.397359 
   62000    240.67021   -243.30982    181563.75   -13287.474     990.0012   -14277.475   -306.12098    360.03989    78.729531    25.073151    16.404535 
   62200    246.87256   -441.79276    181563.75   -13205.872    1015.5147   -14221.387   -1001.4843    363.88479    78.732762    25.072432    16.431863 
   62400    245.66217    -146.6866    181563.75   -13189.431    1010.5357   -14199.967    49.108142    361.47056    78.730551    25.069054    16.421115 
   62600    243.55689   -432.68118    181563.75   -13296.895    1001.8756    -14298.77   -978.87167    363.41522    78.728358    25.067413    16.426697 
   62800    236.65898   -263.28567    181563.75   -13299.681    973.50094   -14273.181    -350.9588    364.77499    78.727457    25.066679    16.419603 
   63000    238.88983   -282.78569    181563.75    -13288.24     982.6776   -14270.918   -466.45211    366.55528    78.728401    25.070634    16.393327 
   63200    234.50516   -455.88773    181563.75     -13377.5    964.64116   -14342.141   -1033.3632    368.68754    78.730634    25.069736    16.377024 
   63400    242.93611   -362.79022    181563.75   -13330.086    999.32203   -14329.408   -758.61066     368.2054    78.728707    25.067836    16.367779 
   63600    238.40675   -278.03227    181563.75   -13273.484    980.69041   -14254.174    -454.8461    369.42629    78.727157    25.070155    16.365326 
   63800    246.97803   -434.67394    181563.75   -13288.869    1015.9486   -14304.818   -1010.2451    373.45506    78.726716    25.071495    16.379431 
   64000    239.28393   -488.22791    181563.75   -13324.016    984.29873   -14308.315    -1167.596    373.48588    78.726117    25.072422     16.36709 
   64200      243.041   -357.84477    181563.75   -13326.275    999.75349   -14326.029   -720.56986     373.0687    78.731013    25.073804     16.35905 
   64400    245.06564   -426.10925    181563.75   -13314.921    1008.0819   -14323.003   -944.24562    377.14277    78.733429    25.074947    16.380104 
   64600    236.31687   -355.54399    181563.75   -13307.299    972.09368   -14279.393    -650.0272    377.38931     78.73389    25.075952    16.365365 
   64800    235.62445   -463.32424    181563.75   -13304.917    969.24538   -14274.163   -1065.8405    376.62217    78.735621    25.074436     16.36996 
   65000    232.18511   -392.98961    181563.75   -13356.795     955.0976   -14311.893   -790.58979    374.53143    78.734333    25.077031    16.370328 
   65200    239.47887   -518.68677    181563.75   -13320.561    985.10063   -14305.662   -1304.1444    375.93027    78.732434    25.079564    16.379726 
   65400    237.36958   -234.73464    181563.75   -13176.194    976.42401   -14152.618   -285.26299    378.02133    78.729711    25.084818     16.37582 
   65600    240.12684   -305.84872    181563.75   -13250.883    987.76604   -14238.649   -496.47748    379.82186    78.731022    25.087886    16.364775 
   65800    243.72077   -333.34041    181563.75    -13247.68    1002.5497    -14250.23   -629.33299     380.5448    78.730782    25.090057    16.356391 
   66000    235.16811   -525.26652    181563.75   -13310.051    967.36823   -14277.419   -1321.6313    383.01505    78.732643    25.090179    16.357872 
   66200    247.73012   -404.71076    181563.75   -13311.348    1019.0423    -14330.39   -831.80298    385.25683    78.732515    25.086453    16.364302 
   66400    233.75208    -269.4701    181563.75   -13337.785    961.54337   -14299.328   -387.59231    389.05686     78.73392    25.091326    16.355294 
   66600    237.00637   -372.20178    181563.75   -13291.787    974.92993   -14266.717   -752.11927    386.60804     78.73187    25.096606    16.364187 
   66800    230.66276   -445.42473    181563.75   -13322.521     948.8354   -14271.356   -1043.8095    389.55751    78.732613    25.097282    16.370642 
   67000    230.36832   -283.75723    181563.75   -13337.763    947.62418   -14285.387   -461.68784    389.93527     78.73069    25.099844    16.373981 
   67200      235.678   -592.11338    181563.75   -13334.952    969.46566   -14304.418   -1545.0471    397.08007    78.731029    25.104012    16.378616 
   67400    239.96894   -313.45442    181563.75   -13283.158    987.11652   -14270.274   -564.96705    397.83376    78.732139    25.106423    16.373707 
   67600     236.9133   -302.37769    181563.75   -13331.214    974.54708   -14305.761   -505.16685    398.68228    78.731385    25.109137     16.35021 
   67800    239.47516   -186.87303    181563.75   -13268.401    985.08537   -14253.487   -80.655656    397.84077    78.734001    25.109081    16.356739 
   68000    237.56997   -375.44161    181563.75   -13276.268    977.24831   -14253.516   -779.07489    398.03566     78.73614    25.110452    16.361828 
   68200    237.30178   -478.66612    181563.75   -13249.588    976.14511   -14225.734   -1121.3495    398.79273    78.735786    25.111809    16.333168 
   68400    239.59252   -499.14206    181563.75   -13191.629    985.56812   -14177.197   -1222.8361    403.47978    78.738541    25.116453    16.336017 
   68600    240.45544   -135.33788    181563.75   -13261.115    989.11775   -14250.233    86.802536    400.96705    78.741272    25.117167    16.322425 
   68800    244.98231   -562.04245    181563.75   -13206.988    1007.7391   -14214.727   -1415.9273    402.90645    78.741997    25.119096    16.318218 
   69000    241.33142   -241.88847    181563.75   -13212.615    992.72111   -14205.336   -236.45718     405.3826    78.743224    25.116326    16.310031 
   69200    241.80836   -314.65799    181563.75   -13230.414      994.683   -14225.097   -579.44972    406.46464    78.743953    25.118852    16.270001 
   69400    234.01482   -355.76878    181563.75   -13296.345    962.62416    -14258.97   -713.53251    408.02896    78.746058    25.117064    16.267587 
   69600    241.84709   -153.61585    181563.75   -13260.558    994.84233     -14255.4    3.5076553    409.28446    78.744549     25.11536    16.251558 
   69800    237.21617   -278.36927    181563.75   -13254.535    975.79297   -14230.328   -417.88634    409.50188    78.743705    25.114476     16.25968 
   70000    238.22462   -386.91814    181563.75   -13335.859    979.94121   -14315.801   -790.62893    411.47655     78.74081     25.10953    16.283527 
   70200    239.01729   -319.30192    181563.75   -13309.047    983.20187   -14292.248   -576.88146    412.42085    78.738012    25.106908    16.269454 
   70400    233.27407   -411.21755    181563.75   -13277.437    959.57707   -14237.014   -870.76023    414.68599    78.739756    25.109594    16.286836 
   70600    243.34161   -328.95581    181563.75   -13290.958    1000.9901   -14291.948   -589.14895    414.81459    78.742354    25.109175     16.30444 
   70800    239.90379   -208.99105    181563.75   -13300.267    986.84853   -14287.115   -178.49597    415.29544    78.742464    25.108343    16.285032 
   71000      241.476   -477.99949    181563.75   -13250.806    993.31585   -14244.122   -1143.4421    417.11563    78.745177    25.109897    16.290742 
   71200    247.89166   -422.57259    181563.75   -13171.878    1019.7068   -14191.585   -930.52278    415.88047    78.742616    25.104048     16.26342 
   71400    239.34713   -272.97599    181563.75   -13287.665    984.55871   -14272.224   -410.81986    415.99542    78.741112    25.095907    16.257574 
   71600    236.95227   -336.24015    181563.75    -13299.27    974.70738   -14273.978   -597.35108    415.17564    78.739357    25.090942    16.256349 
   71800    243.73026   -284.04281    181563.75    -13293.96    1002.5888   -14296.549   -415.13839    416.98848    78.740192    25.093033     16.25759 
   72000    241.16884   -413.47829    181563.75   -13237.549    992.05235   -14229.601    -935.8992    420.81681    78.741165    25.094095    16.253574 
   72200    237.41849   -377.35056    181563.75   -13266.598     976.6252   -14243.223   -786.20837    422.04023    78.740784    25.094246    16.256768 
   72400    240.93569   -265.68848    181563.75   -13272.982    991.09326   -14264.075   -389.50315    423.58184    78.742356    25.094172    16.291111 
   72600    242.43332   -240.63025    181563.75   -13253.094    997.25381   -14250.348   -293.89591    421.42534    78.740831    25.096618    16.304797 
   72800     238.9402   -417.25692    181563.75   -13278.186    982.88477   -14261.071   -953.55886    421.15316    78.736012    25.095867    16.308107 
   73000    242.70257   -519.58428    181563.75   -13245.588    998.36134   -14243.949   -1285.1883     417.5503    78.733889    25.097277    16.304687 
   73200     246.9652   -370.61229    181563.75   -13208.901    1015.8958   -14224.797   -760.01063    419.81746    78.734079    25.095893    16.310432 
   73400    234.76261   -368.48668    181563.75   -13277.949     965.7002   -14243.649   -739.62572    415.90771    78.733926     25.09578    16.295105 
   73600    239.65759   -337.72303    181563.75   -13244.318    985.83579   -14230.154   -661.51773    415.77434    78.735663    25.094887    16.289917 
   73800    243.55426    -470.1067    181563.75   -13205.136    1001.8648   -14207.001    -1118.696    418.78896    78.735347    25.096794    16.282921 
   74000    245.89168   -366.50947    181563.75   -13228.802    1011.4798   -14240.282   -708.53773    422.14643    78.736828    25.098819     16.29205 
   74200    241.66836   -396.31984    181563.75   -13197.161    994.10711   -14191.268     -805.892     422.4717    78.739562     25.10012    16.288499 
   74400    244.37877   -340.61925    181563.75   -13266.383    1005.2564    -14271.64   -630.84181    422.93169    78.742246    25.104774    16.283668 
   74600    237.59411   -268.56443    181563.75   -13292.369    977.34762   -14269.717   -378.20035     424.3854    78.742184    25.107873    16.287703 
   74800    241.00885    -352.2441    181563.75    -13249.89    991.39422   -14241.284   -677.07808    425.76591    78.740382    25.107642    16.251328 
   75000    240.21792    -453.4681    181563.75   -13278.891    988.14071   -14267.032   -1027.9388    425.92474    78.739995    25.108714    16.243938 
   75200    245.37756   -396.88866    181563.75   -13290.708     1009.365   -14300.073   -826.02018    428.33876    78.742101    25.105493    16.226114 
   75400    241.78584   -332.76357    181563.75   -13242.534    994.59039   -14237.124   -571.07855    429.15733    78.744916    25.108179    16.196324 
   75600    236.69284   -406.04469    181563.75   -13296.326    973.64022   -14269.966   -847.33309    430.02089     78.74885    25.107881     16.21569 
   75800    234.92823   -547.73249    181563.75   -13274.362    966.38145   -14240.744   -1369.9701    431.24468    78.751434    25.106492    16.199868 
   76000    243.93662    -326.2032    181563.75   -13297.365    1003.4377   -14300.803   -602.17093    428.67558    78.753101     25.10545    16.215962 
   76200    229.36603   -303.25947    181563.75   -13322.882    943.50124   -14266.384   -528.18116     430.4785    78.756484    25.103778    16.205245 
   76400    236.02144   -409.76312    181563.75   -13361.203    970.87842   -14332.081    -877.1514    432.78818    78.754051    25.105219    16.232447 
   76600    241.78996   -394.53096    181563.75   -13332.671    994.60731   -14327.278   -837.56247     432.5684    78.751473    25.113232    16.243506 
   76800    233.75448   -499.13863    181563.75   -13288.468    961.55322   -14250.022   -1185.0061    434.73945    78.750992    25.113726    16.232007 
   77000    245.60983   -452.37755    181563.75   -13337.084    1010.3204   -14347.405   -1023.5832    436.10784    78.751019    25.113126    16.192761 
   77200    245.28896   -237.10347    181563.75    -13308.83    1009.0005   -14317.831   -288.68186    432.66765    78.752483     25.11222    16.190254 
   77400    239.27063   -458.37903    181563.75   -13276.885    984.24402   -14261.129   -1081.1112    436.24017    78.753053    25.112553    16.191898 
   77600    239.52092   -420.75539    181563.75   -13298.437    985.27359    -14283.71   -862.83437    438.12143    78.753961    25.113356    16.200468 
   77800    233.24199   -274.26815    181563.75   -13278.531    959.44511   -14237.976   -357.56685    437.55802    78.756791    25.109129    16.231008 
   78000    232.73285   -414.00853    181563.75   -13362.867    957.35073   -14320.218   -886.03964    440.64112    78.756706    25.106551    16.228597 
   78200    239.02479   -284.11336    181563.75    -13286.82    983.23276   -14270.053   -383.64976     442.4358    78.761336    25.105045    16.227751 
   78400    239.49352   -283.83131    181563.75   -13286.407    985.16086   -14271.568   -427.76036      443.356    78.762189    25.104212    16.234015 
   78600     228.9084    -471.1468    181563.75   -13334.394    941.61878   -14276.013   -1089.2386    443.99996    78.764607    25.100351    16.216733 
   78800    240.80212   -285.56876    181563.75    -13330.95    990.54384   -14321.494   -496.57947    442.79537    78.767427    25.100057    16.215789 
   79000    232.47423   -289.19225    181563.75    -13311.73     956.2869   -14268.017   -455.27345    447.12928    78.767184    25.100435      16.2217 
   79200    238.20528   -127.40879    181563.75   -13266.652    979.86167   -14246.514    87.654829    448.36792    78.764503    25.099578    16.219652 
   79400    241.55765   -127.58275    181563.75    -13336.43     993.6517   -14330.081     129.1589    446.88436    78.762398    25.102703    16.201472 
   79600    245.35187   -354.12953    181563.75   -13326.211    1009.2593   -14335.471   -679.81478    448.18036    78.761257    25.107114    16.190885 
   79800    236.40675   -526.12442    181563.75   -13330.767    972.46338   -14303.231   -1295.8273    451.59164    78.760289    25.110838    16.194111 
   80000     236.8834   -277.58226    181563.75   -13335.969    974.42409   -14310.393   -436.49332    452.73229    78.760879    25.113027    16.180052 
   80200    237.59622   -268.15155    181563.75   -13287.792    977.35628   -14265.148   -389.85445    453.25518    78.763059    25.112319    16.174768 
   80400    242.33927   -264.28197    181563.75   -13315.617    996.86691   -14312.484   -354.87003    451.57383    78.765476    25.112027    16.167178 
   80600    245.45828   -386.71472    181563.75   -13267.094     1009.697   -14276.791   -790.53906    450.42974    78.767849    25.106853    16.174034 
   80800    235.64382   -336.37279    181563.75   -13342.835    969.32507    -14312.16   -621.62852    451.03559    78.768709    25.103365    16.190126 
   81000    243.47476   -559.22514    181563.75     -13224.9    1001.5378   -14226.438   -1436.7435    450.62551    78.767443    25.098027    16.202405 
   81200    244.87328   -291.70575    181563.75   -13280.925    1007.2906   -14288.215   -436.52513    452.35248     78.76654     25.09469    16.182221 
   81400    239.54331   -338.31706    181563.75   -13346.263    985.36569   -14331.629   -700.23359    453.71071    78.766876    25.094766    16.197396 
   81600    232.72642   -528.24462    181563.75   -13295.688    957.32429   -14253.012   -1323.0616    455.33946    78.766001    25.093685    16.190868 
   81800    235.47156   -363.18892    181563.75   -13263.303    968.61646    -14231.92   -753.65834    452.63491    78.765252    25.095387    16.191144 
   82000    247.18465   -285.74062    181563.75    -13226.42    1016.7985   -14243.218   -447.59636      455.555     78.76703     25.09301    16.168213 
   82200    243.05715   -201.48815    181563.75   -13288.775    999.81994   -14288.595   -134.72476    455.40672    78.770989    25.092533    16.162225 
   82400    239.65508   -394.38401    181563.75   -13333.748    985.82545   -14319.573   -802.48693       456.47    78.769636    25.089653    16.174214 
   82600    237.09822   -433.21235    181563.75   -13322.108    975.30777   -14297.416   -971.03706      458.813    78.766408    25.085766    16.194739 
   82800    240.03119   -280.13062    181563.75   -13290.839    987.37259   -14278.212   -432.37212    459.62847    78.764377    25.084837     16.21777 
   83000    246.83274   -266.47259    181563.75   -13296.609    1015.3509    -14311.96    -384.3331    454.05938    78.765479     25.08071    16.225756 
   83200     242.6045   -367.52174    181563.75   -13284.035    997.95794   -14281.993   -722.15551    456.59627    78.766613    25.080159     16.19602 
   83400      244.255   -341.12773    181563.75   -13283.548    1004.7473   -14288.295   -667.71919    455.92552    78.764245    25.078389    16.178694 
   83600    248.96932   -267.10046    181563.75   -13257.859    1024.1397   -14281.999   -392.90154    456.53398    78.764527    25.080509    16.164851 
   83800     231.5051   -393.98771    181563.75   -13343.907    952.30036   -14296.207   -819.11112     459.0563    78.766386    25.083602    16.178452 
   84000     231.5299   -412.72308    181563.75   -13365.688    952.40238    -14318.09    -937.1559    460.86847    78.773101    25.084123    16.165666 
   84200    237.22479   -480.11943    181563.75   -13367.314    975.82842   -14343.142   -1144.3057      460.695    78.776333    25.080918     16.20212 
   84400    230.29098   -289.54588    181563.75   -13319.691    947.30606   -14266.997   -450.68676    459.02612    78.779597    25.078535    16.195506 
   84600    233.49296   -342.81357    181563.75   -13290.149    960.47747   -14250.626   -630.18661    458.76467    78.776559    25.083052    16.194708 
   84800    239.81413   -291.85498    181563.75    -13311.45    986.47973   -14297.929   -497.57587    458.99572    78.773448    25.084863    16.197452 
   85000    233.67671   -236.38391    181563.75   -13308.754    961.23333   -14269.987    -291.6665    458.67981    78.771703    25.086203    16.227598 
   85200    252.46768   -553.61832    181563.75    -13194.46    1038.5303    -14232.99   -1390.3024    463.06244    78.772432    25.091417    16.244017 
   85400    247.83625   -338.22633    181563.75    -13280.48    1019.4788   -14299.958   -632.69192    465.09974    78.773222    25.094383    16.214025 
   85600    239.57048   -414.42027    181563.75   -13292.932    985.47746    -14278.41    -924.5295    468.56915    78.772028    25.093842    16.222052 
   85800    247.99833   -344.77105    181563.75   -13223.777    1020.1455   -14243.923   -682.34719    470.18944    78.772118    25.094357    16.240364 
   86000    238.49301   -449.82088    181563.75   -13208.717    981.04527   -14189.762   -1069.2352    472.32623    78.772754    25.091175    16.254323 
   86200    246.96541   -296.36213    181563.75   -13262.873    1015.8966   -14278.769   -436.75702    474.23195    78.773627    25.087874    16.251093 
   86400    232.22853   -394.91428    181563.75   -13256.879    955.27621   -14212.155   -880.83716    472.91124    78.775391    25.084871    16.244271 
   86600    240.91419   -277.73116    181563.75   -13243.822    991.00482   -14234.827   -411.31026     475.7507    78.775613    25.088251    16.245828 
   86800    242.84624   -302.30302    181563.75   -13244.168    998.95234    -14243.12   -525.13463    479.33542    78.774302    25.090304    16.279958 
   87000    237.45084   -450.61015    181563.75   -13294.995    976.75826   -14271.753   -1074.5642    479.68041    78.773038    25.093094    16.308127 
   87200    233.72402   -486.80265    181563.75   -13260.611    961.42792   -14222.039   -1185.8922    481.42702    78.774943    25.092201    16.298915 
   87400    240.99135   -391.81988    181563.75   -13260.239    991.32222   -14251.561    -816.1236    480.77691    78.776081    25.094133    16.285022 
   87600    237.03797   -386.69923    181563.75   -13243.035    975.05993   -14218.095   -793.11473    482.58518    78.776354    25.093497    16.280885 
   87800    235.62649   -424.52356    181563.75   -13298.913    969.25379   -14268.167   -965.52696    485.01416    78.777009    25.090958    16.309335 
   88000    246.32976     -358.635    181563.75   -13217.154    1013.2819   -14230.436   -712.11909    484.66003    78.774903    25.087547    16.305428 
   88200     244.9884   -339.98841    181563.75   -13201.348    1007.7642   -14209.112    -668.4554    487.30327    78.773443    25.089072    16.292146 
   88400    238.34611    -338.6019    181563.75   -13259.513    980.44099   -14239.954   -609.73807    491.21005    78.771971    25.085614    16.270692 
   88600    233.00271   -329.67269    181563.75   -13287.886    958.46083   -14246.347   -600.16091    488.97701    78.768971    25.082314    16.264957 
   88800    230.51183   -490.57199    181563.75   -13320.871    948.21453   -14269.086   -1156.3699    490.83042     78.76736    25.080776     16.27065 
   89000    234.92393   -295.18606    181563.75   -13351.736     966.3638     -14318.1   -494.74667    489.86556    78.766104    25.081941    16.247381 
   89200     234.1088   -359.06933    181563.75   -13350.784    963.01071   -14313.795   -705.84316    491.78214    78.766796    25.083099    16.247272 
   89400    238.14259    -475.2653    181563.75   -13299.792     979.6038   -14279.396   -1140.8223     491.8188    78.766336    25.082665    16.240343 
   89600    236.28674   -435.56865    181563.75   -13354.528    971.96975   -14326.498   -979.93038    493.06741    78.767616    25.081548    16.254045 
   89800    243.24026   -423.10805    181563.75   -13287.977    1000.5732    -14288.55   -917.92109    491.28327     78.76527    25.081971    16.247483 
   90000     247.8047   -393.23781    181563.75     -13241.4    1019.3491   -14260.749   -810.70674    493.01001     78.76273    25.081209    16.249243 
   90200    239.92918    -241.6385    181563.75   -13316.792    986.95297   -14303.745   -280.20171    492.90446    78.763038    25.084315    16.255908 
   90400    222.12158   -347.47892    181563.75   -13359.636    913.70109   -14273.338    -691.8103    493.79547    78.765392    25.085835    16.268505 
   90600    246.49407   -237.38892    181563.75   -13270.631    1013.9578   -14284.589   -269.34346    494.50026    78.764091    25.089109    16.266515 
   90800    243.33249   -254.20952    181563.75   -13252.378    1000.9525   -14253.331   -328.64302    494.30737     78.76606    25.086142    16.281651 
   91000    237.10422   -306.44804    181563.75   -13292.171    975.33246   -14267.503   -521.18005    496.48833    78.764374    25.087725     16.27251 
   91200    233.38786   -394.76688    181563.75   -13305.299    960.04511   -14265.344    -863.2561    497.75347    78.764791    25.093162    16.275469 
   91400    233.54484   -383.43163    181563.75   -13353.494    960.69087   -14314.185    -808.0681    498.32048    78.763053    25.095679    16.253374 
   91600    237.98812   -218.88805    181563.75   -13247.334    978.96839   -14226.302   -173.37881    497.88529    78.765235    25.090833    16.255516 
   91800    237.88635   -342.23056    181563.75   -13269.392    978.54976   -14247.942   -681.73871    501.32448    78.767779    25.090512    16.256699 
   92000    246.03444   -365.45052    181563.75   -13246.053    1012.0671    -14258.12   -783.71977    501.58662    78.766805    25.084706    16.246021 
   92200    236.71826   -396.31782    181563.75   -13273.622    973.74479   -14247.366   -868.27406    503.68066    78.765441    25.080221    16.284325 
   92400    244.44921   -464.14044    181563.75   -13204.095    1005.5462   -14209.641   -1072.7878    503.59627    78.766406    25.079102    16.278855 
   92600    237.89268   -450.32398    181563.75   -13296.236    978.57578   -14274.811   -1074.9515    502.44631    78.769774    25.080423    16.303894 
   92800     229.5382   -328.45444    181563.75   -13349.814     944.2095   -14294.024   -639.15876    505.18339    78.770848    25.080373    16.298731 
   93000    230.52396   -168.63015    181563.75   -13375.007    948.26441   -14323.271   -42.045528    506.51405    78.775103    25.078288    16.305448 
   93200     236.2708   -308.72271    181563.75   -13337.193    971.90414   -14309.097    -580.4299    508.61664    78.773601    25.077124    16.325742 
   93400    237.99863   -317.84473    181563.75   -13325.159    979.01163    -14304.17   -548.40133     507.9374    78.770881    25.074511    16.334108 
   93600    239.94347   -361.24512    181563.75     -13307.9    987.01176   -14294.912   -728.14328    507.54311    78.768734    25.077743     16.31874 
   93800    237.11428   -355.41358    181563.75   -13271.989    975.37383   -14247.363   -755.49989    508.29085     78.77108    25.078692    16.341054 
   94000    232.53019   -426.86376    181563.75   -13308.332    956.51711   -14264.849    -958.9727    509.11437    78.769686    25.079898    16.336602 
   94200    245.76225   -332.93267    181563.75   -13240.511    1010.9474   -14251.458   -665.30765    509.84861    78.770941    25.083415    16.343009 
   94400    236.80798   -228.52853    181563.75   -13237.756    974.11384    -14211.87   -265.02032    509.22078    78.770948    25.085426     16.35228 
   94600    248.09843   -356.39968    181563.75    -13226.68    1020.5573   -14247.238   -696.70708    515.36422    78.769305    25.080138    16.375407 
   94800    239.28087   -461.49571    181563.75   -13182.253    984.28611   -14166.539   -1078.7191    515.52189    78.768682    25.083465    16.390247 
   95000    236.36225   -168.79943    181563.75   -13270.534    972.28035   -14242.814    -23.86339     513.9538    78.765775    25.083266    16.363144 
   95200    241.01992   -579.18818    181563.75   -13268.142    991.43976   -14259.582   -1517.8591    517.60232    78.766087    25.084953     16.33994 
   95400    240.18086    -243.9242    181563.75   -13265.788    987.98824   -14253.776   -316.93133    517.52657    78.764051    25.087747    16.327082 
   95600    236.57744   -298.09351    181563.75   -13312.779    973.16553   -14285.945   -496.63038    517.86775    78.765183    25.089893    16.335319 
   95800    237.45542   -434.91066    181563.75   -13301.997     976.7771   -14278.775   -997.04124    519.52852    78.765715    25.088378    16.330348 
   96000    239.94255   -313.31275    181563.75   -13327.894    987.00798   -14314.902   -591.11027    519.83671    78.760391    25.089674    16.330613 
   96200    240.89599   -105.38562    181563.75    -13331.49    990.92997    -14322.42    176.66088    518.57769    78.757622    25.093174     16.32679 
   96400    238.19063   -370.66842    181563.75   -13293.301    979.80142   -14273.102   -705.95167    522.80972    78.762239      25.0932    16.344132 
   96600    238.33472   -421.57885    181563.75   -13312.466    980.39411    -14292.86   -949.57526    519.85498    78.764062    25.091272    16.329425 
   96800    246.03346   -189.00214    181563.75   -13231.891     1012.063   -14243.954    -120.3815    520.00077    78.765914    25.092369    16.338847 
   97000    243.52571   -326.99155    181563.75   -13250.117    1001.7474   -14251.864   -605.42039    521.28201     78.76607    25.093474    16.341278 
   97200    251.32127    -487.3677    181563.75   -13197.852    1033.8145   -14231.667   -1163.6152    526.08891    78.765389    25.091361    16.339723 
   97400    224.47579   -148.46302    181563.75   -13299.268    923.38518   -14222.653    12.860978    529.06237     78.76531    25.089312    16.349125 
   97600    241.06098   -260.61404    181563.75   -13261.986    991.60864   -14253.595   -336.70532    532.83856    78.764568    25.085656    16.346256 
   97800    238.56066   -140.00734    181563.75   -13291.102    981.32354   -14272.426    98.642834    532.92718    78.766602    25.085291    16.366444 
   98000    237.70829   -379.84733    181563.75   -13336.762     977.8173    -14314.58     -796.117    532.15502    78.768967    25.083407     16.33582 
   98200    238.23767   -472.91007    181563.75   -13316.735    979.99492    -14296.73   -1101.6447    531.25939    78.765258    25.082152    16.340051 
   98400    239.56445   -457.76912    181563.75   -13276.775    985.45263   -14262.227   -1095.6441     535.0672    78.763834    25.081862    16.342615 
   98600    240.95418   -516.37928    181563.75   -13234.452    991.16934   -14225.621   -1307.6587    536.09291    78.764273    25.080062    16.391743 
   98800    249.34129    -468.5599    181563.75   -13133.476    1025.6698   -14159.146   -1098.4021    540.82507     78.76386    25.079802    16.411748 
   99000    237.36993   -194.62911    181563.75   -13199.543    976.42545   -14175.968   -158.82878    541.37321    78.760914    25.081497    16.414811 
   99200    243.46882   -293.44197    181563.75   -13225.138    1001.5134   -14226.651   -481.99209    546.68108    78.760713    25.078312    16.386636 
   99400    239.31416   -416.18042    181563.75   -13247.237    984.42307    -14231.66   -890.26526    550.46012    78.762673     25.07841    16.357577 
   99600    246.51146   -380.40628    181563.75   -13241.871    1014.0293     -14255.9   -799.55826    553.79955     78.76273    25.077836    16.344385 
   99800    244.51556   -317.83134    181563.75   -13246.332    1005.8191   -14252.151   -615.26832    552.23735    78.760202    25.076432    16.388321 
  100000    239.53428   -357.25772    181563.75   -13300.005    985.32854   -14285.334   -688.35733    550.74186     78.75878    25.074452    16.390583 
  100200    249.24128   -379.01392    181563.75   -13268.017    1025.2584   -14293.276    -766.2276    553.69421    78.760596    25.072251    16.384298 
  100400    235.25993    -462.0158    181563.75   -13326.951    967.74592   -14294.697   -1116.4249     554.3753    78.758574    25.067958    16.402249 
  100600    235.17216    -424.6061    181563.75   -13355.583    967.38487   -14322.968   -957.38478    553.34204    78.756226    25.065238     16.38776 
  100800    239.47324   -363.46243    181563.75   -13287.997    985.07747   -14273.074   -716.28172     553.7421    78.758398    25.066124    16.391113 
[...]
 5175800    228.92234   -324.53527    181563.75   -14719.231    941.67613   -15660.907   -491.40744    5861.1573    77.359095    24.239028    16.475813 
 5176000    227.54712   -428.35952    181563.75   -14676.396    936.01913   -15612.415   -898.24515    5859.9258    77.360211    24.239477    16.469792 
 5176200     221.1777   -355.49237    181563.75   -14690.106    909.81841   -15599.925   -655.98431     5859.158    77.358896     24.23993     16.47225 
 5176400    224.28951   -308.43847    181563.75   -14731.045    922.61889   -15653.664   -409.12517    5859.0086    77.359264    24.240337    16.472445 
 5176600    226.29196   -380.19343    181563.75   -14681.873    930.85604    -15612.73   -726.29768    5860.9729     77.35955    24.242087    16.464443 
 5176800    231.26454   -382.49201    181563.75   -14699.851    951.31084   -15651.161   -751.96902    5860.9544     77.36006    24.243318    16.467198 
 5177000    225.01205   -265.70932    181563.75    -14710.81    925.59107   -15636.401   -285.18801    5857.5944    77.361554    24.244344    16.469859 
 5177200    227.84158   -410.26892    181563.75   -14665.584    937.23043   -15602.814   -812.38993    5858.7378    77.361429    24.245071     16.46835 
 5177400    223.40178   -374.08616    181563.75   -14691.275    918.96723   -15610.243   -678.46045    5862.9182    77.362127    24.244653     16.47497 
 5177600     229.0207   -381.98507    181563.75   -14707.389    942.08076    -15649.47   -716.64111    5857.9594    77.362196    24.245034    16.472256 
 5177800    224.23808   -407.10003    181563.75   -14721.731    922.40737   -15644.138   -841.59336    5859.1656    77.360067    24.245765    16.476587 
 5178000    221.58487   -350.32338    181563.75   -14698.346    911.49334   -15609.839   -601.09805    5862.8395    77.360959    24.246036    16.474305 
 5178200    226.58086   -359.63359    181563.75   -14720.159     932.0444   -15652.203   -654.65305     5856.836    77.358953    24.245119    16.477229 
 5178400    224.34796   -315.44224    181563.75   -14690.165    922.85935   -15613.024   -473.47061    5859.2209    77.359079    24.245235    16.472665 
 5178600      226.809    -404.3864    181563.75   -14677.256    932.98288   -15610.239   -795.02839    5862.0894    77.359029    24.245758    16.477424 
 5178800    230.42371   -383.07922    181563.75   -14658.041    947.85206   -15605.894   -729.92185    5859.2973     77.36006    24.245398     16.47723 
 5179000    233.01811   -282.26558    181563.75   -14651.576    958.52417     -15610.1    -391.0984    5859.9187    77.361113    24.246654     16.48001 
 5179200    232.67971   -356.39055    181563.75   -14688.201    957.13216   -15645.333   -648.88267     5859.384    77.361442    24.246867     16.48357 
 5179400    225.92966   -388.53113    181563.75   -14699.647    929.36568   -15629.013   -719.11537    5861.1528     77.36234    24.246852     16.47919 
 5179600    223.97788   -330.55817    181563.75    -14722.34    921.33702   -15643.677   -559.83013     5859.297    77.362257    24.247481    16.476908 
 5179800    229.23192   -274.97555    181563.75   -14681.142    942.94959   -15624.092   -349.30333    5856.4043    77.361947     24.24882    16.471811 
 5180000    221.91441   -439.00588    181563.75   -14710.197    912.84891   -15623.046   -930.07474    5861.5929    77.361398    24.248982    16.479036 
 5180200    220.97512   -387.95462    181563.75   -14694.131    908.98512   -15603.116   -734.73845    5862.3701    77.361712    24.251443    16.474451 
 5180400      231.066   -294.81534    181563.75   -14681.954    950.49412   -15632.448   -412.43352    5854.9229    77.360825    24.250658    16.473205 
 5180600    221.83236   -322.83048    181563.75   -14740.514    912.51137   -15653.025   -510.98468    5859.2289    77.360133    24.250288    16.479638 
 5180800    222.57003   -473.59974    181563.75   -14712.901     915.5458   -15628.447   -1037.7357    5862.6633    77.360105    24.248631     16.48067 
 5181000    223.41641   -362.92295    181563.75   -14725.202     919.0274    -15644.23   -660.57416     5860.416    77.361582    24.248877    16.473089 
 5181200    227.89241   -256.93473    181563.75   -14698.725     937.4395   -15636.165   -280.08715    5859.0596    77.360672    24.248417    16.472916 
 5181400    222.66908   -362.68297    181563.75   -14685.738    915.95324   -15601.691   -650.43007    5860.1955    77.359384    24.247315    16.469935 
 5181600     229.2756   -360.35639    181563.75   -14685.432    943.12927   -15628.561   -632.80426     5861.793    77.357836      24.2456    16.469574 
 5181800    229.76033   -308.30117    181563.75   -14658.703    945.12324   -15603.827   -474.44907    5859.9891    77.356822    24.244904    16.464905 
 5182000     218.7751   -298.19675    181563.75   -14728.446    899.93527   -15628.382    -426.8529    5855.5279    77.357313    24.244947    16.471394 
 5182200     212.3547    -450.8645    181563.75   -14800.962    873.52487   -15674.487   -971.24334    5859.4656    77.356665    24.245116    16.474895 
 5182400     224.7415   -312.69772    181563.75   -14705.431    924.47817   -15629.909   -447.78205    5861.7667    77.355882     24.24503    16.474212 
 5182600    229.44672   -295.85428    181563.75   -14671.864    943.83317   -15615.697   -459.50945    5857.4837    77.356321    24.245232    16.475917 
 5182800     228.3496   -381.34486    181563.75   -14704.999    939.32016   -15644.319   -707.24439    5858.0085    77.355207    24.245433    16.473982 
 5183000    227.68716    -424.0401    181563.75   -14700.231    936.59519   -15636.826   -867.14074    5860.3306    77.355128    24.245985    16.473826 
 5183200    227.17936   -321.11134    181563.75   -14664.189    934.50634   -15598.695   -478.47606    5858.5378     77.35445    24.244965    16.475946 
 5183400    222.16456   -317.66502    181563.75   -14715.488    913.87791   -15629.366   -523.62345    5859.0514     77.35396    24.247071    16.478222 
 5183600    223.01113   -411.54534    181563.75    -14696.73    917.36027    -15614.09   -796.29135    5860.7788    77.353432    24.247515     16.47562 
 5183800    222.41859   -418.46878    181563.75   -14735.295    914.92285   -15650.218   -851.91621    5859.7655    77.354672     24.24769    16.473472 
 5184000    225.27138   -314.49508    181563.75   -14716.809    926.65785   -15643.467   -478.06571    5858.6709     77.35359    24.246251    16.469787 
 5184200    227.60976   -370.58332    181563.75   -14702.689    936.27681   -15638.966   -692.37607    5859.0701    77.354037    24.246048    16.469792 
 5184400    231.15625   -360.58352    181563.75   -14716.959    950.86538   -15667.825   -651.10061    5861.5375    77.353251    24.247209    16.469651 
 5184600    230.60635   -413.79295    181563.75   -14690.987    948.60334   -15639.591   -806.98123    5857.6157    77.352835    24.248225    16.474159 
 5184800    229.56327   -292.56813    181563.75   -14649.864    944.31261   -15594.177   -403.71647    5859.3999    77.352579    24.249425    16.473131 
 5185000     228.8743    -338.7479    181563.75   -14646.589    941.47852   -15588.067   -561.11956    5860.1385     77.35174    24.247595    16.476253 
 5185200    232.81577   -360.00411    181563.75   -14694.091    957.69181   -15651.782    -646.7526    5859.7497    77.349844    24.248227    16.475083 
 5185400    232.40407   -407.89642    181563.75    -14709.04    955.99831   -15665.039   -815.09669    5859.4841    77.348193    24.250179    16.475071 
 5185600    218.01942   -375.77798    181563.75   -14758.365    896.82678   -15655.192   -693.82912      5858.07    77.347288    24.251138    16.472727 
 5185800    225.81091   -402.67679    181563.75   -14700.917    928.87721   -15629.794   -836.61105    5859.4279     77.34642    24.252773    16.484655 
 5186000    232.88387   -371.22755    181563.75   -14669.412    957.97195   -15627.384   -645.65381    5859.5453    77.342908    24.252045    16.478257 
 5186200    233.89485   -331.58082    181563.75   -14652.916    962.13064   -15615.047   -529.71954    5857.2298    77.342957    24.252532    16.480739 
 5186400    220.72468   -334.22382    181563.75   -14711.779    907.95491   -15619.733   -595.25494    5859.6936    77.340001    24.253069    16.478588 
 5186600    224.76248    -346.1615    181563.75   -14695.852    924.56447   -15620.417   -594.08012    5861.0414    77.340671    24.251986    16.481401 
 5186800    226.65931   -323.12712    181563.75    -14658.54    932.36713   -15590.907   -497.59973     5860.557     77.34065    24.253198    16.488577 
 5187000    222.68764   -363.34597    181563.75   -14702.432    916.02957   -15618.462   -637.25755     5860.132    77.340096    24.253116    16.483408 
 5187200    227.24224    -290.4748    181563.75   -14686.497    934.76501   -15621.262    -362.6719    5858.3074    77.340139    24.253831    16.482887 
 5187400    218.81031   -399.70639    181563.75   -14732.707    900.08013   -15632.787   -774.92308    5859.0196    77.340708    24.254522    16.482221 
 5187600    224.45731   -417.40596    181563.75   -14712.685    923.30917   -15635.995    -824.5011    5860.0594    77.339946    24.254779    16.479567 
 5187800    230.56789    -337.7713    181563.75   -14691.051    948.44514   -15639.496    -558.3179    5859.8825    77.339857    24.254909    16.480512 
 5188000    225.43654   -333.41573    181563.75   -14716.686    927.33722   -15644.023   -556.21134    5856.8137    77.338999    24.255573    16.478974 
 5188200    230.95743   -372.26109    181563.75   -14688.265    950.04752   -15638.313   -703.03276    5859.9105    77.337647    24.254355    16.480307 
 5188400    223.06714   -366.69153    181563.75   -14700.357    917.59067   -15617.948   -676.42052    5859.6688    77.338656     24.25567    16.482731 
 5188600    216.84953   -259.46029    181563.75   -14723.059    892.01441   -15615.074   -291.53146    5857.8525    77.338138    24.255712    16.479072 
 5188800    224.80973    -374.9303    181563.75    -14676.02    924.75883   -15600.779   -687.91814    5860.5591    77.338197     24.25447    16.473689 
 5189000     227.7985   -360.44046    181563.75   -14694.105    937.05321   -15631.158   -618.05324    5860.6295    77.337156    24.253669    16.477506 
 5189200    227.48595   -277.18562    181563.75   -14679.795    935.76751   -15615.562   -351.51282    5857.4229    77.336695     24.25291    16.470428 
 5189400    226.20967   -335.24726    181563.75   -14691.839    930.51752   -15622.357   -596.10777    5857.5338     77.33532    24.249958    16.479469 
 5189600       225.55   -440.22987    181563.75     -14712.6    927.80397   -15640.404   -932.25755     5859.106    77.335249    24.248635    16.474647 
 5189800    223.62193   -362.16128    181563.75   -14721.217    919.87279    -15641.09   -618.88276    5861.2533    77.334235    24.249186    16.478285 
 5190000     224.4065   -287.15573    181563.75   -14704.621    923.10015   -15627.721   -401.81287    5858.0667    77.333899    24.249492    16.476378 
 5190200    222.14063    -302.1174    181563.75   -14732.462    913.77946   -15646.241   -448.44289    5859.8411    77.334478    24.251387    16.480827 
 5190400    221.93119   -470.93719    181563.75   -14689.626    912.91793   -15602.544   -1032.1008    5862.4475    77.334686    24.253157    16.479897 
 5190600    232.31353   -307.60592    181563.75   -14676.503    955.62587   -15632.129    -433.7183     5858.768    77.335837    24.251678    16.472935 
 5190800    229.02494   -260.81145    181563.75   -14695.471    942.09816   -15637.569   -270.02184    5856.8475    77.335506    24.250826    16.480507 
 5191000    218.08197   -450.97606    181563.75    -14736.85    897.08406   -15633.934   -975.72508    5860.7603    77.333954    24.249849    16.486829 
 5191200     222.0849   -461.57026    181563.75   -14713.871    913.55022   -15627.422   -1014.3382    5860.3095    77.334111     24.24917    16.484042 
 5191400    229.31576   -298.48846    181563.75   -14695.108    943.29447   -15638.402   -414.55794    5856.8036    77.334821    24.249771    16.481811 
 5191600    219.84897   -322.73521    181563.75   -14699.231    904.35268   -15603.584   -551.55198    5857.0718    77.334645    24.250987    16.482623 
 5191800    224.68524   -474.66174    181563.75   -14718.218    924.24676   -15642.464   -1059.3026    5860.9991    77.333874    24.249432    16.492686 
 5192000    222.14363   -335.65297    181563.75   -14680.711    913.79178   -15594.503    -560.5843    5858.7351    77.333744    24.249977    16.488239 
 5192200      237.283   -197.14439    181563.75   -14638.315    976.06786   -15614.383   -50.097772    5854.2871    77.330973     24.24951    16.487428 
 5192400    234.27242   -365.65912    181563.75   -14624.653    963.68377   -15588.336     -622.975    5856.7786    77.330469    24.248893    16.494945 
 5192600    220.15984   -384.52889    181563.75   -14697.749    905.63143   -15603.381   -686.44514     5859.442    77.330803    24.248625    16.495415 
 5192800     227.3368   -309.78748    181563.75   -14715.529    935.15399   -15650.683   -464.04412    5854.2974    77.331039    24.248756    16.487116 
 5193000    228.52501   -304.97805    181563.75   -14691.586    940.04172   -15631.628   -469.17044      5856.48     77.33074     24.24903    16.488749 
 5193200    225.46477   -418.70996    181563.75   -14681.846    927.45338     -15609.3    -858.0467    5860.8704    77.330876     24.24967    16.489883 
 5193400    220.77482   -344.72225    181563.75   -14753.585    908.16115   -15661.746   -573.77259    5855.1277    77.330404    24.248681    16.488038 
 5193600    230.00673   -294.79117    181563.75   -14692.353     946.1368    -15638.49   -426.37593    5855.0247    77.328843    24.248133     16.49388 
 5193800    221.89853   -328.13016    181563.75   -14715.709    912.78357   -15628.492   -531.29505    5857.4631    77.326549    24.247214    16.490113 
 5194000    226.37052   -346.57789    181563.75   -14668.821    931.17919       -15600   -575.44376    5858.9524    77.325116    24.246534    16.490275 
 5194200    220.72596   -252.44898    181563.75   -14691.196    907.96018   -15599.157   -246.81249     5855.928    77.324533    24.245219    16.489326 
 5194400    229.39084   -335.70399    181563.75   -14654.417    943.60331   -15598.021   -566.24438    5855.9919    77.322089    24.243891    16.494081 
 5194600    224.30723   -434.02042    181563.75   -14708.648    922.69181    -15631.34   -924.43845    5860.8497    77.319538    24.244862    16.488569 
 5194800    222.42694   -335.81784    181563.75   -14667.262    914.95718   -15582.219   -496.21879    5857.6845    77.319404    24.244907    16.483469 
 5195000    228.13042   -275.37475    181563.75   -14674.267    938.41856   -15612.686   -348.40291    5853.5174    77.318366    24.244346    16.493424 
 5195200    226.09595   -428.05507    181563.75   -14720.324    930.04973   -15650.374   -935.27316    5858.2038    77.318709      24.2434    16.488963 
 5195400    215.83126   -431.42526    181563.75   -14692.809    887.82574   -15580.635   -907.81277    5859.5376    77.317135    24.242861    16.494382 
 5195600    227.84279   -337.36546    181563.75   -14694.467    937.23538   -15631.703   -523.90619     5855.382    77.316722    24.242731     16.49773 
 5195800    223.84828   -286.62987    181563.75   -14701.198    920.80388   -15622.002   -363.83766    5856.7525    77.316356    24.243928     16.49668 
 5196000    232.47607   -391.46138    181563.75   -14660.449    956.29446   -15616.743   -730.92579     5854.802     77.31473    24.246255    16.497687 
 5196200    227.64849   -482.13387    181563.75   -14689.731    936.43614   -15626.167   -1074.7516     5858.588    77.312832    24.246614    16.500777 
 5196400    234.96815   -248.28588    181563.75    -14645.06    966.54569   -15611.605    -233.2067    5854.1234    77.313787    24.248431    16.494813 
 5196600    217.70213   -298.54978    181563.75   -14717.736    895.52161   -15613.258   -416.32246     5853.989     77.31322     24.24881    16.504457 
 5196800    228.90341   -447.79822    181563.75   -14700.682    941.59825    -15642.28   -963.39555    5857.6946    77.312705    24.249724    16.504043 
 5197000    228.03314    -297.5752    181563.75   -14677.025    938.01838   -15615.044   -383.52072    5854.0437    77.310913    24.249001      16.4964 
 5197200    227.94846    -294.5381    181563.75   -14688.731    937.67006   -15626.401   -383.85953    5852.5679    77.311164    24.248955    16.494367 
 5197400    230.94366   -379.56576    181563.75   -14635.966    949.99088   -15585.957   -731.90603    5856.5538    77.310794    24.248206    16.500972 
 5197600    232.95777   -351.74723    181563.75   -14680.749    958.27596   -15639.025   -578.09123    5854.8114    77.309613    24.247093    16.498598 
 5197800    220.62086   -346.14998    181563.75   -14682.597    907.52785   -15590.125   -593.75733    5856.8097    77.309174    24.248628    16.491473 
 5198000    238.72121   -304.66365    181563.75   -14658.521    981.98396   -15640.505   -447.77341    5856.5992     77.30926    24.251064    16.497983 
 5198200    227.37533   -399.28881    181563.75   -14698.523    935.31248   -15633.836    -793.2564    5856.2185    77.310611    24.251523    16.495818 
 5198400    220.52543   -330.57757    181563.75   -14718.024    907.13528   -15625.159   -503.42965    5857.0591    77.311452    24.253091    16.494816 
 5198600      228.122   -356.40266    181563.75   -14700.198    938.38392   -15638.582   -618.37776    5856.3805    77.312614    24.254764    16.496906 
 5198800    224.21046   -341.62267    181563.75   -14731.301    922.29372   -15653.595   -588.81378    5855.3135    77.312952    24.255623     16.49569 
 5199000    227.89647   -392.96778    181563.75   -14702.486    937.45621   -15639.942   -736.42761    5856.2653    77.313189    24.256379    16.500568 
 5199200    223.83056    -398.9218    181563.75   -14708.753    920.73099   -15629.484   -761.72308    5857.2867    77.313042    24.256351    16.497769 
 5199400    227.28874   -330.20977    181563.75   -14743.664    934.95631    -15678.62    -535.6624     5855.558    77.314027    24.256253     16.49269 
 5199600    221.45802   -405.41836    181563.75   -14740.489    910.97153   -15651.461   -812.10634    5857.2089    77.313717    24.255551     16.49638 
 5199800    230.99266   -330.70267    181563.75   -14688.718    950.19245    -15638.91   -537.09553    5857.8124    77.311997    24.256271    16.492329 
 5200000    219.11116   -246.37311    181563.75   -14689.296    901.31767   -15590.614   -248.29108    5852.8632    77.311678    24.257844    16.495176 
Loop time of 7839.72 on 100 procs for 5200000 steps with 9253 atoms

Performance: 573.082 ns/day, 0.042 hours/ns, 663.289 timesteps/s
97.7% CPU use with 100 MPI tasks x no OpenMP threads

MPI task timing breakdown:
Section |  min time  |  avg time  |  max time  |%varavg| %total
---------------------------------------------------------------
Pair    | 0.47226    | 2117.5     | 6684.2     |5097.6 | 27.01
Neigh   | 4.3919     | 144.85     | 339.05     | 971.0 |  1.85
Comm    | 112.17     | 1547.6     | 5486.6     |3973.8 | 19.74
Output  | 85.292     | 85.407     | 88.238     |   3.1 |  1.09
Modify  | 141.93     | 3877.6     | 7579.5     |5108.3 | 49.46
Other   |            | 66.72      |            |       |  0.85

Nlocal:    92.53 ave 191 max 0 min
Histogram: 30 0 9 11 0 0 0 4 37 9
Nghost:    793.69 ave 1097 max 579 min
Histogram: 21 9 0 21 14 5 7 12 1 10
Neighs:    0 ave 0 max 0 min
Histogram: 100 0 0 0 0 0 0 0 0 0
FullNghs:  9938.1 ave 23133 max 0 min
Histogram: 35 15 0 0 0 0 3 21 22 4

Total # of neighbors = 993810
Ave neighs/atom = 107.404
Neighbor list builds = 521231
Dangerous builds = 0
write_data 		${DIR}/data.${NAME}_run
write_data 		run_27/data.${NAME}_run
write_data 		run_27/data.ibeam_cooling_27_run
Total wall time: 2:10:55
