

### IMPORT ATOMS ###
read_data ../Box_Setup/data.Ibeam_240K
  orthogonal box = (0 0 0) to (157.504 40.4305 33.9212)
  10 by 5 by 2 MPI processor grid
  reading atoms ...
  9248 atoms
  reading velocities ...
  9248 velocities
group water type 2
1952 atoms in group water
group graphite type 1
7296 atoms in group graphite


# Define potential
#
pair_style          sw
pair_coeff * * MLC_e.sw C mW

# Add velocity/set timestep
#

fix		1 graphite setforce 0.0 0.0 0.0
velocity 	graphite set 0.0 0.0 0.0
velocity            water create ${START_TEMP} ${SEED} rot yes dist gaussian
velocity            water create 235 ${SEED} rot yes dist gaussian
velocity            water create 235 26181 rot yes dist gaussian
timestep            5.0

# Define output
#
compute 1 water msd
compute 2 water temp


thermo	            100
thermo_style custom step c_2 press vol etotal ke pe c_1[4] density

# Neighbor lists
#
neigh_modify        delay 0 every 1 check yes


# Set fixes
#
fix                 2 water momentum 10 linear 1 1 1 rescale
fix                 3 all nve
fix                 4 water temp/csvr ${START_TEMP} ${START_TEMP} 500.0 928347
fix                 4 water temp/csvr 235 ${START_TEMP} 500.0 928347
fix                 4 water temp/csvr 235 235 500.0 928347

# Run 0.05 ns equilibration
#
dump                1 all custom 100 ${DIR}/eq.${NAME}.dump id type x y z vx vy vz
dump                1 all custom 100 run_2/eq.${NAME}.dump id type x y z vx vy vz
dump                1 all custom 100 run_2/eq.ibeam_cooling_2.dump id type x y z vx vy vz
run                 10000
Neighbor list info ...
  update every 1 steps, delay 0 steps, check yes
  max neighbors/atom: 2000, page size: 100000
  master list distance cutoff = 6.67472
  ghost atom cutoff = 6.67472
  binsize = 3.33736, bins = 48 13 11
  1 neighbor lists, perpetual/occasional/extra = 1 0 0
  (1) pair sw, perpetual
      attributes: full, newton on
      pair build: full/bin/atomonly
      stencil: full/bin/3d
      bin: standard
Per MPI rank memory allocation (min/avg/max) = 3.366 | 4.292 | 4.744 Mbytes
Step c_2 Press Volume TotEng KinEng PotEng c_1[4] Density 
       0          235    -305.4879    216009.12   -18733.422    1366.6567   -20100.079            0   0.94393226 
     100    232.43777   -373.56508    216009.12   -18748.933    1351.7559   -20100.689   0.77288075   0.94393226 
     200    230.05253   -214.84889    216009.12   -18792.526    1337.8844    -20130.41    1.1608958   0.94393226 
     300    240.51725   -220.56773    216009.12   -18779.338    1398.7426   -20178.081    1.5293275   0.94393226 
     400    228.64748   -252.56395    216009.12   -18805.461    1329.7132   -20135.174    1.8137062   0.94393226 
     500    225.47962   -386.15593    216009.12   -18790.933    1311.2903   -20102.223    2.1383872   0.94393226 
     600    237.15083   -410.37839    216009.12   -18712.633     1379.165   -20091.798    2.5464458   0.94393226 
     700    240.04833   -292.19479    216009.12   -18718.289    1396.0156   -20114.305    2.8595728   0.94393226 
     800    242.57723   -239.09247    216009.12   -18706.147    1410.7225   -20116.869    3.3960157   0.94393226 
     900    235.75768   -239.13958    216009.12   -18734.982     1371.063   -20106.045    3.9075258   0.94393226 
    1000    232.19205   -304.61547    216009.12   -18788.507    1350.3269   -20138.834    4.1662614   0.94393226 
    1100    236.58446   -358.31632    216009.12   -18763.492    1375.8712   -20139.363    4.4181258   0.94393226 
    1200    243.59604   -259.17856    216009.12   -18760.411    1416.6475   -20177.058    4.7001685   0.94393226 
    1300    244.47899   -196.74967    216009.12    -18722.17    1421.7823   -20143.952    5.0046041   0.94393226 
    1400    234.34776   -280.20065    216009.12   -18760.666    1362.8636    -20123.53    5.2386899   0.94393226 
    1500    234.72563   -452.93202    216009.12   -18789.395    1365.0611   -20154.456    5.4600684   0.94393226 
    1600    237.65388   -493.28103    216009.12   -18782.139    1382.0905   -20164.229    5.7284336   0.94393226 
    1700    235.84818   -361.49197    216009.12   -18788.046    1371.5894   -20159.635    6.1305051   0.94393226 
    1800    238.08851   -377.56338    216009.12   -18770.324    1384.6181   -20154.942    6.5120869   0.94393226 
    1900    237.45082   -262.12678    216009.12    -18735.51    1380.9096    -20116.42    6.8747331   0.94393226 
    2000    240.23669   -151.74451    216009.12   -18705.752     1397.111   -20102.863    7.1834621   0.94393226 
    2100    232.12989   -292.31009    216009.12   -18791.266    1349.9654   -20141.232    7.2777574   0.94393226 
    2200    230.43423   -171.61841    216009.12   -18773.564    1340.1042   -20113.668    7.5340977   0.94393226 
    2300    236.31493   -421.05271    216009.12   -18748.894    1374.3037   -20123.198    7.8405658   0.94393226 
    2400    240.49956   -375.47525    216009.12   -18752.284    1398.6397   -20150.923    8.0734427   0.94393226 
    2500    240.19638   -190.76499    216009.12   -18777.179    1396.8766   -20174.056    8.1507557   0.94393226 
    2600    229.89314   -297.76419    216009.12    -18766.13    1336.9574   -20103.088    8.4557928   0.94393226 
    2700    230.27293   -301.95989    216009.12   -18758.744    1339.1662    -20097.91    8.4896095   0.94393226 
    2800    240.24797   -231.93686    216009.12    -18720.46    1397.1766   -20117.637    8.8683129   0.94393226 
    2900    239.48867   -410.41779    216009.12   -18731.571    1392.7608   -20124.332    9.1204614   0.94393226 
    3000    237.61689   -348.42106    216009.12   -18727.335    1381.8754   -20109.211    9.4881835   0.94393226 
    3100    240.72932   -264.86432    216009.12   -18727.865    1399.9759    -20127.84    9.8231909   0.94393226 
    3200    230.21722   -265.28384    216009.12   -18779.328    1338.8422    -20118.17    10.317702   0.94393226 
    3300    226.04006   -279.69411    216009.12   -18835.414    1314.5496   -20149.963    10.679448   0.94393226 
    3400    234.07382   -394.34404    216009.12   -18775.454    1361.2704   -20136.725    11.092381   0.94393226 
    3500    232.13904   -273.58362    216009.12   -18782.035    1350.0186   -20132.054    11.366371   0.94393226 
    3600    239.29304   -219.83827    216009.12   -18778.185    1391.6231   -20169.808    11.881451   0.94393226 
    3700    238.55702   -267.84079    216009.12   -18765.642    1387.3428   -20152.985    12.508058   0.94393226 
    3800     235.7219   -313.11088    216009.12   -18743.322     1370.855   -20114.177    12.765583   0.94393226 
    3900    231.68058   -373.31432    216009.12   -18754.556    1347.3524   -20101.909     13.31784   0.94393226 
    4000    234.12383    -432.6067    216009.12   -18804.919    1361.5612    -20166.48    13.806926   0.94393226 
    4100     233.7837   -545.57853    216009.12   -18793.014    1359.5832   -20152.597    14.282685   0.94393226 
    4200     244.2119   -434.20989    216009.12   -18766.291    1420.2291    -20186.52    14.796417   0.94393226 
    4300    231.34182   -283.94877    216009.12   -18813.814    1345.3823   -20159.196    15.013665   0.94393226 
    4400    233.32552   -257.74015    216009.12   -18773.649    1356.9186   -20130.568    15.149653   0.94393226 
    4500    230.99961   -303.21707    216009.12   -18804.834    1343.3922   -20148.226    15.752611   0.94393226 
    4600     228.3024   -445.24557    216009.12   -18848.095    1327.7064   -20175.801    16.236602   0.94393226 
    4700    236.38318    -332.5133    216009.12    -18758.83    1374.7006   -20133.531    16.733764   0.94393226 
    4800    238.23634   -407.29039    216009.12   -18726.026    1385.4778   -20111.504    16.841395   0.94393226 
    4900    242.66491   -161.03877    216009.12   -18693.724    1411.2324   -20104.956    17.078888   0.94393226 
    5000    236.44646   -174.53389    216009.12   -18740.299    1375.0687   -20115.368    17.677126   0.94393226 
    5100    237.11778   -215.47569    216009.12   -18715.594    1378.9728   -20094.567    18.192409   0.94393226 
    5200    238.62608   -418.27323    216009.12   -18731.122    1387.7444   -20118.866    18.836729   0.94393226 
    5300    225.20663    -326.3789    216009.12   -18783.158    1309.7028    -20092.86    19.035979   0.94393226 
    5400    232.37369     -355.663    216009.12   -18772.568    1351.3832   -20123.952    19.452163   0.94393226 
    5500    230.40434    -206.9984    216009.12   -18757.955    1339.9304   -20097.885    20.032973   0.94393226 
    5600    238.46234   -388.48284    216009.12   -18796.336    1386.7921   -20183.128     20.11221   0.94393226 
    5700    236.84045   -393.40515    216009.12    -18765.52    1377.3599    -20142.88    20.179846   0.94393226 
    5800    233.29579   -390.17663    216009.12   -18754.322    1356.7457   -20111.068    20.506299   0.94393226 
    5900    234.83998   -372.85881    216009.12   -18783.675    1365.7261   -20149.401    20.597953   0.94393226 
    6000    232.29981   -333.37902    216009.12   -18796.742    1350.9536   -20147.695    20.634622   0.94393226 
    6100     229.6839    -346.8746    216009.12    -18818.45    1335.7406    -20154.19    20.731596   0.94393226 
    6200    229.46152   -91.192797    216009.12   -18809.404    1334.4473   -20143.851    21.016496   0.94393226 
    6300    239.29603   -330.03188    216009.12   -18748.882    1391.6405   -20140.523    21.392652   0.94393226 
    6400    235.66988    -185.3138    216009.12   -18774.279    1370.5524   -20144.831    21.842907   0.94393226 
    6500    234.07365   -319.63086    216009.12   -18780.468    1361.2695   -20141.737    22.232316   0.94393226 
    6600    227.51673   -309.05485    216009.12   -18799.557    1323.1373   -20122.694    22.503156   0.94393226 
    6700    230.83717   -219.87673    216009.12   -18813.459    1342.4475   -20155.906     22.57541   0.94393226 
    6800    233.69243   -325.05947    216009.12   -18811.174    1359.0525   -20170.226    22.807428   0.94393226 
    6900    233.90592   -170.19726    216009.12   -18780.875     1360.294   -20141.169    22.934243   0.94393226 
    7000    232.58719    -232.3212    216009.12   -18779.573    1352.6249   -20132.198    23.174729   0.94393226 
    7100    235.43737   -206.98199    216009.12   -18799.395    1369.2003   -20168.595    23.313106   0.94393226 
    7200    234.56235   -326.22389    216009.12   -18841.682    1364.1115   -20205.794    23.377986   0.94393226 
    7300    230.25073   -336.69184    216009.12   -18864.971     1339.037   -20204.008    23.628409   0.94393226 
    7400     232.5528   -271.76261    216009.12   -18835.515    1352.4248    -20187.94    24.107421   0.94393226 
    7500    232.61242   -302.24754    216009.12   -18817.308    1352.7716   -20170.079    24.301774   0.94393226 
    7600    236.87031   -254.64168    216009.12   -18767.548    1377.5336   -20145.081    24.441331   0.94393226 
    7700    227.67497   -438.02466    216009.12   -18762.423    1324.0575    -20086.48    24.514517   0.94393226 
    7800    223.97879   -302.47377    216009.12   -18825.477    1302.5622   -20128.039    24.831107   0.94393226 
    7900    233.07814   -340.72608    216009.12   -18786.362      1355.48   -20141.842    25.001455   0.94393226 
    8000    242.00597   -231.81117    216009.12   -18728.824    1407.4003   -20136.224    25.538119   0.94393226 
    8100     231.1666   -339.42564    216009.12     -18723.2    1344.3633   -20067.563    25.848631   0.94393226 
    8200    231.82113   -403.93679    216009.12   -18730.708    1348.1698   -20078.878    26.139121   0.94393226 
    8300    238.69059   -274.03259    216009.12   -18706.706    1388.1195   -20094.826    26.535897   0.94393226 
    8400    242.08397    -351.6948    216009.12   -18697.276     1407.854    -20105.13     26.61988   0.94393226 
    8500    239.93907   -155.56552    216009.12    -18750.85    1395.3802    -20146.23    26.905084   0.94393226 
    8600     235.5094   -208.44627    216009.12    -18770.21    1369.6191   -20139.829    26.863804   0.94393226 
    8700    229.48372   -326.24104    216009.12   -18773.063    1334.5764   -20107.639     26.88749   0.94393226 
    8800    232.79687   -454.49216    216009.12   -18761.341    1353.8443   -20115.185    27.010194   0.94393226 
    8900    236.64865   -210.52443    216009.12    -18794.86    1376.2445   -20171.105    27.163123   0.94393226 
    9000    232.93579   -333.18778    216009.12   -18769.309    1354.6522   -20123.961     27.29391   0.94393226 
    9100    238.19873    -253.4933    216009.12   -18792.132    1385.2591   -20177.391     27.35932   0.94393226 
    9200    233.38685   -215.93868    216009.12   -18745.767    1357.2753   -20103.043     27.48982   0.94393226 
    9300    235.09328   -201.35995    216009.12   -18802.116    1367.1992   -20169.316    27.661574   0.94393226 
    9400    233.36417   -409.18978    216009.12   -18783.785    1357.1434   -20140.929    27.796177   0.94393226 
    9500      233.788   -311.68191    216009.12   -18818.094    1359.6083   -20177.702     27.62305   0.94393226 
    9600    230.62404   -335.41555    216009.12   -18833.135     1341.208   -20174.343    27.940452   0.94393226 
    9700    236.65997   -274.54302    216009.12    -18796.94    1376.3104    -20173.25     28.59467   0.94393226 
    9800    237.22562   -259.32058    216009.12   -18743.596    1379.5999   -20123.196     29.01165   0.94393226 
    9900     237.0356   -353.40942    216009.12   -18772.214    1378.4948   -20150.709    29.374308   0.94393226 
   10000    231.13369   -431.21638    216009.12    -18770.47     1344.172   -20114.642    29.760432   0.94393226 
Loop time of 15.5216 on 100 procs for 10000 steps with 9248 atoms

Performance: 278.322 ns/day, 0.086 hours/ns, 644.264 timesteps/s
97.7% CPU use with 100 MPI tasks x no OpenMP threads

MPI task timing breakdown:
Section |  min time  |  avg time  |  max time  |%varavg| %total
---------------------------------------------------------------
Pair    | 0.00070953 | 4.788      | 12.934     | 242.6 | 30.85
Neigh   | 0.0031004  | 0.15025    | 0.34204    |  30.7 |  0.97
Comm    | 0.17317    | 3.017      | 12.358     | 203.1 | 19.44
Output  | 0.1426     | 0.14278    | 0.1495     |   0.2 |  0.92
Modify  | 0.36234    | 7.2989     | 15.101     | 238.7 | 47.02
Other   |            | 0.1247     |            |       |  0.80

Nlocal:    92.48 ave 189 max 0 min
Histogram: 30 0 2 16 2 0 2 18 15 15
Nghost:    681.67 ave 1003 max 480 min
Histogram: 23 22 15 0 0 9 3 8 10 10
Neighs:    0 ave 0 max 0 min
Histogram: 100 0 0 0 0 0 0 0 0 0
FullNghs:  9444.72 ave 21101 max 0 min
Histogram: 30 20 0 0 0 0 1 19 15 15

Total # of neighbors = 944472
Ave neighs/atom = 102.127
Neighbor list builds = 556
Dangerous builds = 0
write_data 	    ${DIR}/data.${NAME}_eq
write_data 	    run_2/data.${NAME}_eq
write_data 	    run_2/data.ibeam_cooling_2_eq

undump              1
unfix               4



################################################
#######         Run Simulation         #########
################################################

reset_timestep      0
timestep	    10.0
log                 ${DIR}/log.run_${NAME}
log                 run_2/log.run_${NAME}
log                 run_2/log.run_ibeam_cooling_2
