
# Set production fixes - Nose/Hoover
#
fix                 4 water temp/csvr ${START_TEMP} ${END_TEMP} 500.0 928347
fix                 4 water temp/csvr 235 ${END_TEMP} 500.0 928347
fix                 4 water temp/csvr 235 225 500.0 928347


## divide "droplet" into core and surface
#region		core_reg cylinder z 135 135 44.6 20 INF units box
#region		surface_reg cylinder z 135 135 44.6 20 INF units box side out
#group		core dynamic all region core_reg
#group		surface dynamic all region surface_reg

## compute pressure core
#compute        peratom_core core stress/atom NULL
#compute        p_core core reduce sum c_peratom_core[1] c_peratom_core[2] c_peratom_core[3]
#variable       press_core equal -(c_p_core[1]+c_p_core[2]+c_p_core[3])/(3*1249982.5)


## compute pressure surface
#compute        peratom_surf surface stress/atom NULL
#compute        p_surf surface reduce sum c_peratom_surf[1] c_peratom_surf[2] #c_peratom_surf[3]
#variable       press_surf equal -(c_p_surf[1]+c_p_surf[2]+c_p_surf[3])/(3*42395)

## compute total pressure of drop
compute        peratom water stress/atom NULL
compute        p water reduce sum c_peratom[1] c_peratom[2] c_peratom[3]
variable       press equal -(c_p[1]+c_p[2]+c_p[3])/(3*50320)


# compute order parameter
compute        3 all orientorder/atom nnn NULL cutoff 3.5

# compute center of mass of bridge
compute 	4 water com

# Run simulation
thermo_style        custom step c_2 press vol etotal ke pe v_press c_1[4] c_4[*]
thermo              200
dump		     1 water custom 400 ${DIR}/prod.${NAME}.dump id type x y z vx vy vz c_3[*] c_peratom[*]
dump		     1 water custom 400 run_2/prod.${NAME}.dump id type x y z vx vy vz c_3[*] c_peratom[*]
dump		     1 water custom 400 run_2/prod.ibeam_cooling_2.dump id type x y z vx vy vz c_3[*] c_peratom[*]
run                 ${STEPS}
run                 4000000
Neighbor list info ...
  update every 1 steps, delay 0 steps, check yes
  max neighbors/atom: 2000, page size: 100000
  master list distance cutoff = 6.67472
  ghost atom cutoff = 6.67472
  binsize = 3.33736, bins = 48 13 11
  2 neighbor lists, perpetual/occasional/extra = 1 1 0
  (1) pair sw, perpetual
      attributes: full, newton on
      pair build: full/bin/atomonly
      stencil: full/bin/3d
      bin: standard
  (2) compute orientorder/atom, occasional, copy from (1)
      attributes: full, newton on
      pair build: copy
      stencil: none
      bin: none
Per MPI rank memory allocation (min/avg/max) = 6.143 | 6.683 | 7.271 Mbytes
Step c_2 Press Volume TotEng KinEng PotEng v_press c_1[4] c_4[1] c_4[2] c_4[3] 
       0    231.13369   -431.21638    216009.12    -18770.47     1344.172   -20114.642   -1267.3173    29.760432    78.751679    22.597243    25.601989 
     200    226.51418   -217.33298    216009.12    -18818.46    1317.3069   -20135.767    -399.4731    30.769246    78.754402    22.598681    25.614147 
     400     231.1622   -361.69861    216009.12   -18795.838    1344.3377   -20140.176   -914.76447    32.123235    78.753103    22.597943    25.618826 
     600    238.64347   -131.17036    216009.12   -18698.963    1387.8455   -20086.808    44.075619    32.502273     78.75407    22.599266    25.628066 
     800    240.42389   -260.45931    216009.12   -18676.918    1398.1997   -20075.117   -531.07995    33.525946    78.753348    22.601058     25.64435 
    1000    232.45144   -280.85535    216009.12   -18797.828    1351.8354   -20149.664   -628.05781    35.367801    78.750325    22.600123    25.630146 
    1200    240.52323   -248.59716    216009.12   -18751.055    1398.7774   -20149.833   -484.63352    35.903491    78.749695    22.599085    25.616709 
    1400    240.57237   -485.09363    216009.12   -18764.726    1399.0632   -20163.789   -1495.3879    36.618921    78.749033    22.599074    25.614847 
    1600    238.53712   -46.188501    216009.12   -18772.741    1387.2271   -20159.968    389.16096     37.15497    78.746482    22.597946    25.634586 
    1800    233.50944   -322.21081    216009.12   -18700.875    1357.9883   -20058.864   -805.13038    38.558263      78.7485    22.597715     25.63829 
    2000    246.75264   -182.04799    216009.12   -18666.462    1435.0049   -20101.467   -224.80525    40.218632    78.747579    22.598026    25.665122 
    2200    237.64161    -357.5607    216009.12   -18758.041    1382.0191    -20140.06   -926.73532    41.625016     78.74597    22.597432    25.665418 
    2400    237.74585   -475.38374    216009.12   -18704.462    1382.6254   -20087.088   -1434.5055    42.511448    78.744172    22.594649    25.666923 
    2600    229.76753    -409.3662    216009.12   -18724.761    1336.2269   -20060.988   -1134.7575    43.698437    78.743918    22.595833    25.659106 
    2800    241.85036   -100.01419    216009.12   -18656.908    1406.4954   -20063.403    123.48365    45.293466    78.744293    22.593936    25.660871 
    3000     240.1641    -232.6011    216009.12   -18651.653    1396.6888   -20048.342   -376.17645    47.709643    78.743814    22.592049    25.684049 
    3200    230.71953   -343.95652    216009.12   -18739.374    1341.7634   -20081.137   -882.34395    50.268098    78.742639    22.591658    25.692478 
    3400    234.13675   -367.57488    216009.12   -18707.453    1361.6364    -20069.09   -1014.3176     51.94377    78.743322    22.589318    25.703921 
    3600     235.5134   -488.15729    216009.12   -18723.314    1369.6424   -20092.957   -1456.5365    51.941367     78.74097    22.591266    25.715596 
    3800    238.39905   -174.51723    216009.12   -18681.513    1386.4241   -20067.937   -181.73735    53.457843    78.740561    22.590963     25.69222 
    4000    233.28646   -479.94921    216009.12   -18729.017    1356.6915   -20085.708   -1453.5986    54.868784    78.740505    22.589629    25.699623 
    4200    240.36381   -366.82506    216009.12   -18700.493    1397.8502   -20098.343   -1003.8741    55.560285    78.741761    22.589834    25.698584 
    4400    232.34782    -265.7145    216009.12   -18712.506    1351.2328   -20063.739   -556.87731    56.282988    78.742405    22.588597    25.686418 
    4600    228.19372   -346.59461    216009.12   -18774.528    1327.0744   -20101.602   -937.49164    56.943415    78.742553    22.588172      25.6738 
    4800    234.74238   -316.99791    216009.12    -18620.24    1365.1585   -19985.398   -796.22082    58.270182    78.742724    22.588585    25.648236 
    5000    236.26973    -320.9788    216009.12   -18675.651    1374.0409   -20049.692   -800.82614    58.679605    78.741978    22.587441    25.655324 
    5200    234.23324   -346.30324    216009.12   -18692.418    1362.1976   -20054.615   -911.45399     59.70101    78.742196    22.584858    25.633743 
    5400    230.48966   -378.94576    216009.12   -18735.484    1340.4265   -20075.911   -1063.0121    61.704046    78.744379    22.581815    25.652922 
    5600    229.53192   -477.47209    216009.12    -18749.12    1334.8567   -20083.977   -1437.2164    61.897425    78.745423    22.581359    25.689326 
    5800    229.55473   -250.50571    216009.12   -18694.604    1334.9894   -20029.593   -486.49866     62.61493    78.745962    22.583693    25.681186 
    6000    233.43541   -416.19493    216009.12   -18730.442    1357.5577       -20088   -1178.8985    64.982298    78.746834    22.584979    25.662506 
    6200    228.12854   -254.62991    216009.12   -18729.271    1326.6953   -20055.967   -473.88857    65.600153     78.74861    22.588231     25.64848 
    6400    234.61282   -253.93317    216009.12   -18727.538     1364.405   -20091.943   -511.11558    66.689777    78.747541     22.58878    25.664517 
    6600    230.38084   -367.99016    216009.12   -18761.517    1339.7937   -20101.311   -1038.1508    67.252922    78.746746    22.590629    25.693715 
    6800    237.49373   -107.61207    216009.12   -18734.198    1381.1592   -20115.357    146.28745    68.166169    78.745443    22.591827    25.684229 
    7000    240.81581    -224.7171    216009.12   -18717.582    1400.4789   -20118.061   -362.30802    70.438478    78.746396    22.592064    25.679347 
    7200    234.67244   -349.88845    216009.12   -18789.548    1364.7518     -20154.3   -944.40208    71.658891    78.746144     22.59188    25.686417 
    7400     235.9631   -214.78173    216009.12   -18775.238    1372.2577   -20147.496   -332.84793    72.704464    78.745112    22.592513    25.676168 
    7600    238.02093   -510.30638    216009.12   -18722.016    1384.2251   -20106.241   -1589.8423    73.723252    78.743697    22.590227    25.685727 
    7800    226.54703   -393.06583    216009.12   -18823.137     1317.498   -20140.635   -1080.1486    73.613308     78.74208    22.593567    25.685614 
    8000    237.43783    -302.5285    216009.12   -18698.653    1380.8341   -20079.487   -695.50473    73.950888    78.740677    22.591569    25.668172 
    8200    238.28546   -349.05557    216009.12   -18716.431    1385.7635   -20102.195   -888.91776     74.58746    78.742199      22.5918    25.662342 
    8400    240.92509   -236.29858    216009.12   -18658.287    1401.1144   -20059.401    -414.8065     74.92882    78.741572    22.592241     25.65425 
    8600    240.54672   -233.42317    216009.12   -18730.549     1398.914   -20129.463   -384.37951     76.70625    78.743588    22.595225    25.644003 
    8800    236.64837   -457.94587    216009.12   -18739.949    1376.2429   -20116.192   -1347.8309    77.668882    78.745354    22.595317    25.641682 
    9000      234.397   -133.73114    216009.12   -18724.334    1363.1499   -20087.484   -7.6472761    77.856934    78.745508    22.595363    25.653193 
    9200     234.2442   -393.49583    216009.12   -18666.102    1362.2613   -20028.364   -1077.2968    78.924542     78.74429    22.595175    25.660098 
    9400    234.26827   -225.19738    216009.12   -18685.997    1362.4012   -20048.398   -378.46217     79.87238    78.744128    22.594395    25.672382 
    9600    232.25819   -363.74336    216009.12   -18730.203    1350.7115   -20080.915   -943.12031    82.287921    78.742384    22.593153    25.683902 
    9800    241.59362   -331.86317    216009.12   -18637.706    1405.0023   -20042.708   -805.59395    84.177021    78.745914      22.5952    25.669041 
   10000     228.9648   -375.72609    216009.12   -18671.866    1331.5586   -20003.425   -984.73535     85.62384     78.74481    22.595429    25.659997 
   10200    238.67455   -239.79319    216009.12   -18623.437    1388.0263   -20011.463   -425.19619    87.104368    78.743463    22.591976     25.67395 
   10400    236.48363   -271.42409    216009.12   -18641.376    1375.2849   -20016.661   -539.63024    89.014504    78.744308    22.592377    25.657437 
   10600    229.49575   -143.91993    216009.12   -18732.075    1334.6464   -20066.721    -21.32905     91.00136     78.74577    22.593718    25.662454 
   10800     231.5896   -151.14854    216009.12   -18726.368    1346.8233   -20073.191   -59.198592    93.416899    78.745405    22.596927    25.656037 
   11000     233.8803   -346.99331    216009.12   -18741.671     1360.145   -20101.816   -915.48894    95.615692    78.744286    22.596932    25.647865 
   11200    235.17732   -300.93175    216009.12   -18754.251    1367.6879   -20121.939   -716.63058    96.953391     78.74235    22.596519    25.599474 
   11400    234.12921   -277.08693    216009.12   -18741.298    1361.5926    -20102.89   -589.47322    100.39089    78.741514     22.59823    25.609489 
   11600    238.42321   -399.84851    216009.12   -18664.596    1386.5646    -20051.16   -1095.8658    104.76556    78.742228    22.596583    25.590698 
   11800    235.21494   -516.33476    216009.12   -18691.797    1367.9067   -20059.703   -1632.7423    105.55182    78.741519    22.598756     25.57706 
   12000    238.56115    -229.7724    216009.12   -18706.495    1387.3668   -20093.862   -369.26382    107.34124    78.742071    22.601472    25.584803 
   12200    238.16497   -297.01489    216009.12   -18711.374    1385.0628   -20096.437   -666.48447    107.62172    78.742604    22.603508    25.561739 
   12400     236.0143   -381.71291    216009.12   -18739.718    1372.5554   -20112.273   -1014.8602    109.11559    78.740663    22.602874    25.566913 
   12600    237.67741   -209.46982    216009.12   -18681.363    1382.2273   -20063.591   -339.06429    111.16763    78.740269    22.601649    25.557149 
   12800    230.32637   -591.95132    216009.12   -18729.862    1339.4769   -20069.339   -1952.7476    114.09242    78.738557    22.601631    25.561482 
   13000    233.55853   -96.752664    216009.12   -18732.566    1358.2738   -20090.839    167.44582    115.95719    78.738291    22.600959    25.567142 
   13200     236.0806   -513.80343    216009.12   -18759.434     1372.941   -20132.375   -1541.4132     118.5212     78.73793    22.600037    25.573892 
   13400    227.22848    -235.7626    216009.12   -18837.219    1321.4609    -20158.68   -401.98491     118.7935    78.738929    22.601882    25.573365 
   13600    231.13884   -364.47842    216009.12    -18800.36    1344.2019   -20144.562    -929.1335    120.23405    78.741176    22.602754    25.580783 
   13800    236.56089   -274.48705    216009.12   -18756.877    1375.7341   -20132.612   -571.46833    121.62083    78.742923    22.604279    25.576969 
   14000    235.41353   -389.76633    216009.12   -18697.893    1369.0616   -20066.955   -1068.9642    121.15787    78.745015     22.60329    25.544575 
   14200    233.03137   -398.77002    216009.12   -18752.793     1355.208   -20108.001   -1134.6707    121.36695    78.745232    22.601941    25.532285 
   14400    237.16766   -396.82557    216009.12   -18794.881    1379.2629   -20174.144   -1101.8222    123.38221    78.745101    22.598514    25.541055 
   14600     227.5402   -379.16451    216009.12   -18783.856    1323.2738    -20107.13   -1008.6719    124.62484    78.747456    22.596773    25.554306 
   14800    232.72245   -275.68972    216009.12   -18762.319    1353.4115   -20115.731   -568.72919    124.58722    78.747582    22.595716    25.556059 
   15000    229.55795   -298.36115    216009.12    -18771.64    1335.0081   -20106.648   -664.90316     126.4678    78.747597    22.594803    25.541956 
   15200    241.27452   -197.55398    216009.12   -18739.113    1403.1465   -20142.259   -257.37973     126.8712    78.749778    22.595871    25.538472 
   15400    232.06003   -276.96668    216009.12   -18793.425    1349.5591   -20142.984   -571.35043    130.58829    78.748264    22.596407    25.525941 
   15600    240.32564   -380.46248    216009.12   -18634.957    1397.6282   -20032.586    -1040.042    135.10677    78.744003    22.597892    25.534603 
   15800     239.4942   -274.93438    216009.12   -18645.298     1392.793   -20038.091   -541.96055    138.96095    78.742764    22.597494    25.539413 
   16000    236.53629   -393.10723    216009.12   -18690.245    1375.5911   -20065.836   -1100.6325    141.25863    78.741719    22.598346    25.560239 
   16200     240.7208   -197.65548    216009.12   -18685.123    1399.9264   -20085.049   -310.63124    143.41892    78.740366    22.598835    25.574694 
   16400    239.28821    -369.7024    216009.12   -18728.075    1391.5951    -20119.67   -978.55961     143.8464     78.73993    22.598919     25.56217 
   16600    242.96559   -168.25367    216009.12   -18657.319    1412.9811     -20070.3   -135.29077    142.55547    78.736134    22.600384    25.568549 
   16800    235.79822   -357.70947    216009.12   -18690.243    1371.2988   -20061.542   -969.23464     143.4306    78.736783     22.60373    25.568398 
   17000    238.38696   -347.25404    216009.12   -18740.018    1386.3538   -20126.372   -862.27742    145.99285    78.737821     22.60249     25.57197 
   17200    233.63288   -281.80515    216009.12   -18761.833    1358.7062   -20120.539   -627.03763    148.08766    78.736203    22.602782    25.567123 
   17400    225.52532   -252.40297    216009.12   -18833.013    1311.5561    -20144.57   -534.93531    148.02596    78.734053    22.604608     25.58397 
   17600    228.70873    -312.5483    216009.12   -18753.833    1330.0695   -20083.902   -722.95756      147.072    78.731624    22.605928    25.584967 
   17800     232.4238    -408.0964    216009.12   -18790.414    1351.6746   -20142.089   -1167.9522    149.60326    78.729408    22.607497    25.590338 
   18000    227.74525    -478.6543    216009.12    -18751.07    1324.4663   -20075.536   -1420.9633    153.23867    78.726144    22.606027    25.598577 
   18200    233.93275   -346.10353    216009.12   -18782.545      1360.45   -20142.995   -887.29247    153.27761     78.72411    22.604838    25.576816 
   18400    233.75857     -189.323    216009.12   -18743.443    1359.4371   -20102.881   -247.09947    154.40631     78.72367    22.605138    25.559014 
   18600    233.80566    -324.0647    216009.12   -18728.353     1359.711   -20088.064   -792.25119    154.43959    78.721756    22.605191    25.545258 
   18800    234.76521   -429.64319    216009.12   -18764.267    1365.2913   -20129.558   -1277.4728    154.52595    78.719822    22.605247    25.546079 
   19000    238.17004   -198.03824    216009.12   -18706.102    1385.0922   -20091.194   -294.60753    153.86799    78.719208    22.605085    25.553605 
   19200    237.38468   -286.07576    216009.12   -18721.311    1380.5249   -20101.836   -678.64531    153.63093     78.72036     22.60393     25.56207 
   19400     239.9944   -417.24932    216009.12   -18663.085    1395.7019   -20058.787   -1159.0313    152.61406    78.721636     22.60304    25.541333 
   19600    242.45951   -359.46622    216009.12   -18639.286    1410.0379   -20049.324   -942.63372    153.46527    78.720548    22.602258    25.504272 
   19800    234.79447   -306.82522    216009.12   -18643.057    1365.4614   -20008.518   -687.52468    154.66323    78.717663    22.600741    25.526336 
   20000    236.95043   -345.80921    216009.12   -18666.965    1377.9995   -20044.964   -916.42418    155.85062    78.717696    22.600729       25.545 
   20200    234.85758   -181.90557    216009.12    -18763.85    1365.8285   -20129.679   -278.34622    157.21107    78.717512    22.598629    25.554801 
   20400    240.45127   -421.09928    216009.12   -18671.363    1398.3589   -20069.722   -1208.0847    159.05419    78.716453    22.592747    25.546097 
   20600    227.58144   -351.67401    216009.12   -18755.667    1323.5136    -20079.18   -888.66676    159.11595    78.716426    22.590566    25.529629 
   20800     235.1863    -334.5278    216009.12   -18695.875    1367.7401   -20063.615   -874.59511    159.46561    78.716223    22.587684    25.518659 
   21000    233.02054   -414.99106    216009.12   -18748.219     1355.145   -20103.364   -1122.0936    160.58041    78.714369     22.58737    25.520118 
   21200    234.71047   -277.29503    216009.12   -18708.728    1364.9729   -20073.701   -620.55904     160.7075     78.71619    22.588721    25.527486 
   21400    229.86034   -397.89859    216009.12   -18708.273    1336.7667    -20045.04    -1126.124    161.69902    78.718463    22.587905     25.53015 
   21600    239.16618   -385.68205    216009.12   -18636.132    1390.8854   -20027.017   -1104.0979    163.66258     78.71794    22.591901    25.529032 
   21800    234.97805   -83.158042    216009.12   -18786.175     1366.529   -20152.704    183.16954    161.97234    78.717374    22.593381     25.50933 
   22000    230.50555   -428.38833    216009.12   -18822.383     1340.519   -20162.902   -1279.4736    159.97828    78.716764    22.595117    25.510862 
   22200    231.57207   -354.18244    216009.12    -18840.83    1346.7214   -20187.551   -967.30627    159.35862    78.715637    22.598036    25.514409 
   22400    238.25362   -348.33219    216009.12   -18697.634    1385.5783   -20083.213   -861.76228    161.13825    78.715533    22.598882    25.538228 
   22600    236.89807   -314.77488    216009.12   -18725.651     1377.695   -20103.346   -706.43715    163.16756    78.715249    22.601739    25.527389 
   22800    242.66866   -274.83074    216009.12   -18704.869    1411.2543   -20116.124   -588.16704    163.45588     78.71543     22.60002     25.53976 
   23000    240.54724   -346.52294    216009.12   -18800.309     1398.917   -20199.226   -853.06518    164.24571    78.716416    22.600259    25.562975 
   23200    232.69561   -306.08625    216009.12   -18731.032    1353.2554   -20084.287   -724.63463    163.72244    78.717373    22.599725     25.57189 
   23400    236.99478    -353.9515    216009.12   -18738.198    1378.2575   -20116.455   -945.05371    164.12817    78.716207    22.601362    25.575618 
   23600    234.85694   -388.10631    216009.12   -18662.622    1365.8247   -20028.447   -1072.3053    165.36349    78.715938    22.601226    25.593692 
   23800    237.68753   -502.78966    216009.12   -18667.846    1382.2862   -20050.132   -1548.4115    167.69877    78.716951    22.600527    25.617841 
   24000    237.63837   -243.43849    216009.12   -18691.724    1382.0003   -20073.725   -481.76313    167.08662     78.71864    22.600681    25.608919 
   24200    242.57679   -436.74857    216009.12   -18716.331      1410.72   -20127.051   -1295.1528    169.69411     78.71977    22.602197     25.62811 
   24400    235.01371   -165.30311    216009.12   -18775.987    1366.7364   -20142.724   -105.93338    170.63298    78.720778    22.602113    25.624895 
   24600    231.89466   -390.96668    216009.12   -18801.534    1348.5974   -20150.131   -1104.4061    171.49944    78.719688    22.603193    25.622615 
   24800    232.20208   -449.16279    216009.12   -18796.534    1350.3852    -20146.92   -1304.6763      173.783    78.720201    22.604096    25.613758 
   25000     231.4124   -293.98755    216009.12   -18780.019    1345.7928   -20125.812   -698.92428    173.94312    78.720421    22.603399    25.597966 
   25200    226.33582    -424.1007    216009.12    -18894.23    1316.2696   -20210.499   -1234.8489    174.73376     78.72313    22.604729    25.581008 
   25400     232.1827   -347.22902    216009.12   -18782.717    1350.2725    -20132.99   -902.66296    175.78028    78.724854    22.604896    25.577519 
   25600    244.08167   -258.36875    216009.12   -18605.933    1419.4717   -20025.405   -506.51357    176.39781    78.725289    22.602374    25.593735 
   25800     242.2591   -411.55342    216009.12    -18671.99    1408.8724   -20080.863   -1130.1838    178.23449    78.724592    22.599763    25.601868 
   26000    238.23225    -277.6996    216009.12   -18708.643    1385.4541   -20094.097   -640.83134    179.60866    78.724587    22.599901    25.599253 
   26200     229.4068   -385.21121    216009.12   -18699.049    1334.1291   -20033.178   -1057.7231    181.99459     78.72448     22.60056    25.594033 
   26400    234.66707   -301.66052    216009.12   -18704.342    1364.7205   -20069.063   -740.98647    183.96857    78.723515    22.603073    25.580888 
   26600    247.01673    -265.1036    216009.12   -18663.354    1436.5407   -20099.895   -509.13468    185.29934    78.718764    22.602605    25.564098 
   26800    235.59503   -306.61298    216009.12   -18674.673    1370.1171    -20044.79   -752.80927    187.57738    78.718561    22.601816    25.563596 
   27000    234.47425   -481.80354    216009.12   -18607.876    1363.5992   -19971.475   -1462.9669    187.12725    78.715956    22.602037    25.550543 
   27200    235.39356   -299.38762    216009.12   -18669.119    1368.9455   -20038.064   -718.03764    189.01766    78.716552     22.60243    25.548851 
   27400    235.05692   -322.28459    216009.12   -18629.873    1366.9877   -19996.861   -785.52766    191.03967    78.717518    22.602302    25.562368 
   27600    234.70639   -326.34008    216009.12    -18745.29    1364.9492   -20110.239   -792.72752    194.67432    78.718105     22.60103     25.57896 
   27800    232.21264   -383.20017    216009.12   -18662.908    1350.4466   -20013.355   -1056.4964    198.14626     78.71592    22.598294    25.573754 
   28000    234.45247    -415.3159    216009.12   -18722.596    1363.4725   -20086.068   -1189.5802    198.26967    78.717637    22.596376    25.536178 
   28200    227.24595   -113.44439    216009.12   -18706.141    1321.5625   -20027.704    84.261163    198.83804    78.718417    22.597931    25.528131 
   28400    233.81895   -387.17251    216009.12   -18712.152    1359.7882    -20071.94   -1029.0706     200.4169    78.719098    22.597626    25.531166 
   28600    233.67647    -152.3739    216009.12   -18748.267    1358.9596   -20107.226    -65.14067    200.17541    78.720525    22.600946    25.519405 
   28800    229.90598   -319.04555    216009.12   -18771.282    1337.0321   -20108.314   -720.63772    200.32917     78.72031    22.602268    25.518245 
   29000    234.15528   -291.47775    216009.12   -18760.691    1361.7442   -20122.435   -698.62159    199.79312    78.718704    22.600921    25.507828 
   29200    237.95656   -185.70745    216009.12   -18711.762    1383.8507   -20095.612   -200.33571     201.3508    78.717992    22.602758    25.497952 
   29400    239.36236   -399.95751    216009.12   -18730.958    1392.0263   -20122.984   -1113.7481    201.23768    78.717129    22.604341       25.497 
   29600    232.54167   -409.47239    216009.12   -18742.617    1352.3601   -20094.977   -1122.0473    203.93323    78.716391    22.606431    25.473381 
   29800    234.86984   -446.15336    216009.12   -18829.273    1365.8998   -20195.172   -1335.7851    204.60382    78.719323    22.606973    25.472945 
   30000    233.17412   -426.09028    216009.12   -18834.238    1356.0382   -20190.277   -1193.7772    204.53306    78.719767    22.607228    25.451055 
   30200    229.91769   -295.74928    216009.12   -18821.997    1337.1002   -20159.097   -671.23998    205.66585     78.72046    22.608259    25.444531 
   30400    235.27876   -413.37512    216009.12    -18814.06    1368.2779   -20182.338   -1177.1432    205.20171     78.71922    22.608355    25.452739 
   30600    226.88678   -365.75562    216009.12   -18855.193    1319.4738   -20174.667   -980.54856    206.93005    78.724166    22.607952    25.441307 
   30800     236.3997   -318.20615    216009.12   -18797.258    1374.7967   -20172.055   -771.58369    208.92249    78.724183    22.607318    25.420826 
   31000    231.91773    -369.3093    216009.12   -18767.457    1348.7316   -20116.188   -937.58411    210.35296    78.723395    22.607702    25.436341 
   31200    233.44039   -179.05329    216009.12   -18758.751    1357.5867   -20116.338   -188.84579    210.73974    78.723343    22.607044    25.457586 
   31400    239.55438   -395.56345    216009.12   -18695.137     1393.143    -20088.28   -1077.2081    213.13917    78.719978    22.608416    25.472088 
   31600    230.68795   -321.57872    216009.12   -18737.026    1341.5797   -20078.606   -792.37844    213.81654    78.723151     22.60802    25.477843 
   31800     239.1102    -232.5218    216009.12   -18674.585    1390.5598   -20065.145   -377.75951    214.22873    78.723034    22.608754    25.483449 
   32000    225.80501   -346.25132    216009.12   -18763.511    1313.1827   -20076.694   -869.89747    216.95709    78.722776    22.609058    25.486986 
   32200    233.58925   -421.93923    216009.12   -18741.064    1358.4524   -20099.516   -1213.2196    218.16451     78.72103    22.609184    25.488683 
   32400    234.98546   -372.29192    216009.12   -18746.127    1366.5721     -20112.7   -997.68047    218.92374    78.721653    22.607536    25.472739 
   32600    237.04446   -327.30863    216009.12   -18679.883    1378.5464   -20058.429   -827.30413    220.44762    78.721269     22.60631    25.465811 
   32800    234.52537   -415.66236    216009.12   -18685.651    1363.8965   -20049.547   -1198.5307    223.10108    78.722886    22.604158    25.433217 
   33000    232.24977   -428.63606    216009.12   -18661.341    1350.6626   -20012.004   -1179.1689    226.34407    78.724577    22.603827    25.430342 
   33200    230.68471   -264.48065    216009.12   -18685.442    1341.5609   -20027.003   -593.58487    230.32307    78.723126      22.6025    25.424242 
   33400    231.86211   -241.32872    216009.12   -18765.235    1348.4081   -20113.643   -502.72307    230.59798    78.722013     22.60301    25.416484 
   33600     228.6764   -177.00323    216009.12   -18776.937    1329.8814   -20106.819   -228.56862    230.75324    78.721172    22.605911    25.437083 
   33800    244.37102    -255.6047    216009.12   -18636.451    1421.1544   -20057.605   -499.63414    232.15124    78.720837    22.606075    25.452341 
   34000    231.85793   -281.16073    216009.12   -18745.272    1348.3838   -20093.656   -644.15636    230.33557    78.722446    22.606033     25.44992 
   34200    235.25476   -247.92812    216009.12   -18715.764    1368.1383   -20083.903   -510.52798    230.18489    78.721013    22.607022    25.443592 
   34400    227.50785   -388.43918    216009.12   -18763.944    1323.0857    -20087.03   -1031.7765    230.70983    78.721756    22.608934    25.414982 
   34600    236.74419   -138.01577    216009.12   -18635.617    1376.8002   -20012.417   -6.1438877    230.87617    78.722328    22.609151    25.404856 
   34800    231.38707   -347.69473    216009.12   -18685.564    1345.6455   -20031.209   -888.88284    232.76717    78.723661    22.609891    25.401821 
   35000    232.60883   -322.05377    216009.12   -18698.474    1352.7507   -20051.224   -842.80221    236.27386    78.723311    22.610309    25.402348 
   35200     238.1691     -397.009    216009.12   -18629.096    1385.0868   -20014.183   -1071.2201    236.54345    78.725009    22.608076    25.380733 
   35400    232.99712   -224.64262    216009.12   -18637.386    1355.0088   -19992.395   -370.72405    235.87083     78.72577    22.605264    25.397696 
   35600    236.54388   -286.28841    216009.12   -18675.444    1375.6352   -20051.079   -644.01054    235.97993    78.726034    22.606788    25.400464 
   35800    240.41894   -341.40563    216009.12   -18632.003    1398.1709   -20030.174   -890.58762    233.80787    78.725588    22.605335    25.402736 
   36000    233.04551   -342.24961    216009.12   -18706.937    1355.2903   -20062.227   -870.61527    232.85847    78.724727      22.6064    25.392278 
   36200    230.96679   -337.00568    216009.12   -18700.611    1343.2013   -20043.812    -832.7273    234.02629    78.724742    22.607073    25.390923 
   36400    239.45512   -373.97562    216009.12   -18712.114    1392.5657   -20104.679   -987.12585    236.17917    78.721151    22.607081    25.414897 
   36600    235.93157   -425.98803    216009.12   -18672.795    1372.0743   -20044.869   -1209.1246    237.44622    78.720026    22.606761    25.398712 
   36800    231.62195   -218.71551    216009.12   -18740.263    1347.0115   -20087.275   -327.33631     239.9302    78.717404      22.6074    25.420502 
   37000     227.2126   -388.37727    216009.12   -18692.895    1321.3686   -20014.263   -1051.2191    242.29189     78.71596    22.607755    25.431592 
   37200    229.00851   -258.25973    216009.12   -18715.563    1331.8128   -20047.376   -488.17042    243.06446    78.716251    22.607388    25.429118 
   37400    236.08457   -144.70445    216009.12   -18712.985    1372.9641   -20085.949   -32.788743    243.05093    78.713192     22.61102     25.46387 
   37600    237.34487   -326.16466    216009.12   -18723.769    1380.2934   -20104.063   -770.73726    243.25891    78.711998    22.611601    25.461507 
   37800    227.58808   -325.32621    216009.12   -18768.662    1323.5522   -20092.214    -761.9138    243.65609    78.710109    22.613597    25.463583 
   38000    241.03739   -240.08855    216009.12   -18694.438    1401.7675   -20096.206   -422.68136    245.36987    78.707768    22.611906    25.461356 
   38200    239.98667   -341.36438    216009.12   -18712.993     1395.657    -20108.65    -835.8565     244.9295    78.705372    22.607708    25.456773 
   38400    233.37135   -199.73157    216009.12   -18695.868    1357.1852   -20053.053   -349.81451    247.04905    78.703237    22.608172    25.458109 
   38600    233.46155   -414.62672    216009.12   -18728.372    1357.7098   -20086.082   -1161.9517    248.53151    78.704253    22.610602    25.460541 
   38800    236.18656   -353.87247    216009.12   -18718.489    1373.5572   -20092.047   -946.67524    249.81536    78.704759    22.612411    25.456271 
   39000    238.49477   -360.82882    216009.12   -18664.386    1386.9807   -20051.366   -958.64023    252.22968    78.703554    22.614243    25.455057 
   39200    228.74235   -207.17391    216009.12   -18779.183    1330.2649   -20109.448   -289.27859    253.96826    78.705966    22.613737    25.441256 
   39400    236.30455    -343.0997    216009.12   -18750.394    1374.2434   -20124.637   -900.56398    256.49123    78.702956    22.613137    25.436933 
   39600    240.13981   -299.29964    216009.12   -18734.914    1396.5475   -20131.462   -679.55165    257.11302    78.703323    22.613533     25.43147 
   39800    226.00276   -326.62789    216009.12   -18767.218    1314.3327    -20081.55    -846.5575      257.966    78.705049    22.613647    25.431165 
   40000    235.61057   -277.67621    216009.12   -18722.162    1370.2075   -20092.369   -570.28507    257.83726    78.705499     22.60984    25.452022 
   40200    237.62998   -420.25801    216009.12   -18726.436    1381.9515   -20108.388   -1218.9439    259.60936    78.707022    22.610847     25.45592 
   40400    237.35106   -398.55019    216009.12   -18752.304    1380.3294   -20132.633   -1139.5064    260.97209     78.70745    22.611171    25.449726 
   40600    240.55182   -364.18344    216009.12   -18699.332    1398.9436   -20098.276   -974.62355    261.94219    78.707834    22.610978    25.441327 
   40800    235.94851   -232.34464    216009.12   -18802.471    1372.1728   -20174.644    -386.3035    261.55262    78.708548    22.610581    25.438086 
   41000    228.40037   -317.71905    216009.12   -18748.461    1328.2761   -20076.737   -730.79237    262.78211    78.709094     22.61305    25.420424 
   41200    236.48759   -330.06332    216009.12   -18669.139    1375.3079   -20044.447   -838.73659    263.65236    78.710538    22.613953    25.416215 
   41400     242.3857   -246.04781    216009.12   -18720.005    1409.6087   -20129.613   -448.62266    262.92664    78.711953    22.615612    25.417349 
   41600    234.51034   -350.52078    216009.12   -18716.621     1363.809    -20080.43   -900.55376    263.33787    78.713886    22.615253    25.437396 
   41800    236.89307    -285.7314    216009.12   -18692.947     1377.666   -20070.613   -634.42574    264.71829     78.71476    22.614755    25.443701 
   42000    232.19337   -332.83547    216009.12   -18755.303    1350.3345   -20105.637   -865.10634    265.24447    78.717676    22.612491    25.449708 
   42200    233.23366   -373.73116    216009.12   -18788.587    1356.3845   -20144.972   -1046.3532    268.04483    78.720908    22.610452    25.453483 
   42400    235.34113   -165.85544    216009.12   -18751.083    1368.6405   -20119.724   -94.588763    268.01194    78.720986    22.608274    25.444521 
   42600    237.21046   -288.57115    216009.12   -18783.957    1379.5117   -20163.469   -615.65737    269.87912    78.719611    22.609379    25.428828 
   42800    234.25767   -304.95085    216009.12   -18749.262    1362.3397   -20111.602   -663.46665     270.5775    78.717333    22.607413    25.397519 
   43000    238.06459   -431.79516    216009.12   -18763.176     1384.479   -20147.655   -1247.2146    270.26055    78.716389    22.608192    25.387444 
   43200    236.62686   -434.59921    216009.12   -18772.271    1376.1178   -20148.388   -1262.2365    272.21384    78.714926     22.60652    25.371006 
   43400    233.71447   -284.25801    216009.12    -18758.09    1359.1806   -20117.271    -569.0639    272.72888    78.712379    22.609173    25.386818 
   43600     235.4128   -152.43236    216009.12   -18768.894    1369.0574   -20137.952   -101.88152    273.18916    78.712449    22.607176    25.365705 
   43800    232.04118    -364.4485    216009.12   -18797.835    1349.4495   -20147.284   -913.88646    274.19027     78.71469    22.605197    25.384973 
   44000    237.78542    -283.2898    216009.12   -18806.219    1382.8554   -20189.075   -633.57662    275.87589    78.716635    22.604643    25.400063 
   44200    229.77005   -318.31656    216009.12   -18787.359    1336.2416     -20123.6   -750.29098    276.44382    78.719568    22.605738    25.390586 
   44400    238.61543    -299.0949    216009.12   -18813.036    1387.6824   -20200.718    -645.1774    277.71762    78.721979    22.608884    25.377125 
   44600    226.00168   -328.32233    216009.12   -18811.033    1314.3264   -20125.359   -833.54977     276.4244    78.722421    22.607299    25.357155 
   44800    228.76958   -285.74538    216009.12   -18785.531    1330.4233   -20115.954   -627.54075    276.71178    78.724154    22.608721    25.344071 
   45000     231.8401   -356.39677    216009.12   -18745.841    1348.2801   -20094.121   -953.04421    277.50683    78.726823    22.608567     25.34617 
   45200    234.93546   -288.19242    216009.12   -18688.187    1366.2813   -20054.468   -664.70421    278.49564    78.726025    22.607073    25.346949 
   45400     234.2407   -432.36088    216009.12   -18783.102    1362.2409   -20145.343   -1264.1738    279.79253    78.727835    22.608388    25.366715 
   45600     234.0263   -339.57143    216009.12   -18736.876    1360.9941    -20097.87   -883.50365    281.41561    78.728573    22.607989    25.352137 
   45800    232.12312   -279.14685    216009.12   -18753.015     1349.926   -20102.941   -578.44878    281.65874    78.728409    22.606489    25.338159 
   46000    239.61628   -187.37329    216009.12   -18671.486    1393.5029   -20064.989   -213.70925    282.82311    78.729653    22.604363    25.338268 
   46200    237.85843   -289.24983    216009.12   -18640.741    1383.2801   -20024.021   -689.66202    284.40447    78.731572    22.603303    25.320389 
   46400    232.18463   -348.83178    216009.12   -18703.443    1350.2837   -20053.727   -910.58684    286.28275    78.732144    22.603827    25.284214 
   46600    239.54567   -238.05483    216009.12   -18672.311    1393.0923   -20065.403   -479.04164    287.06923     78.73323    22.605174    25.268251 
   46800      236.867   -482.03532    216009.12   -18677.368    1377.5143   -20054.882   -1494.3399    288.63579    78.736046    22.606759    25.290741 
   47000    234.97518   -350.49518    216009.12   -18704.226    1366.5123   -20070.738   -922.48835    289.19669    78.737785    22.605016    25.291959 
   47200    228.26463   -373.64728    216009.12   -18788.134    1327.4867   -20115.621   -1040.7618    289.75178     78.73925    22.603729    25.299322 
   47400    234.43335   -196.23727    216009.12   -18747.991    1363.3613   -20111.352   -216.73923    290.66328    78.740605    22.605599    25.312103 
   47600    233.66115   -405.50428    216009.12   -18777.705    1358.8705   -20136.575   -1131.9599    292.64941    78.737109    22.608375    25.285384 
   47800    233.87236   -352.40929    216009.12   -18735.045    1360.0989   -20095.144   -944.46275    293.54023    78.736514    22.610383    25.296761 
   48000    234.25204   -235.83721    216009.12   -18751.604    1362.3069   -20113.911   -416.52575    292.79862    78.734817    22.611822    25.278247 
   48200    230.65869   -441.24604    216009.12   -18730.806    1341.4095   -20072.216   -1307.9897    291.58736    78.729362    22.610848    25.253232 
   48400    229.62782   -274.02881    216009.12   -18718.667    1335.4144   -20054.081   -588.90218    292.65346    78.726973    22.611303     25.26435 
   48600    230.53202   -391.60959    216009.12   -18801.124    1340.6729   -20141.797   -1047.9762     295.2792    78.724156    22.611583    25.250888 
   48800    232.94433   -221.83493    216009.12   -18773.151    1354.7018   -20127.853   -384.60838     295.7696    78.720812    22.611548    25.243406 
   49000     232.5121   -275.95953    216009.12    -18738.99    1352.1882   -20091.178   -571.86164    297.70945    78.716291    22.613006    25.242926 
   49200    241.10725   -302.48998    216009.12   -18696.276    1402.1738    -20098.45   -679.99628    298.98354     78.71548    22.615264    25.223634 
   49400    235.67991   -203.37186    216009.12   -18762.288    1370.6107   -20132.898   -216.72561    300.01321     78.71292    22.618203    25.237702 
   49600    238.81052   -302.00206    216009.12   -18780.784     1388.817   -20169.601     -691.458    299.47963    78.710206    22.617892     25.25507 
   49800    236.52158   -256.39844    216009.12   -18787.712    1375.5055   -20163.217   -540.18071    302.44425    78.711494    22.616217    25.293665 
   50000    233.70502   -348.22143    216009.12   -18781.728    1359.1257   -20140.854   -876.97225    301.34611    78.711486    22.614504    25.298913 
   50200    239.22717   -281.03574    216009.12   -18719.693    1391.2401   -20110.933   -588.28369     303.4493    78.709645    22.613709    25.317472 
   50400    234.26778   -386.17229    216009.12   -18746.157    1362.3984   -20108.555   -1054.9532     303.6121    78.706532    22.611868    25.279421 
   50600     244.3903   -255.31722    216009.12   -18668.449    1421.2665   -20089.715   -474.58328    304.66074    78.706022     22.61429    25.272746 
   50800    226.72282   -369.28089    216009.12    -18793.72    1318.5203    -20112.24   -939.32795    307.39784    78.706976    22.615186    25.261999 
   51000    237.51236   -278.17629    216009.12   -18717.654    1381.2675   -20098.921   -538.51734    308.06492    78.703949    22.612747    25.263796 
   51200    235.13408   -201.14682    216009.12    -18744.34    1367.4365   -20111.777   -329.03818    309.09646    78.701907    22.610956    25.255547 
   51400    234.02016   -297.49786    216009.12   -18710.384    1360.9584   -20071.342   -699.47821    310.19444    78.698775    22.608503    25.256127 
   51600    230.02693   -312.84758    216009.12   -18756.425    1337.7355    -20094.16   -766.49943     309.8843    78.701487    22.606563    25.235445 
   51800    231.39361   -153.51367    216009.12   -18662.912    1345.6835   -20008.595   -44.675543    308.82565    78.701852    22.607454    25.227712 
   52000    231.59524   -337.09196    216009.12   -18772.353    1346.8561   -20119.209   -835.15175    311.31647    78.702015    22.604452    25.243137 
   52200    227.09499   -193.44744    216009.12   -18816.376    1320.6847   -20137.061   -252.70325    311.87991    78.701981    22.602209    25.253523 
   52400      227.166   -479.13257    216009.12   -18853.301    1321.0976   -20174.399   -1479.2544    312.90163    78.700915     22.60156    25.246767 
   52600    235.76321   -190.47044    216009.12   -18762.672    1371.0952   -20133.768   -251.66787    314.01298    78.700161    22.602476     25.23676 
   52800     239.7088    -454.1698    216009.12   -18715.597     1394.041   -20109.638   -1403.7976    313.47901     78.70056    22.604432    25.232569 
   53000    240.94532    -316.4447    216009.12   -18677.468    1401.2321     -20078.7   -815.85962    316.29879    78.697925    22.605016    25.236345 
   53200    230.82044   -230.20679    216009.12   -18786.228    1342.3502   -20128.579   -420.06015    314.81284     78.69576    22.607839    25.241695 
   53400    233.46674   -241.06601    216009.12   -18754.632    1357.7399   -20112.372   -421.52774    315.98256    78.697536    22.609926    25.241086 
   53600    236.54701   -323.41294    216009.12   -18790.614    1375.6534   -20166.268    -787.4198    318.44009    78.698856    22.609212    25.226515 
   53800    234.53598   -314.75764    216009.12   -18764.979    1363.9582   -20128.937   -749.70903    318.98565    78.697982    22.610792    25.207074 
   54000    242.49435   -347.09375    216009.12   -18760.728    1410.2406   -20170.969    -908.6297    321.59786    78.697124    22.609385    25.212331 
   54200     235.4567    -342.7859    216009.12   -18718.751    1369.3126   -20088.064   -906.78138    321.99246    78.698181    22.613122    25.222861 
   54400    241.56478   -161.80395    216009.12   -18693.664    1404.8346   -20098.499   -112.68652    322.29874    78.697405    22.612179    25.223526 
   54600    237.47441   -230.91035    216009.12   -18751.586    1381.0468   -20132.632   -370.47775    322.24543    78.697476    22.611488    25.236227 
   54800    238.65438   -230.58521    216009.12    -18746.05     1387.909   -20133.958   -362.54279    323.43446    78.698576    22.612472    25.224971 
   55000    237.29244   -355.61798    216009.12    -18699.34    1379.9885   -20079.328   -929.71296    324.20572    78.698909    22.611647    25.220968 
   55200    237.43344   -414.66136    216009.12   -18863.819    1380.8085   -20244.627   -1190.7125    325.79877    78.697535    22.610896    25.237944 
   55400    230.01379   -242.98376    216009.12   -18828.025    1337.6591   -20165.684   -436.78129    326.54152    78.695706    22.610067    25.268334 
   55600     236.4092   -304.79788    216009.12   -18797.988     1374.852    -20172.84   -739.02248    328.34115    78.694342    22.607174    25.280078 
   55800    242.76208   -350.15474    216009.12   -18682.366    1411.7975   -20094.164   -895.56767    328.58117    78.694644    22.606367    25.277053 
   56000    235.39171   -215.46564    216009.12   -18763.574    1368.9347   -20132.509   -303.78724    328.13292    78.695705    22.607816    25.232844 
   56200     238.9412   -363.36511    216009.12   -18748.159     1389.577   -20137.736   -975.94751    328.60579    78.697257    22.607339    25.246607 
   56400    231.14719   -366.92813    216009.12   -18817.805    1344.2504   -20162.055   -958.90773    329.92816    78.696665    22.606731     25.26565 
   56600    227.54639   -211.64703    216009.12   -18866.532    1323.3097   -20189.842   -319.87679    331.74216     78.69944    22.603564    25.271913 
   56800    240.98019   -410.99997    216009.12   -18782.619    1401.4348   -20184.053   -1180.4328    332.70594    78.697912    22.601456    25.276744 
   57000    233.10528   -323.20805    216009.12   -18881.144    1355.6378   -20236.782   -838.76929    333.29646    78.696854    22.600103    25.282199 
   57200    235.42561    -577.8637    216009.12    -18769.49    1369.1319   -20138.622   -1859.8483    335.14892    78.695436    22.599269    25.287031 
   57400    234.70035   -145.37228    216009.12   -18814.652    1364.9141   -20179.566   -55.295885    335.32968    78.699028    22.598231    25.319181 
   57600    222.45886   -236.15343    216009.12   -18841.358     1293.723   -20135.081   -439.37862    335.72104     78.69769    22.596343     25.32044 
   57800    229.55945   -335.65518    216009.12   -18780.269    1335.0168   -20115.286   -845.20795    337.71153    78.699105    22.592718    25.328182 
   58000    231.69675   -269.90623    216009.12   -18762.932    1347.4464   -20110.378   -558.68626    338.76397     78.69733    22.592756    25.338184 
   58200    240.40557   -271.82264    216009.12   -18743.192    1398.0931   -20141.285   -606.24761    339.07092    78.695667    22.594156    25.345437 
   58400    238.80795   -310.45622    216009.12   -18762.207    1388.8021   -20151.009   -745.30816    338.60748    78.696303    22.593894    25.351819 
   58600    228.78962   -292.64332    216009.12   -18801.704    1330.5398   -20132.244    -653.7371     340.3755    78.693543    22.595323    25.361596 
   58800    235.02595   -359.60939    216009.12   -18785.752    1366.8076    -20152.56   -967.83416    341.81068     78.69324    22.594461    25.359538 
   59000    234.55507    -264.3499    216009.12   -18737.412    1364.0692   -20101.481   -541.39719    341.60358     78.69154    22.591932    25.364474 
   59200    234.36262   -209.22725    216009.12   -18795.141      1362.95   -20158.091   -324.03651    343.82163    78.692463    22.591126    25.363993 
   59400    235.35726   -372.03867    216009.12   -18783.904    1368.7344   -20152.638   -1019.5816    346.17353    78.692937     22.59174    25.358964 
   59600     224.8911   -162.00287    216009.12   -18838.592    1307.8678    -20146.46   -97.019055    345.60209    78.693977    22.592899     25.36166 
   59800    235.77669    -397.4665    216009.12   -18814.113    1371.1736   -20185.287   -1113.7148    349.42959    78.692761     22.59242    25.365262 
   60000    234.38515   -464.39358    216009.12   -18803.368     1363.081   -20166.449   -1365.7301    349.29905    78.690874     22.59188    25.380328 
   60200    231.05913   -417.67548    216009.12   -18824.556    1343.7383   -20168.294   -1170.7326    349.31373    78.690088    22.592584    25.391616 
   60400    233.18499   -420.96599    216009.12   -18767.189    1356.1014    -20123.29   -1193.2685    351.04211    78.690689    22.592548     25.40203 
   60600     239.1869   -288.89932    216009.12   -18718.209    1391.0058   -20109.215   -601.08549    350.90135    78.689007    22.595226    25.399457 
   60800    242.84165   -430.90767    216009.12   -18707.395    1412.2603   -20119.655   -1202.6604    352.64403    78.687639     22.59443    25.416292 
   61000    234.40912   -392.42097    216009.12     -18806.5    1363.2204    -20169.72   -1108.5099    352.57325    78.689762    22.591399     25.42666 
   61200    236.70321   -227.24563    216009.12     -18762.1    1376.5618   -20138.662   -367.90603    352.59861    78.690012     22.59074    25.414711 
   61400    235.20606   -263.58956    216009.12   -18807.835    1367.8551    -20175.69    -540.2132    353.85449    78.689741    22.590473    25.414689 
   61600    232.54811    -299.5069    216009.12   -18841.602    1352.3976       -20194   -728.52224    354.24414    78.690786    22.590882    25.413307 
   61800    232.27745    -329.2517    216009.12   -18870.626    1350.8236   -20221.449   -826.16158    356.37391    78.688941    22.594104    25.409092 
   62000    239.22858   -264.30276    216009.12    -18797.01    1391.2482   -20188.258   -532.46026    356.08118     78.68918    22.593381    25.413775 
   62200    239.90702   -278.85182    216009.12    -18781.04    1395.1937   -20176.233   -599.49706    357.33204    78.692788    22.591125    25.418499 
   62400    236.38897   -382.26397    216009.12   -18779.879    1374.7343   -20154.614   -1069.5788    359.58769    78.696076    22.591778    25.420411 
   62600    232.45823   -323.38956    216009.12    -18814.76    1351.8749   -20166.635   -747.63253    360.02674    78.698684     22.59662    25.427466 
   62800    227.86396   -261.05371    216009.12   -18886.102    1325.1566   -20211.259   -519.15533    360.91645    78.700549    22.595064     25.40516 
   63000    240.88486   -329.86213    216009.12   -18812.356    1400.8804   -20213.237   -822.00861    361.20638     78.70316    22.596301    25.390205 
   63200    236.19724   -421.07304    216009.12   -18829.786    1373.6193   -20203.405   -1215.1933    361.24972    78.706213    22.597948    25.373724 
   63400    228.15148   -425.34548    216009.12   -18866.983    1326.8287   -20193.812   -1240.6563    361.82717      78.7069    22.596327    25.392244 
   63600    230.65058   -288.91393    216009.12   -18851.273    1341.3624   -20192.635   -627.24669    362.64852    78.706357    22.594566    25.412258 
   63800    233.87516    -457.9787    216009.12   -18889.821    1360.1151   -20249.936   -1362.9558    365.57371    78.706648    22.595469    25.408513 
   64000     236.7104   -268.73845    216009.12    -18800.41    1376.6036   -20177.013   -599.73019    366.45912    78.709201    22.598101    25.428711 
   64200    235.21684   -261.65715    216009.12   -18823.972    1367.9177    -20191.89   -533.18628    367.08835    78.712712    22.596316    25.436518 
   64400    234.47024   -377.51488    216009.12   -18832.999    1363.5759   -20196.575   -1032.8054    367.88569    78.711107    22.594714    25.450537 
   64600    234.31074   -343.03099    216009.12   -18852.081    1362.6483    -20214.73   -891.29459    369.07359    78.710991    22.593719    25.493916 
   64800    234.35636   -501.61095    216009.12   -18835.693    1362.9136   -20198.606   -1570.3742    370.26169    78.710469    22.592942    25.501796 
   65000    235.89484   -461.22682    216009.12   -18776.815    1371.8607   -20148.675    -1392.057    371.83815    78.708655    22.590162    25.501686 
   65200    236.52898   -242.06666    216009.12    -18826.35    1375.5486   -20201.899   -437.58363    371.72188    78.712107    22.589301    25.480507 
   65400    234.38588   -264.79315    216009.12   -18847.416    1363.0852   -20210.501     -562.745    372.78045    78.712094    22.588148    25.482396 
   65600    236.28508   -376.88695    216009.12   -18810.834    1374.1301   -20184.964   -1032.6438    372.23987    78.711359    22.585352     25.49498 
   65800    233.75853   -240.15259    216009.12   -18800.486    1359.4369   -20159.923   -421.77817    372.39152    78.713574    22.583239    25.470706 
   66000    234.51156   -291.23527    216009.12   -18819.025    1363.8162   -20182.841   -641.20417    374.83887    78.712515    22.578992     25.46689 
   66200    229.07129   -346.16618    216009.12   -18852.989    1332.1779   -20185.167   -917.96137    375.29509     78.71623    22.578322     25.48159 
   66400    231.68332   -406.20879    216009.12   -18832.461    1347.3683   -20179.829   -1174.8701    375.84753    78.718679    22.577272    25.507172 
   66600    229.51968    -354.0707    216009.12   -18835.805    1334.7856   -20170.591   -902.90811    375.67241    78.721614    22.577401    25.506633 
   66800    229.90173   -262.82398    216009.12   -18857.581    1337.0074   -20194.588   -535.49364    376.33767    78.721927    22.576828    25.507085 
   67000    229.61574   -477.49929    216009.12   -18917.114    1335.3442   -20252.459   -1436.0126    380.46065    78.722036    22.578618    25.512155 
   67200    235.63297    -278.8458    216009.12   -18860.518    1370.3378   -20230.856   -616.53987     377.7499    78.725262    22.576286    25.540836 
   67400    239.40754   -460.05078    216009.12   -18840.419     1392.289   -20232.708   -1343.5845    379.51486    78.726249    22.573185    25.561818 
   67600    232.89523   -191.83948    216009.12    -18772.56    1354.4163   -20126.977   -225.50983    379.23172    78.727787    22.569486    25.564162 
   67800     235.3323    -365.7221    216009.12    -18837.93    1368.5892   -20206.519   -931.78769    380.25335    78.724792    22.569601    25.547077 
   68000    230.13983   -113.30989    216009.12    -18869.83    1338.3921   -20208.222    144.39656    381.08352    78.721166    22.568774    25.534229 
   68200    232.42868   -240.07459    216009.12   -18853.103    1351.7031   -20204.806   -458.81886    381.91732    78.717536    22.567477    25.530796 
   68400    233.86358   -279.81317    216009.12   -18778.084    1360.0478   -20138.132   -592.14385    383.58499    78.714829    22.564874    25.526204 
   68600    228.79818   -330.35426    216009.12   -18815.365    1330.5896   -20145.955   -823.15019    383.28095    78.716263    22.564887    25.537039 
   68800    233.82359   -356.04683    216009.12   -18767.415    1359.8152    -20127.23   -920.16028    384.05217    78.714405       22.562    25.529142 
   69000    231.96932   -442.53198    216009.12   -18771.183    1349.0316   -20120.215    -1325.406    383.57542    78.713415     22.55844    25.520808 
   69200    234.22979   -533.84621    216009.12   -18833.815    1362.1775   -20195.993   -1678.2015    385.50165    78.712819    22.555027    25.517513 
   69400    239.09139   -283.17825    216009.12   -18867.775    1390.4504   -20258.226    -596.2942    386.64327    78.717626    22.558208    25.518892 
   69600    245.92089   -179.08406    216009.12   -18676.094    1430.1678   -20106.261   -165.80131     385.6224    78.720813    22.555794    25.520914 
   69800    233.51553   -263.71483    216009.12    -18779.73    1358.0237   -20137.753   -522.29707    387.51135    78.722805    22.558865    25.504145 
   70000    242.79405   -278.46965    216009.12   -18778.973    1411.9834   -20190.956   -656.26435    388.18849    78.723726    22.553317     25.51983 
   70200    248.38031   -302.62166    216009.12   -18786.373    1444.4707   -20230.844   -683.61086    389.47705     78.72319    22.549028      25.5412 
   70400    241.28723   -332.68238    216009.12   -18751.891    1403.2204   -20155.111   -819.98537    390.01657    78.727274    22.550601    25.548216 
   70600    232.67757   -250.53727    216009.12   -18815.299    1353.1504   -20168.449   -458.17454    391.56612    78.727018    22.551317    25.546504 
   70800     234.8765   -319.23061    216009.12    -18856.22    1365.9385   -20222.159   -736.85047     391.4417    78.725859    22.551148    25.555469 
   71000    230.76949   -229.70769    216009.12   -18858.698    1342.0539   -20200.752   -334.05854    391.41196      78.7271    22.546926    25.548457 
   71200    238.28601   -300.48938    216009.12   -18823.544    1385.7667    -20209.31   -621.76806    393.55179    78.729692    22.548667    25.545448 
   71400     231.1689   -464.32818    216009.12   -18839.656    1344.3767   -20184.032   -1382.3889     392.8312    78.729949    22.548593    25.545669 
   71600    232.20017   -297.95947    216009.12   -18769.023    1350.3741   -20119.397   -694.78843    393.07734    78.728317    22.550559    25.538861 
   71800      230.764   -296.65497    216009.12   -18862.133     1342.022   -20204.155   -682.12836    393.88789    78.726025    22.551238    25.534747 
   72000    229.70503   -303.74895    216009.12   -18838.359    1335.8635   -20174.222   -661.29745    393.48121    78.728023    22.553123    25.519246 
   72200    248.68912   -302.11699    216009.12   -18700.365    1446.2666   -20146.632   -737.31649    393.51028    78.731055      22.5504    25.525555 
   72400    237.02959   -473.85053    216009.12   -18795.221    1378.4599   -20173.681   -1392.9239    394.47957    78.731125     22.54923    25.511434 
   72600    236.39901   -498.33153    216009.12   -18754.699    1374.7927   -20129.492     -1568.92    396.11286    78.733485    22.551162    25.489299 
   72800    231.33951   -296.07561    216009.12    -18751.13    1345.3689   -20096.499   -662.18137    396.18848    78.733275    22.549819    25.464364 
   73000    233.27912   -533.63639    216009.12   -18755.929    1356.6488   -20112.578   -1663.7883     399.3973    78.733524    22.549788    25.458017 
   73200    236.71046   -387.69518    216009.12   -18664.886     1376.604    -20041.49   -1045.8435    398.16073    78.737417    22.550007     25.47034 
   73400    240.38846   -279.78533    216009.12   -18699.931    1397.9936   -20097.925   -593.81568    397.81005    78.737035    22.547967    25.479209 
   73600     235.9723    -339.1955    216009.12   -18711.732    1372.3112   -20084.043   -859.89188    398.98519     78.73486    22.545633    25.488274 
   73800    226.80945   -230.55901    216009.12   -18787.768    1319.0241   -20106.792   -426.58929     397.7988     78.73529    22.543907      25.4972 
   74000    234.14309   -329.14986    216009.12   -18771.969    1361.6733   -20133.643    -803.1745     399.8565    78.737812    22.545074    25.511207 
   74200      231.773   -337.03155    216009.12   -18671.224    1347.8899   -20019.114   -853.20434    402.11858    78.740083    22.544763    25.494373 
   74400    237.56949   -246.72541    216009.12   -18677.404    1381.5997   -20059.004   -464.81184    402.02054    78.737977    22.545723    25.508902 
   74600     230.8919    -391.5377    216009.12   -18727.378    1342.7658   -20070.144   -1106.7627     403.1616    78.738852    22.545036    25.514385 
   74800    234.96169   -259.95413    216009.12   -18716.054    1366.4339   -20082.488   -530.51995    403.99827    78.739034    22.545626    25.489216 
   75000    234.84063   -297.67526    216009.12   -18727.345    1365.7299   -20093.075   -683.88939    405.04718    78.735716    22.546376    25.434486 
   75200    226.62678   -293.45231    216009.12   -18662.438    1317.9617     -19980.4    -666.1664    406.20326    78.735762      22.5476     25.42577 
   75400    233.41652   -216.23499    216009.12   -18711.514    1357.4479   -20068.961   -391.97403    405.41282    78.733229    22.545752    25.407229 
   75600    235.08407   -214.37182    216009.12   -18698.246    1367.1456   -20065.392   -324.92546    407.35789    78.734992    22.543694    25.401537 
   75800    240.25861   -425.96742    216009.12   -18621.368    1397.2384   -20018.606   -1222.2389    407.83787    78.733623    22.544393    25.388449 
   76000    236.95732   -122.09651    216009.12   -18651.632    1378.0396   -20029.672    66.243099    408.27983    78.733614    22.543801    25.410017 
   76200    231.12989   -304.91552    216009.12   -18756.249    1344.1499   -20100.398   -710.87878    409.40711    78.733524    22.542463    25.438706 
   76400    231.30773   -509.31932    216009.12   -18751.534    1345.1841   -20096.719   -1612.2931    410.88456    78.733355     22.54255    25.426777 
   76600    230.47401   -201.20609    216009.12   -18735.743    1340.3355   -20076.079   -286.87713    410.42286    78.732466    22.543169    25.427288 
   76800    235.11285   -340.89913    216009.12   -18765.397     1367.313    -20132.71   -842.45609    413.39079    78.733054    22.542534    25.435315 
   77000    237.68651   -398.15003    216009.12   -18717.243    1382.2802   -20099.523   -1119.7842    414.35758    78.729646    22.541001    25.420218 
   77200    237.50679   -218.62238    216009.12   -18690.349    1381.2351   -20071.584   -360.94925     416.5336    78.729084    22.539859    25.401978 
   77400    230.14689   -523.78703    216009.12   -18709.636    1338.4331   -20048.069   -1644.4737    420.82438    78.730037    22.541062    25.370554 
   77600    230.80432   -279.27941    216009.12   -18770.378    1342.2565   -20112.635   -573.59323    420.92644    78.731196    22.541417    25.367817 
   77800    236.25631   -386.53642    216009.12    -18743.86    1373.9628   -20117.823   -1052.1383    422.32575    78.729196    22.540383    25.383489 
   78000    230.49991   -360.23428    216009.12   -18786.812    1340.4861   -20127.298   -961.20013    424.31518    78.727886    22.542054    25.370815 
   78200    239.13117    -247.5419    216009.12   -18739.802    1390.6818   -20130.483   -469.08698    422.05311    78.727013    22.541687     25.37103 
   78400    226.43698   -453.40668    216009.12   -18733.508     1316.858   -20050.366   -1324.4918    424.00257    78.726455    22.540585    25.406303 
   78600    231.71249   -219.46848    216009.12   -18729.559     1347.538   -20077.097   -372.61998    422.87377    78.727071    22.541774    25.417258 
   78800    231.55779    -239.9349    216009.12   -18722.995    1346.6383   -20069.633   -460.49285    425.71186    78.725326    22.541696    25.414695 
   79000    232.55536   -272.51017    216009.12   -18674.611    1352.4398   -20027.051   -562.22359    423.55976    78.725863    22.542051    25.423953 
   79200    234.94557   -468.77391    216009.12   -18641.851    1366.3402   -20008.191   -1394.2012    427.75796    78.727185    22.542196    25.440415 
   79400    239.11042   -50.170367    216009.12   -18608.956    1390.5611   -19999.517    352.44012    427.09909     78.72569    22.541112    25.430768 
   79600    228.49282   -442.37156    216009.12   -18707.817    1328.8138   -20036.631   -1327.2291    428.85171    78.722903    22.538788    25.445821 
   79800    237.23929   -225.74869    216009.12   -18729.778    1379.6794   -20109.457   -346.65757    428.87532    78.724113     22.54079    25.448805 
   80000      231.221   -290.75722    216009.12   -18767.676    1344.6797   -20112.356    -632.7568    429.42953    78.725369    22.539963    25.443837 
   80200    232.82326   -385.81686    216009.12    -18748.79    1353.9977   -20102.788   -1114.0968      429.972    78.723586    22.539628    25.445181 
   80400     239.0782    -414.0623    216009.12   -18739.439    1390.3737   -20129.813   -1194.0713     432.5863    78.721948    22.536785    25.464907 
   80600    230.92164   -247.71016    216009.12   -18734.844    1342.9387   -20077.783   -523.50308    433.68574    78.723191    22.533104    25.483456 
   80800    235.44783   -229.40654    216009.12    -18703.58    1369.2611   -20072.841   -402.97823    438.01904    78.723747    22.536427    25.487145 
   81000    238.29347   -319.44652    216009.12   -18687.892    1385.8101   -20073.702   -806.84925     439.5574    78.725939    22.538099    25.513342 
   81200      237.703   -225.42396    216009.12   -18717.851    1382.3761   -20100.227   -379.03512    439.96371    78.726764    22.538474    25.519822 
   81400    231.14499   -238.77756    216009.12   -18727.528    1344.2377   -20071.766   -400.80819    441.02342    78.729795    22.539442    25.517986 
   81600    235.96425   -377.68727    216009.12   -18763.782    1372.2644   -20136.047   -1027.3129     442.6389    78.729457    22.538549     25.52074 
   81800    230.96944   -316.73481    216009.12   -18860.014    1343.2168    -20203.23   -756.07038    442.96992    78.727439    22.536796    25.531292 
   82000    233.60458   -339.02234    216009.12   -18760.808    1358.5415   -20119.349   -862.39992    444.76914    78.726894    22.535973    25.557424 
   82200    235.65393   -213.55488    216009.12   -18686.455    1370.4597   -20056.915   -322.51074    445.42649    78.726976    22.537325    25.570954 
   82400    231.36263   -453.79243    216009.12   -18724.267    1345.5033   -20069.771   -1381.3596    447.74933    78.726101    22.535253    25.578254 
   82600     232.1123   -108.16038    216009.12   -18642.934    1349.8631   -19992.797    141.14774    447.21869    78.723542    22.533478    25.562365 
   82800    234.51374   -376.79259    216009.12   -18722.094    1363.8288   -20085.922   -1044.2287    451.07136    78.722029    22.535003    25.549943 
   83000    239.88295   -395.71231    216009.12   -18613.093    1395.0538   -20008.147   -1163.2048    454.85849    78.720992    22.535597    25.549662 
   83200    237.26424   -393.13423    216009.12   -18662.471    1379.8245   -20042.296   -1081.2036    451.91927    78.720085    22.533783    25.539847 
   83400    235.67353    -369.9915    216009.12   -18701.098    1370.5737   -20071.672    -974.0356    451.08656    78.719601    22.534749    25.505276 
   83600    233.16136   -242.84949    216009.12    -18778.22     1355.964   -20134.184   -473.94043    452.44142    78.717862    22.537446    25.495783 
   83800     232.0422   -293.91648    216009.12   -18720.928    1349.4554   -20070.384   -699.83826    454.89059    78.715421    22.539258    25.495491 
   84000    237.66648   -321.07149    216009.12   -18663.592    1382.1638   -20045.756   -789.46327    455.56425    78.715412    22.539911    25.512662 
   84200    238.63037   -360.11004    216009.12   -18693.625    1387.7693   -20081.395   -950.42884     454.1392    78.715461     22.54067     25.51748 
   84400    235.15818   -287.99196    216009.12   -18723.311    1367.5766   -20090.888   -647.34915    454.76672    78.716234    22.539849     25.50842 
   84600     239.6172   -154.50241    216009.12   -18669.727    1393.5083   -20063.236   -83.849779    455.35663    78.715531    22.541475    25.532675 
   84800    240.50807   -139.11736    216009.12   -18741.121    1398.6892   -20139.811   -36.911632    455.53617    78.716507    22.543177    25.545983 
   85000    236.90352   -305.49818    216009.12   -18720.901    1377.7267   -20098.628   -750.34914    458.26207    78.715202    22.544003    25.534883 
   85200    235.48496   -231.10195    216009.12    -18751.24     1369.477   -20120.717   -407.85374    459.16192    78.718541    22.545524    25.524452 
   85400     231.5897    -384.7171    216009.12   -18755.202    1346.8239   -20102.026   -1081.1504    459.28771    78.718956    22.545803    25.530114 
   85600    228.38822   -162.31636    216009.12   -18714.539    1328.2055   -20042.744   -94.712826    460.77365    78.717393    22.544648     25.54058 
   85800     240.2259   -282.99784    216009.12   -18657.793    1397.0483   -20054.841   -618.18627    460.95079    78.718493    22.545968    25.532572 
   86000    231.80803   -339.09098    216009.12   -18696.053    1348.0936   -20044.147   -892.39562    461.70777    78.719817    22.545419    25.518192 
   86200    240.71733   -390.42118    216009.12   -18683.517    1399.9062   -20083.423   -1077.0901    461.61173    78.720078    22.544467    25.510685 
   86400     230.0513   -284.45995    216009.12   -18749.981    1337.8772   -20087.859   -614.38987    460.09486    78.717673    22.543032    25.514801 
   86600     243.9781   -364.28043    216009.12   -18656.516    1418.8694   -20075.386   -978.43356     459.6698    78.716586    22.543425    25.513973 
   86800    233.47402   -234.25951    216009.12    -18717.91    1357.7822   -20075.693   -402.02112    459.44851    78.717217    22.542917    25.515582 
   87000    238.46147   -313.04996    216009.12   -18689.836    1386.7871   -20076.623   -787.48241    461.67209    78.714197    22.542499    25.503198 
   87200     232.0657   -398.93174    216009.12   -18682.404    1349.5921   -20031.996   -1128.1039    462.93239    78.713471    22.542695    25.503145 
   87400    230.55909   -264.01118    216009.12    -18707.78    1340.8303    -20048.61   -521.16461    464.06009    78.714135    22.543692    25.490323 
   87600    235.27313    -426.5124    216009.12   -18694.252    1368.2451   -20062.497   -1244.6265    465.17294    78.715197    22.544609    25.448301 
   87800    235.82907   -382.73369    216009.12   -18691.816    1371.4782   -20063.295   -1028.1692    465.23997    78.718939    22.544289    25.417587 
   88000    234.20453   -301.44233    216009.12   -18651.724    1362.0306   -20013.754   -669.37264    465.31477    78.721693    22.547931    25.407591 
   88200    229.43027   -452.47154    216009.12   -18740.215    1334.2656    -20074.48   -1305.8904    465.69622    78.723862    22.549684    25.439243 
   88400    239.55141   -463.08136    216009.12   -18676.175    1393.1257   -20069.301     -1390.51    466.61397    78.723127    22.550703    25.446477 
   88600    231.79488   -156.13285    216009.12   -18674.562    1348.0171   -20022.579    -98.18862    466.01824    78.722372    22.551688    25.444479 
   88800    227.07466   -224.15813    216009.12   -18746.609    1320.5664   -20067.176   -361.36015    468.27172     78.72246    22.552839     25.43212 
   89000    230.87413   -200.77839    216009.12   -18685.557    1342.6624   -20028.219   -311.68019    469.03308    78.722539    22.556239     25.42319 
   89200    235.00113   -360.63512    216009.12   -18684.591    1366.6633   -20051.254    -940.5857    469.12151    78.721204    22.556358    25.419249 
   89400    234.81771   -294.77261    216009.12   -18717.539    1365.5966   -20083.136   -679.08789    468.13063    78.720091    22.554221    25.426687 
   89600    232.85601   -356.65473    216009.12   -18818.968    1354.1882   -20173.156   -980.82928    469.23423    78.721564    22.555967    25.434545 
   89800    226.55908   -423.44593    216009.12   -18703.132     1317.568     -20020.7   -1255.3263    470.84413     78.72308    22.558146    25.441161 
   90000    234.91714   -317.31143    216009.12   -18732.319    1366.1748   -20098.494   -757.74544    473.47993    78.726428    22.559924    25.476559 
   90200    232.27036   -369.82535    216009.12   -18765.059    1350.7823   -20115.841    -976.0813    476.22401    78.727812     22.55915    25.483009 
   90400    238.24628   -248.46739    216009.12   -18709.068    1385.5356   -20094.604   -534.50167     477.5992     78.73011    22.559964    25.497317 
   90600    236.03547   -328.33902    216009.12    -18723.39    1372.6786   -20096.069   -829.86123    479.55904     78.73143    22.560025     25.48344 
   90800    241.56394    -315.6174    216009.12   -18718.742    1404.8297   -20123.572   -796.03412    477.54968     78.73165    22.559972     25.50916 
   91000    231.75955   -266.23341    216009.12   -18747.507    1347.8117   -20095.319    -546.6528    476.42248    78.731779    22.560631    25.478733 
   91200    225.25754   -360.88223    216009.12   -18819.333    1309.9988   -20129.332   -973.50765    476.57468    78.732148    22.560163    25.448078 
   91400    228.79696   -229.16137    216009.12    -18743.77    1330.5825   -20074.353   -404.41351    478.32038    78.732683    22.560936    25.445213 
   91600    238.16456   -480.12433    216009.12   -18633.045    1385.0604   -20018.105    -1508.935    480.97668    78.731635    22.563693    25.450525 
   91800     232.8757     -154.309    216009.12   -18648.942    1354.3027   -20003.244   -83.856809    480.99906    78.730441    22.563826    25.446947 
   92000    231.12186    -397.9408    216009.12   -18654.528    1344.1031   -19998.631   -1131.6578    483.26195    78.731885    22.564459    25.455566 
   92200     233.5347   -257.77168    216009.12   -18693.469    1358.1352   -20051.604    -528.7987    484.81063    78.733309    22.565318    25.485963 
   92400    237.09086   -282.62494    216009.12   -18693.021    1378.8162   -20071.838   -653.21775    485.51114    78.732782    22.568064    25.495567 
   92600    232.19895   -149.12406    216009.12   -18632.731     1350.367   -19983.098   -82.046055    486.61503    78.731633    22.566918    25.480523 
   92800    234.96046   -389.16854    216009.12   -18698.217    1366.4267   -20064.644   -1105.9269     489.3865    78.728683    22.567776    25.448325 
   93000    233.13042   -495.68118    216009.12   -18726.925     1355.784   -20082.709   -1541.6648    491.32116    78.730275    22.568479    25.452412 
   93200    234.91288   -374.37766    216009.12   -18715.441      1366.15   -20081.591   -1067.6262    492.67322    78.728176    22.568672      25.4461 
   93400    227.88851   -318.55193    216009.12   -18765.674    1325.2994   -20090.973   -851.25387    491.79032    78.728064    22.569877    25.453266 
   93600    233.67772   -339.41423    216009.12    -18715.62    1358.9669   -20074.587   -876.95011    493.51242    78.726118    22.570428    25.460359 
   93800    230.77491   -251.72876    216009.12   -18715.954    1342.0854   -20058.039   -510.86535    494.71928    78.726759    22.569799    25.461171 
   94000    236.40143   -412.25878    216009.12   -18679.601    1374.8068   -20054.407   -1174.0933    498.23841    78.724552    22.567333    25.447224 
   94200    236.30808    -393.7027    216009.12   -18601.948    1374.2639   -19976.212   -1088.3995     501.8086     78.72533    22.566447    25.448367 
   94400    233.22478   -167.53336    216009.12   -18647.631    1356.3328   -20003.964   -110.68099    503.20845    78.727137    22.566083    25.456613 
   94600     231.5321   -252.96287    216009.12   -18662.544    1346.4889   -20009.033   -479.77635    505.38376    78.726552    22.567058    25.443349 
   94800     234.4275   -254.27479    216009.12   -18677.664    1363.3273   -20040.991   -522.89207    505.29725    78.727267    22.569172    25.451278 
   95000    228.75519   -263.61996    216009.12   -18681.654    1330.3396   -20011.993   -535.57119    505.40765    78.729026    22.571733     25.45181 
   95200    232.78426   -289.80184    216009.12   -18675.514    1353.7709   -20029.285   -660.60855     507.0154    78.730243    22.571717    25.457127 
   95400    235.29971   -257.70615    216009.12   -18660.663    1368.3997   -20029.063   -492.71801    507.21177    78.730946    22.573705    25.477833 
   95600    229.51725   -120.03232    216009.12   -18634.036    1334.7714   -19968.808    76.915313    507.82178    78.731098    22.574401     25.46449 
   95800    231.92944   -344.16899    216009.12   -18612.154    1348.7997   -19960.954   -875.71591    512.45639    78.730203    22.574242    25.469243 
   96000    238.01456   -319.97476    216009.12   -18635.123    1384.1881   -20019.311   -763.12902    513.91198    78.729747    22.574658    25.464662 
   96200    240.58211   -277.35106    216009.12    -18641.96    1399.1198    -20041.08    -632.2546     513.2319    78.728646    22.572443    25.470053 
   96400    237.96639   -289.11148    216009.12   -18685.988    1383.9079   -20069.896   -658.87354    515.50406    78.727584    22.572411    25.459859 
   96600    231.46111   -446.23562    216009.12   -18681.826     1346.076   -20027.902   -1324.8766    519.16549    78.726626    22.573499    25.470923 
   96800      233.143    -469.0981    216009.12   -18656.121    1355.8572   -20011.978   -1425.8437    521.39124    78.727987     22.57166    25.504274 
   97000    223.92371    -290.1852    216009.12   -18706.817    1302.2419   -20009.059   -669.83933    522.24704    78.731007    22.572266    25.506365 
   97200    239.85479   -281.32989    216009.12   -18664.109      1394.89   -20058.999   -596.63735    524.93996    78.733229    22.572951    25.522842 
   97400    233.10943   -404.63952    216009.12   -18645.878     1355.662    -20001.54   -1101.3366    528.87048    78.731568    22.572772    25.511025 
   97600     237.5221   -305.52613    216009.12   -18604.174    1381.3241   -19985.498   -684.30144    528.33653    78.734306    22.571191    25.529604 
   97800    234.99478   -339.95959    216009.12   -18622.556    1366.6263   -19989.182    -907.5958     531.8751    78.735671    22.573332    25.559277 
   98000    237.33219   -307.29829    216009.12   -18684.452    1380.2197   -20064.672    -746.2658    532.46739    78.737244    22.571733    25.581858 
   98200    230.56341   -332.62559    216009.12   -18731.807    1340.8555   -20072.662   -820.04421    530.36854    78.739899    22.571457    25.594589 
   98400    235.15786   -305.47018    216009.12   -18695.958    1367.5747   -20063.533   -755.24145    529.98711    78.739484    22.570487    25.623755 
   98600     231.7747   -308.84425    216009.12   -18714.401    1347.8998   -20062.301   -714.44557    528.75844    78.741173    22.571627     25.61244 
   98800    241.55415   -406.18902    216009.12   -18652.405    1404.7727   -20057.178   -1141.6859     531.6195    78.742473    22.570336    25.637486 
   99000    232.70589   -330.51151    216009.12   -18731.319    1353.3151   -20084.634   -824.83585    530.45644    78.744866     22.57223    25.640224 
   99200    231.10227   -400.09425    216009.12   -18701.666    1343.9892   -20045.655   -1112.1999    533.20128    78.743271    22.571755    25.648113 
   99400    227.88528   -499.08208    216009.12   -18704.861    1325.2806   -20030.142   -1514.2673    534.98383    78.744481    22.570665    25.640147 
   99600    236.59195   -300.04633    216009.12   -18665.382    1375.9148   -20041.296   -677.92293    536.25377    78.745462    22.570182    25.627629 
   99800    232.19832   -403.09496    216009.12   -18692.239    1350.3634   -20042.602   -1088.9079    539.64524    78.745435    22.572242    25.657829 
  100000    236.31899   -162.82892    216009.12   -18653.941    1374.3273   -20028.268   -109.37613    537.64234    78.747974    22.573237    25.655574 
  100200    226.26718   -312.74128    216009.12   -18725.001    1315.8704   -20040.872   -762.16849    537.08171     78.74747    22.574122    25.656494 
  100400    234.04907   -367.48522    216009.12   -18661.295    1361.1265   -20022.422    -988.2464    536.21549    78.749063    22.571621    25.639842 
  100600    235.48704   -390.68574    216009.12   -18687.687    1369.4891   -20057.176    -1079.257    536.13088    78.749216    22.572929    25.647136 
  100800    227.82722   -340.66803    216009.12   -18696.322     1324.943   -20021.265    -882.3128    537.16968    78.749007    22.569814    25.630545 
[...]
 3975800    225.86491   -584.27747    216009.12   -20665.264     1313.531   -21978.795   -1873.0665    2700.0913    78.474004    22.066264    25.582204 
 3976000    222.65509   -607.67047    216009.12   -20670.402    1294.8641   -21965.266   -1954.6235    2701.3737    78.475574    22.065249    25.581147 
 3976200    224.97961   -606.91632    216009.12    -20678.03    1308.3825   -21986.412   -1993.3832    2700.7207    78.476455    22.065769     25.58564 
 3976400    222.35072   -517.22901    216009.12   -20680.507     1293.094   -21973.601   -1556.1034    2701.3284    78.478358    22.066588    25.582675 
 3976600    220.01223   -556.26192    216009.12   -20682.614    1279.4944   -21962.108   -1740.2395    2701.0001    78.478357    22.066859    25.584537 
 3976800    228.29077   -501.13483    216009.12   -20649.722    1327.6387   -21977.361   -1526.4933    2700.1312      78.4797    22.067564    25.586975 
 3977000    224.49254   -580.24828    216009.12   -20666.627    1305.5499   -21972.177   -1853.4758    2701.3869    78.479482    22.067872    25.582254 
 3977200    222.96921   -506.12012    216009.12   -20668.156    1296.6909   -21964.847   -1521.4721    2699.8391    78.479794    22.067888    25.577484 
 3977400    232.41305   -549.47262    216009.12   -20654.184    1351.6121   -22005.797   -1765.4411    2700.5813    78.481237     22.06851    25.579358 
 3977600    225.57757   -642.65009    216009.12    -20615.27      1311.86    -21927.13   -2162.9818    2702.9962    78.482711    22.069104    25.582611 
 3977800    228.95021   -572.15681    216009.12   -20653.027    1331.4738   -21984.501   -1827.9425    2699.1027    78.483891     22.06803    25.581552 
 3978000    226.03284   -517.95864    216009.12   -20636.062    1314.5077    -21950.57   -1519.2837    2701.1685    78.485576    22.066964    25.582156 
 3978200    221.29092   -609.03644    216009.12   -20651.223    1286.9307   -21938.154   -1941.4205    2701.3306    78.487038    22.066373     25.57965 
 3978400    224.29716   -596.32521    216009.12   -20628.447    1304.4137   -21932.861   -1877.3036     2700.772    78.488599    22.066472     25.58079 
 3978600    221.24273   -572.75272    216009.12   -20666.518    1286.6505   -21953.168   -1815.1488    2700.1625      78.4901    22.066154    25.579674 
 3978800    225.06633    -591.2658    216009.12   -20667.595    1308.8868   -21976.482   -1897.4236    2702.2059    78.490821    22.065495    25.584612 
 3979000    225.49743   -595.73685    216009.12   -20655.469    1311.3939   -21966.863   -1905.9393     2700.372    78.492438    22.064196    25.582818 
 3979200    219.74766   -570.18981    216009.12   -20666.078    1277.9558   -21944.033   -1811.3984    2700.3679    78.493854    22.063225    25.583584 
 3979400    222.12683   -619.00416    216009.12   -20683.638     1291.792    -21975.43   -2005.4905    2702.7534    78.495259    22.062395    25.582865 
 3979600    216.66371    -611.7963    216009.12    -20672.39    1260.0209   -21932.411    -1958.988    2701.7062    78.496759    22.062085    25.587463 
 3979800    222.48845   -586.42516    216009.12   -20738.075     1293.895    -22031.97   -1871.7878     2700.649    78.497752    22.061303    25.589439 
 3980000    223.84574   -599.18863    216009.12   -20697.904    1301.7884   -21999.692   -1943.4586    2702.8027    78.498716    22.061347    25.586216 
 3980200    229.63215   -543.60069    216009.12   -20627.109    1335.4397   -21962.549   -1727.7604    2700.6835     78.50084    22.061148    25.587932 
 3980400    224.87365    -515.0989    216009.12   -20650.319    1307.7663   -21958.086    -1530.638    2700.7883    78.501665    22.060846    25.585175 
 3980600    225.33447   -637.88729    216009.12    -20586.95    1310.4462   -21897.397   -2104.4962    2702.8802    78.503254    22.061046    25.592242 
 3980800    221.86515   -525.85981    216009.12   -20630.778    1290.2702   -21921.048   -1596.8937    2700.6102    78.504701    22.058749    25.587198 
 3981000    228.60853   -572.23329    216009.12   -20643.101    1329.4867   -21972.588   -1818.2378    2700.9486    78.506423    22.058236    25.588547 
 3981200    224.92754    -657.8859    216009.12   -20621.281    1308.0797   -21929.361   -2202.0896    2703.8111    78.506966    22.059028    25.588315 
 3981400    226.39647   -462.69299    216009.12   -20644.538    1316.6223    -21961.16   -1330.1369    2700.5222    78.507157    22.058069    25.586325 
 3981600    227.63812   -596.40054    216009.12   -20595.164    1323.8432   -21919.007   -1896.9126    2702.6119    78.507929    22.058285    25.586807 
 3981800    226.66296   -551.73393    216009.12    -20641.04    1318.1721   -21959.212   -1744.1366    2702.9289    78.506968     22.05949     25.58952 
 3982000    221.85128    -518.1343    216009.12   -20705.521    1290.1895   -21995.711   -1609.8515    2700.2127    78.507078     22.06058    25.582928 
 3982200    219.63921     -631.416    216009.12   -20659.001    1277.3251   -21936.326   -2033.3599    2703.2622     78.50717    22.060474    25.581573 
 3982400     222.4989   -584.93217    216009.12   -20700.809    1293.9558   -21994.765   -1814.3016    2703.2654    78.507989    22.060508    25.588402 
 3982600     225.5128   -560.90303    216009.12   -20685.152    1311.4833   -21996.635   -1767.8409     2702.175    78.507828    22.060154    25.587093 
 3982800    223.73717     -607.292    216009.12   -20683.743     1301.157     -21984.9   -1935.4414    2702.6115      78.5081    22.058734    25.586055 
 3983000    229.33433   -609.28767    216009.12    -20577.32    1333.7076   -21911.028   -1974.4182    2704.3208    78.508765    22.057627    25.585748 
 3983200    225.97872   -531.16579    216009.12   -20625.076    1314.1929   -21939.269   -1661.1374    2700.8603     78.50983    22.057956    25.590508 
 3983400    226.14049   -615.23642    216009.12   -20684.947    1315.1337   -22000.081    -1997.091    2703.0505     78.51078    22.058884    25.588422 
 3983600    220.74764   -636.91993    216009.12    -20694.28    1283.7712   -21978.051   -2103.1554    2704.1769    78.511857    22.060248    25.587323 
 3983800    226.63865   -450.20852    216009.12   -20654.434    1318.0308   -21972.464   -1257.6429    2699.8445    78.512443    22.059766    25.594389 
 3984000    223.99882   -658.29192    216009.12   -20672.329    1302.6786   -21975.007   -2177.0652    2701.8216    78.513529    22.060879    25.587131 
 3984200    227.99657   -601.58158    216009.12   -20573.727    1325.9278   -21899.655   -1959.5379    2704.1892    78.514131    22.061635     25.58593 
 3984400    226.01592   -500.27845    216009.12   -20620.321    1314.4093    -21934.73   -1550.2553    2699.7094    78.514656    22.061251    25.586425 
 3984600    226.07336   -628.31371    216009.12   -20644.611    1314.7433   -21959.354   -2042.5166    2703.9592     78.51522    22.060538    25.586787 
 3984800    228.02021   -582.83135    216009.12   -20675.606    1326.0653   -22001.672   -1858.1025    2703.8054    78.515325    22.060375    25.596787 
 3985000    222.69419   -515.98784    216009.12   -20634.411    1295.0915   -21929.503   -1569.2148    2699.0199    78.515935    22.061801    25.592648 
 3985200    229.79427   -673.70848    216009.12   -20651.254    1336.3825   -21987.637   -2235.4083    2703.5966     78.51602    22.062947     25.58948 
 3985400    226.07343   -621.70913    216009.12   -20662.643    1314.7437   -21977.387   -2030.6077    2703.4739    78.515402    22.062948    25.588014 
 3985600    225.37156   -535.24587    216009.12   -20678.605    1310.6619   -21989.267   -1661.3909    2700.5858    78.515064    22.063027    25.588064 
 3985800    228.28871   -654.68905    216009.12   -20662.629    1327.6268   -21990.255    -2165.765    2703.7191    78.515733     22.06467     25.58271 
 3986000    225.69848   -577.11639    216009.12   -20647.894    1312.5632   -21960.457   -1815.5228    2703.3956    78.515537    22.064716    25.586213 
 3986200    231.31623   -581.71077    216009.12   -20559.151    1345.2335   -21904.385   -1863.4702    2700.5385    78.516625    22.064798    25.590439 
 3986400    218.49911    -714.0735    216009.12   -20712.624    1270.6948   -21983.319   -2431.3466    2704.2651    78.516833    22.064466    25.591623 
 3986600    220.32972   -589.55088    216009.12   -20691.887    1281.3408   -21973.228   -1919.0942    2703.0952     78.51619    22.063567    25.587184 
 3986800    223.43571   -546.70463    216009.12   -20670.222    1299.4039   -21969.626   -1712.0063    2700.6153     78.51601     22.06325    25.584801 
 3987000    226.86913   -767.97716    216009.12   -20653.495    1319.3711   -21972.867   -2638.7173    2705.5814    78.516463    22.062981    25.584778 
 3987200    229.58583   -518.11651    216009.12   -20627.124    1335.1703   -21962.294   -1568.0926    2701.5955    78.516731    22.063469    25.584223 
 3987400    229.60227   -532.30128    216009.12    -20635.28    1335.2659   -21970.546    -1618.128     2700.978    78.517481    22.064583    25.585767 
 3987600    221.20702   -728.90799    216009.12   -20631.569    1286.4428   -21918.012   -2490.3083    2704.3308    78.517776    22.064275     25.58851 
 3987800     220.9608   -557.62764    216009.12   -20671.507    1285.0109   -21956.518   -1818.6696    2701.6856    78.519546    22.064081    25.589338 
 3988000    224.13601     -507.483    216009.12   -20679.778    1303.4765   -21983.255   -1541.2969    2702.3309    78.518672    22.064281    25.588291 
 3988200     232.5735   -695.40682    216009.12    -20590.85    1352.5453   -21943.395     -2305.47    2703.4617    78.517822    22.063344    25.587522 
 3988400     234.6339   -504.57409    216009.12    -20630.99    1364.5276   -21995.518   -1530.2722    2700.9987    78.517122    22.063796    25.582265 
 3988600    217.64372   -554.79479    216009.12   -20711.639    1265.7202   -21977.359   -1705.9389     2702.777    78.516462    22.063433    25.582993 
 3988800     224.1914   -723.91868    216009.12   -20658.402    1303.7986   -21962.201   -2455.8435    2704.2726     78.51656    22.062583     25.58259 
 3989000    222.99188   -476.93734    216009.12   -20670.243    1296.8228   -21967.065    -1389.801    2701.5431    78.516734    22.062841    25.595262 
 3989200    221.23303   -645.01927    216009.12   -20700.786    1286.5941    -21987.38   -2157.6145    2703.0434    78.516579    22.063296     25.59323 
 3989400    221.91455   -706.41695    216009.12   -20688.978    1290.5575   -21979.536   -2378.9624    2703.8581    78.517012    22.063124    25.584752 
 3989600    227.61991    -546.5038    216009.12   -20629.708    1323.7373   -21953.445   -1726.2725    2701.3738    78.517668     22.06278    25.582002 
 3989800    222.17677   -617.02439    216009.12   -20659.986    1292.0824   -21952.069   -2012.0996     2703.599    78.517666    22.062962     25.58266 
 3990000    225.07676   -640.36733    216009.12   -20643.148    1308.9475   -21952.096   -2081.6833    2702.2527     78.51796    22.062404    25.581553 
 3990200    222.76148   -449.49001    216009.12   -20672.294    1295.4829   -21967.777   -1259.4094     2699.321    78.516865    22.062439     25.57783 
 3990400    223.45989   -581.23255    216009.12   -20669.893    1299.5445   -21969.438    -1809.039    2703.8974    78.517008    22.061998    25.584772 
 3990600    220.17774     -657.604    216009.12   -20705.776     1280.457   -21986.233   -2177.4235     2702.536    78.517403    22.062103    25.584715 
 3990800    225.76353   -519.92386    216009.12   -20668.119    1312.9414   -21981.061   -1617.7256    2699.8956    78.518187    22.061889    25.577298 
 3991000    234.16522    -614.5802    216009.12   -20650.404     1361.802   -22012.206   -1981.5316     2703.862    78.518457    22.061214     25.57898 
 3991200    233.22824   -612.45574    216009.12   -20605.675    1356.3529   -21962.028    -1979.637    2702.2288    78.518895    22.062263    25.583691 
 3991400    227.43056   -511.49172    216009.12   -20624.225    1322.6361   -21946.861   -1577.6202    2700.7272    78.517858    22.061809    25.582733 
 3991600    225.26782   -676.70381    216009.12   -20622.971    1310.0586    -21933.03   -2257.3566    2705.1698    78.518185    22.062398    25.579642 
 3991800    227.97086   -616.43896    216009.12   -20689.021    1325.7783   -22014.799    -2010.797    2701.4031    78.518727    22.063049    25.580571 
 3992000    223.25959   -550.16051    216009.12   -20667.654    1298.3797   -21966.033   -1738.1922    2700.4869    78.517868    22.063334    25.579107 
 3992200    226.18149     -688.457    216009.12   -20651.295    1315.3721   -21966.667   -2310.6555    2705.2943     78.51856    22.062624    25.578225 
 3992400     222.1927   -557.92022    216009.12   -20676.141    1292.1751   -21968.316   -1730.7981    2701.4883    78.518656    22.061981    25.577036 
 3992600     220.4335   -519.62144    216009.12    -20677.56    1281.9444   -21959.505   -1569.8578    2701.2488    78.519323    22.062584    25.575319 
 3992800    227.12871    -601.4868    216009.12   -20632.348    1320.8807   -21953.229   -1942.0858    2704.9259    78.519515    22.062592    25.574785 
 3993000    219.75872   -496.69915    216009.12    -20735.05    1278.0201    -22013.07   -1504.1823    2700.2869    78.520843    22.062265     25.57299 
 3993200    220.03473   -598.45674    216009.12   -20705.125    1279.6253    -21984.75   -1925.5048    2702.2701    78.521366     22.06222    25.580437 
 3993400    228.34889   -624.88273    216009.12    -20614.33    1327.9767   -21942.306   -2034.2359    2704.2175    78.522399     22.06234     25.58072 
 3993600    227.70843   -520.55774    216009.12   -20648.253    1324.2521   -21972.505   -1597.7758    2699.4878    78.521535    22.061928     25.57879 
 3993800    225.28652   -670.77743    216009.12   -20686.189    1310.1674   -21996.357   -2206.9001    2702.7426    78.521204    22.060807    25.578184 
 3994000    220.55625   -684.53403    216009.12   -20649.273    1282.6582   -21931.932    -2297.465     2705.404    78.520974    22.061011    25.581066 
 3994200    221.87845   -538.12849    216009.12   -20674.887    1290.3475   -21965.234   -1696.5703    2699.4644    78.519915    22.060823    25.579569 
 3994400      225.126   -635.00238    216009.12   -20653.994    1309.2338   -21963.228   -2090.9722    2703.9349    78.520423    22.060604    25.575909 
 3994600    224.97299    -667.7903    216009.12   -20688.393     1308.344   -21996.737   -2233.2192    2704.8378    78.521247    22.060599    25.580542 
 3994800    227.88411   -548.69556    216009.12    -20634.22    1325.2738   -21959.494   -1750.3287    2699.8029    78.521702    22.060409    25.573757 
 3995000    223.07976    -586.7584    216009.12   -20667.632    1297.3338   -21964.966   -1858.6272     2701.894    78.521746     22.06058    25.576081 
 3995200    220.82668   -644.87722    216009.12   -20730.767    1284.2309   -22014.998   -2116.1483    2706.1339    78.521587    22.059894    25.577253 
 3995400    229.31509   -517.31535    216009.12   -20644.044    1333.5958    -21977.64   -1522.9038    2700.1906    78.522292    22.058823    25.575253 
 3995600    226.83982   -575.40798    216009.12   -20566.342    1319.2007   -21885.542   -1834.8563    2702.7545    78.523696    22.058909    25.575194 
 3995800    227.98016   -611.50022    216009.12   -20640.406    1325.8324   -21966.238   -1961.6597    2704.1795    78.524819    22.058509    25.571411 
 3996000    230.07416   -511.71772    216009.12   -20633.983    1338.0102   -21971.993   -1583.8842    2701.8383    78.525085    22.057879    25.574194 
 3996200    220.93829   -588.68732    216009.12   -20580.774      1284.88   -21865.654   -1898.3523    2702.5987    78.525461    22.057638     25.57883 
 3996400    223.98899   -602.92047    216009.12   -20660.319    1302.6215   -21962.941   -1958.1939    2704.2208    78.526224      22.0577    25.579733 
 3996600    222.42886    -509.4219    216009.12   -20689.382    1293.5485    -21982.93   -1558.7673    2702.1082    78.526893    22.056307    25.578889 
 3996800    215.67326   -580.09217    216009.12   -20701.612    1254.2609   -21955.873   -1803.8902    2701.8774    78.527619    22.055969    25.574704 
 3997000    221.77262   -627.66955    216009.12   -20601.571     1289.732   -21891.303   -2055.3405    2704.1453    78.527613    22.056666    25.577064 
 3997200     225.4139   -511.31298    216009.12   -20652.754    1310.9082   -21963.662   -1544.8661    2702.8187     78.52632    22.056095    25.582119 
 3997400     231.6909   -610.01473    216009.12   -20614.084    1347.4124   -21961.497   -1970.4486    2702.4362    78.526206     22.05693    25.580149 
 3997600    226.40689   -613.03103    216009.12   -20611.747     1316.683    -21928.43   -2003.9342    2702.2661    78.526784    22.055745    25.574111 
 3997800    218.94294   -526.01165    216009.12   -20675.352    1273.2759   -21948.628   -1597.8046    2702.7288     78.52592    22.055832    25.581425 
 3998000    218.58988   -584.96255    216009.12   -20696.242    1271.2226   -21967.464   -1862.8848    2702.8358    78.525643    22.054973    25.585364 
 3998200    222.55356   -622.88789    216009.12   -20672.283    1294.2737   -21966.557   -2025.7968    2702.9466    78.524755    22.055065    25.587124 
 3998400    227.28714    -544.0245    216009.12   -20626.254    1321.8021   -21948.056   -1693.5844    2702.1679    78.523988    22.054066    25.587212 
 3998600    226.10518   -624.57429    216009.12   -20626.812    1314.9283    -21941.74   -2038.3843    2703.4618    78.523812    22.053568     25.58184 
 3998800    225.22703   -703.11591    216009.12   -20656.981    1309.8214   -21966.802     -2395.57    2703.3893    78.524497     22.05284    25.582681 
 3999000    235.47821   -513.08232    216009.12   -20613.621    1369.4378   -21983.059   -1590.9355    2702.6079    78.524664    22.052173    25.573561 
 3999200    217.49178   -608.11839    216009.12   -20686.211    1264.8366   -21951.047   -1981.2105    2701.8666    78.524876    22.051786    25.578502 
 3999400    226.13931    -563.5513    216009.12   -20651.372    1315.1268   -21966.499   -1753.4952     2702.888    78.525526    22.051382    25.579926 
 3999600    225.46814   -420.14572    216009.12   -20698.922    1311.2236   -22010.145   -1171.8549    2700.1399    78.525488    22.049936     25.58583 
 3999800    229.19517   -547.45691    216009.12   -20652.801    1332.8983   -21985.699   -1738.6591    2703.9039    78.525374    22.049486    25.585737 
 4000000    229.13458   -573.84067    216009.12   -20616.147     1332.546   -21948.693   -1850.4892    2702.5384    78.526002    22.049034     25.58627 
Loop time of 6448.2 on 100 procs for 4000000 steps with 9248 atoms

Performance: 535.963 ns/day, 0.045 hours/ns, 620.328 timesteps/s
97.4% CPU use with 100 MPI tasks x no OpenMP threads

MPI task timing breakdown:
Section |  min time  |  avg time  |  max time  |%varavg| %total
---------------------------------------------------------------
Pair    | 0.29142    | 1658.3     | 4547.9     |4426.9 | 25.72
Neigh   | 2.3348     | 105.6      | 237.12     | 823.1 |  1.64
Comm    | 74.873     | 1240.3     | 4359.8     |3641.9 | 19.23
Output  | 70.902     | 70.996     | 72.399     |   1.7 |  1.10
Modify  | 424.25     | 2759.7     | 6212.5     |4061.8 | 42.80
Other   |            | 613.3      |            |       |  9.51

Nlocal:    92.48 ave 184 max 0 min
Histogram: 30 0 0 19 1 0 1 14 19 16
Nghost:    682.77 ave 981 max 480 min
Histogram: 20 20 14 6 0 2 8 9 11 10
Neighs:    0 ave 0 max 0 min
Histogram: 100 0 0 0 0 0 0 0 0 0
FullNghs:  9370.48 ave 20603 max 0 min
Histogram: 30 20 0 0 0 0 1 16 17 16

Total # of neighbors = 937048
Ave neighs/atom = 101.324
Neighbor list builds = 400567
Dangerous builds = 0
write_data 		${DIR}/data.${NAME}_run
write_data 		run_2/data.${NAME}_run
write_data 		run_2/data.ibeam_cooling_2_run
Total wall time: 1:47:44
