LAMMPS data file via write_data, version 29 Oct 2020, timestep = 35681

2577 atoms
1 atom types

0.0 78.752 xlo xhi
0.0 75.0213558587152 ylo yhi
0.1338666642686519 29.866133335731003 zlo zhi

Masses

1 18.015

Atoms # atomic

1119 1 19.03470531711973 71.42847394039694 19.31732585999021 0 -1 0
423 1 19.28397724841062 72.08784543843197 16.741665926700133 0 0 -1
41 1 38.74193989042054 11.035981877601548 4.7970538399876235 0 0 1
14 1 23.095728709911064 2.4819246580211805 2.035570744072664 0 0 0
295 1 38.5372487616002 8.853996173046191 16.35234862322333 0 0 0
109 1 27.320194394269166 2.5762029632821566 1.5052708865821767 0 1 0
134 1 34.30971938685923 1.88924135490072 1.1959410627276879 0 0 1
261 1 29.869349637959182 2.19741344635529 0.31758168757340655 0 0 1
908 1 37.05807114791577 3.215126377373993 5.602814660942725 0 0 0
185 1 39.26914456435722 4.059593612002861 9.166051539362826 0 0 0
13 1 23.32803372052963 4.911021992831329 0.5271889608442853 0 0 1
379 1 27.324603825325823 6.908549014615028 0.14202380269558051 0 0 1
404 1 30.635335713103604 4.3590309879016935 1.757072695541359 0 0 1
366 1 33.43134110341376 4.392799848129591 2.0056526772718763 0 0 0
335 1 37.61930865216706 6.078593277642198 2.5315803299754562 0 0 1
898 1 25.122468775059012 0.6809514353925435 1.0924116554031662 0 1 1
78 1 22.66447948675732 8.956752769567514 1.3529710702567346 0 0 0
397 1 23.87660030818546 6.8864419630099745 2.3182107432473433 0 0 1
15 1 26.426424567521583 7.6713579245939885 2.753408000630629 0 0 0
30 1 26.615644899517605 10.2488632627244 29.00479244739461 0 0 -1
354 1 34.21762512981612 6.918684022913304 0.1777626623019195 0 0 1
23 1 34.25146202352842 8.095076715238422 2.581029260971765 0 0 0
129 1 22.455776290135603 13.092029274625776 3.1508387354111163 0 0 0
268 1 26.460738144301096 12.427372138104833 2.0549752885956147 0 0 1
213 1 24.60015070860633 11.328312748993579 0.8149979750390361 0 0 1
11 1 27.347961408642448 10.310069274353749 3.3142515986092325 0 0 0
318 1 30.604171252987904 11.02915863027794 3.114602225314515 0 0 0
317 1 28.64048488790307 9.669560524523726 0.9399220819735361 0 0 1
76 1 31.60600417161408 10.010676618478628 29.51151468519363 0 0 0
255 1 33.08239566810596 10.789663155811228 2.0214671046070936 0 0 0
66 1 37.798991692722836 10.062417135940894 0.21744179989882248 0 0 0
200 1 22.17537605688533 14.410339617900501 0.6319884606545648 0 0 0
143 1 27.085284241540595 13.950831189890437 29.504681663582396 0 0 -1
283 1 31.162140655617474 15.516990824202392 1.7770950940207995 0 0 0
25 1 34.49562202708566 13.061365765669203 0.209325402458626 0 0 1
212 1 36.65576450044312 12.777516139232546 1.8516718595564892 0 0 0
87 1 23.0032930163647 17.142900728693014 2.7032392717162725 0 0 0
36 1 22.992955982149653 17.01388534545738 29.558766826494654 0 0 -1
94 1 27.44437107468676 16.65046513645731 1.7843396431381602 0 0 0
51 1 25.61065206310086 21.23303102243415 1.8575553192289174 0 0 0
39 1 29.54318633289583 14.997510905363326 29.06103416253813 0 0 -1
38 1 33.597938715000076 15.75645419036412 0.7826456573931327 0 0 0
112 1 37.743078000890286 18.07641959492392 2.4990938515844086 0 0 0
531 1 21.846689440224647 21.46418440695292 2.445219941758112 0 0 0
150 1 22.088041508060982 19.997530903907165 29.53575993762495 0 0 -1
96 1 27.377575553911825 19.936797725656874 29.350186904454485 0 0 0
7 1 30.26431748093418 20.703583232800604 0.5637260559095947 0 0 0
105 1 35.610681366452845 19.270504899651932 0.9109381628899453 0 0 0
1390 1 36.560764780149505 21.73112398016034 0.4743004163593199 0 0 0
92 1 23.38879724569541 23.11611796415399 0.42317886311952074 0 0 0
103 1 30.8148107523476 23.305614263942708 0.9933078810097705 0 0 0
1701 1 35.70058215808081 0.1447240683898246 27.39398220561464 0 0 0
160 1 37.75624742220091 23.103399514010885 2.4292578985253215 0 0 0
1669 1 39.305893199485354 3.0304948269004055 27.53621024207454 0 0 0
50 1 30.105927740579208 24.159794350290017 28.28771566982186 0 0 -1
115 1 23.7684720806025 3.3556383544648893 4.419866267211709 0 0 0
106 1 23.70495570954245 2.2277623385728145 7.468794778040152 0 0 1
365 1 26.576356082831758 3.159195468482753 4.361329722168823 0 0 1
74 1 26.355230004828606 1.1551405157571195 6.269032983856412 0 0 0
4 1 31.179102778794988 2.830900335367951 5.6765182443985855 0 0 0
61 1 34.3228004862393 1.0513084652783404 8.211076926346186 0 0 0
2305 1 38.119157448471675 0.6544958523233722 5.822317856792381 0 1 0
59 1 34.03746638274186 3.125223809642227 5.715970970805627 0 1 0
21 1 19.949697116123897 5.325669204214003 5.858611522229363 0 0 0
118 1 27.662791220828204 5.54287547092423 4.321600772640809 0 0 1
124 1 30.370985992506498 5.02717279644488 4.231576715967435 0 0 0
426 1 35.08682425996336 5.155352258396765 4.012950645945833 0 0 1
2260 1 38.49494039621427 0.19311683022896992 17.37260671680705 0 1 0
62 1 22.450591925660003 5.76250708470175 4.464962438351401 0 0 0
79 1 28.04137575498055 7.293656282796863 6.460417901739781 0 0 1
425 1 32.49627366173968 6.693488846480208 4.622422732665726 0 1 1
19 1 35.39422443146647 7.271605297481075 5.857107951179572 0 0 0
130 1 34.31887777474188 9.492757997718192 5.84002764328702 0 0 0
394 1 36.87232300111586 8.834417051732595 3.0738846920281144 0 0 1
17 1 38.079474950647686 8.198389772945733 5.818757939492121 0 0 0
75 1 25.523052782117166 12.922014330621234 6.81760424093786 0 0 1
68 1 28.44443804437192 10.029173835888638 5.902875636461096 0 0 0
151 1 28.15598636337582 12.271930071145373 7.001994975327796 0 0 0
31 1 31.295157321630402 13.547036881831044 3.7668894852382584 0 0 0
188 1 31.602722916600847 9.318717354115147 5.239558099223599 0 0 0
156 1 21.60353540964688 15.308193533968202 4.254581331714395 0 0 0
72 1 24.997737160781362 13.883128856405369 3.97120510838154 0 0 1
88 1 25.476259097481147 16.42483729389752 3.5894982762578005 0 0 1
16 1 34.183310476972714 13.52014988247236 3.6767134173965155 0 0 0
48 1 38.359252701447105 14.749956522128986 2.9161184590770612 0 0 0
1363 1 35.710314710545795 11.044917383557685 4.032652228459948 0 0 0
684 1 23.679296452702424 19.931727495071737 3.476065376087422 0 0 1
89 1 28.190369874812482 19.223157526578316 2.3734716628949193 0 0 1
81 1 28.719974266838605 16.926682271959788 4.998467533740263 0 0 0
91 1 30.973638964357463 17.67168152774445 3.4835354544460135 0 0 0
133 1 35.30244344975772 16.11083140726307 2.9827357281144216 0 0 1
258 1 37.217615013802124 17.46212897802686 5.4497638050009884 0 0 0
208 1 27.624275891671473 22.26962233244772 3.964452899578913 0 0 0
93 1 29.90060486287599 21.223476819706566 5.140431903854657 0 0 0
430 1 31.7391676290656 20.259710314044263 3.153250761361373 0 0 0
98 1 34.53439741656281 20.34597996678335 3.3919520578474924 0 0 0
43 1 23.14228740092847 23.60565168275604 4.08898050852582 0 0 1
1719 1 39.159351864092585 19.662086845908547 24.64712163095989 0 0 0
450 1 28.436192578131607 24.449936114446423 24.260894910884026 0 0 0
1343 1 38.263838355927696 21.100192986545736 28.199557235859597 0 0 0
2306 1 38.386743128488845 1.729728223770372 23.673990546039057 0 1 0
1451 1 35.4134985351745 23.10598122246434 4.1308710124777726 0 0 0
497 1 38.57348600170444 22.28521160382473 4.964021670978756 0 0 0
111 1 25.169178154908057 1.2750635781845059 10.304079344172871 0 1 0
1021 1 26.911081493674807 2.333421138775508 8.72995018110749 0 1 0
63 1 29.580390500951378 2.0510973039513924 9.328785895899372 0 0 0
56 1 30.748476933479925 0.17485641519184786 5.70279969429108 0 0 0
67 1 21.19190464066799 5.8246018623018125 8.346686789078348 0 0 0
187 1 23.143739679127552 4.389079334234964 9.302816048895123 0 0 0
69 1 26.014565211628234 5.089900284753587 8.976804750517958 0 1 0
1352 1 31.077687437911067 3.92433251966855 7.938015332840519 0 0 0
168 1 29.93011197996971 6.484935575538781 8.24952121691545 0 0 0
71 1 33.64776902560746 3.780703836038843 8.6934450084669 0 0 0
163 1 34.705942305436785 6.439633509862373 8.579143308574213 0 1 0
1165 1 36.36576180400551 1.5918786734030221 15.333614264335964 0 1 0
179 1 20.46228392106938 8.196836238757927 10.15161597186203 0 0 0
391 1 22.88238737760284 7.210420736696783 6.838720386167494 0 0 1
22 1 25.565978635110497 7.33332878727131 7.835321196758343 0 0 1
125 1 32.87953986626007 8.175907149154149 9.890984436120446 0 0 1
132 1 37.05514272529631 5.621995403005661 10.106225655457951 0 0 0
120 1 21.404818270058314 9.078521391667381 7.751832497557812 0 0 1
9 1 24.693696953592458 11.246990455537723 8.893423187279069 0 0 0
190 1 29.68539912281105 11.141245929157526 9.444367663791425 0 0 0
180 1 31.239958562406482 9.034787328537389 8.164947180859963 0 0 0
24 1 34.10443971321349 11.076568667146448 8.043435471993677 0 0 0
90 1 21.322939655069604 14.349331634173149 8.957896287804346 0 0 0
196 1 22.468852746827075 16.182193644964368 6.896072543674645 0 0 0
37 1 25.77790502846 17.799793383265445 5.806560488152002 0 0 0
95 1 25.16561142994172 15.527966083458809 7.577483686151696 0 0 1
146 1 29.61526401851538 14.421280610958243 5.61972453616522 0 0 0
182 1 32.14577669423355 12.64847596410622 9.3278026997902 0 0 0
139 1 35.15726408389489 13.51176137698536 6.612507523536102 0 0 0
1401 1 37.75295959400004 14.585417540863887 5.75742701269403 0 0 0
141 1 36.392964660149765 12.527883279633844 9.247396916713646 0 0 0
207 1 21.99020408082847 18.896053421502902 7.1456487845473635 0 0 0
202 1 24.363998966131888 20.699182828005142 6.333086332807753 0 0 0
144 1 26.782417033753624 16.344105951629494 9.716384971290514 0 0 0
138 1 29.456050915227664 19.1807586900632 6.573153038164274 0 0 0
153 1 31.441042636683115 17.990714039414716 8.044204150301656 0 0 0
99 1 33.52568523830474 17.296861105304288 4.862629071696093 0 0 0
148 1 33.830190346414135 15.91297977311338 7.363326157086758 0 0 0
1421 1 35.92120136893309 16.645338844925778 8.96748530544391 0 0 0
1436 1 38.513208863943575 17.757453450782297 8.401301893724252 0 0 0
311 1 25.72596093432023 23.280185227704642 5.414121988205109 0 0 0
140 1 27.254168455132934 19.813594713207493 7.5697063784193785 0 0 0
159 1 35.34328260693036 19.280430261039257 5.934314571584309 0 0 0
1334 1 36.58917712298763 21.68452542783549 6.493355771022495 0 0 0
157 1 26.221948504910216 22.349302161709176 8.008959589353116 0 0 0
1687 1 38.33282836547686 10.482060772672957 9.239301193818271 0 0 0
104 1 30.209279260213037 23.505151287669083 7.074729244947147 0 0 0
1690 1 37.94849618549811 18.639375850731064 26.954885166980702 0 0 0
211 1 33.89344123406431 19.73607854653302 8.584812040119708 0 0 0
8 1 21.492904813987835 0.53506781819256 7.529436834499181 0 0 0
210 1 20.18362977618376 0.8509160095767594 14.510920889733445 0 0 0
119 1 24.537421795600036 2.3292386594435177 12.908505979515896 0 0 0
253 1 31.812679069590384 24.70150257952216 19.930881535507748 0 0 0
44 1 21.686193864601194 23.172936036924494 27.92755581860166 0 0 -1
219 1 29.791714936563125 1.2131910384848845 14.526777143131772 0 0 0
171 1 23.8103316842415 5.237103425250511 12.101561264349112 0 0 0
117 1 28.03001300723312 6.209206591228855 10.603422375992363 0 0 1
116 1 29.21688213609575 4.075426173207222 11.901590110190604 0 0 0
123 1 34.20825820635205 1.8176514874170615 11.28018132681317 0 0 0
1272 1 31.018796482042923 5.376104890704609 13.819523384010658 0 1 0
963 1 39.123487613114364 1.3608591011970128 9.990705279038334 0 0 0
177 1 22.99157165193243 7.768485441810773 11.297983724803467 0 0 0
80 1 25.43074869307045 8.798525809511759 10.284415464685404 0 0 0
288 1 28.020898988046397 9.17909125144601 10.872977479219252 0 0 0
220 1 32.53720794211895 7.547451483657191 12.751824055020473 0 0 0
70 1 37.36523281350365 7.350387405356375 12.20360885540109 0 0 1
2303 1 36.76311990708323 2.392541401257594 26.325648929347764 0 1 0
183 1 26.4020417965438 9.17850807940001 14.030871682635544 0 0 1
127 1 32.601868027980835 10.632865445457785 14.123124177483499 0 0 0
1477 1 34.71659500504952 10.072429214471677 10.86848630945334 0 0 0
194 1 33.37048968355131 12.252225735862314 11.876912477606252 0 0 0
1480 1 37.34598580395462 9.964083950158134 11.608243556616927 0 0 0
1787 1 34.351282116632255 23.031324717139068 28.858841382214862 0 0 0
122 1 22.31507352524076 11.676921501494249 12.035208032612886 0 0 0
137 1 24.830085679339895 12.672174557462137 11.50432273023256 0 0 0
229 1 26.943643089545017 11.622075159905835 12.708937889340342 0 0 0
349 1 29.250022015892142 12.581650682729478 11.87821707410334 0 0 0
126 1 30.89165648729407 14.863369804726506 7.933408038724377 0 0 0
193 1 35.39237029900911 14.095789251192457 12.695414913151527 0 0 0
1702 1 37.63817972261676 11.783075385874927 13.411020370900346 0 0 1
1486 1 37.33850031181332 15.05390419025514 10.837764020867919 0 0 0
228 1 22.346775492978917 16.200100694641826 10.979053304896365 0 0 0
192 1 22.453395719738324 18.642039460725012 9.92622533770502 0 0 0
186 1 25.003706508614528 15.445495378488475 11.586397703343454 0 0 0
145 1 29.39719869072958 15.10773533509628 10.500305579417507 0 0 0
147 1 30.815219933357948 16.78108121202145 11.83103113152305 0 0 0
1660 1 35.783035843819235 16.932127673707488 13.129580011804004 0 0 0
244 1 24.631683024709254 19.79455218341283 11.23802127496344 0 0 0
152 1 27.11725733032188 19.016670300456806 10.235642376836553 0 0 0
154 1 29.317430880966974 20.68682954557141 10.99172085372308 0 0 0
239 1 34.91420362818873 18.447929484107483 10.89314528597893 0 0 0
5 1 31.733200244321857 19.13875267218297 10.605781407328786 0 0 0
308 1 38.53283570755605 20.64860906758267 8.826921968962452 0 0 0
422 1 37.04933059790519 20.059266487819876 11.25871368656438 0 0 0
201 1 24.579368684272115 22.28422983169933 10.273435204327168 0 0 0
131 1 21.84537118189436 11.582149577236061 9.341359583966314 0 1 0
329 1 33.307249869056164 0.5343142745375795 22.374272792834482 0 0 -1
97 1 28.696821402459 23.096458078620355 9.260778557326475 0 0 0
1705 1 37.91709227112115 17.348112865006716 23.72537480319738 0 0 0
254 1 34.706373855631725 22.523676472702853 9.01111419492635 0 0 0
259 1 35.3404094520485 22.234723923518917 11.579942943040788 0 0 0
214 1 22.439104870419293 2.71021380315303 15.338002204106688 0 0 0
178 1 25.20786368954821 1.3408239563661237 15.647859432848465 0 0 0
46 1 24.68446270100769 19.291708931844653 28.186707185467537 0 0 -1
1561 1 31.739602617206742 4.083955096625701 16.36106480204313 0 0 0
1175 1 35.517529142403724 4.269952389191726 16.066293243865047 0 0 -1
224 1 22.512041074729332 5.441189696704316 14.53651054128206 0 0 1
339 1 24.966283342623306 6.166624797916264 15.990845683331452 0 0 0
174 1 27.347254297503742 2.950406997171496 13.802519829083277 0 0 0
1521 1 34.0555540344054 4.2612116177698 13.231323692678112 0 0 0
223 1 21.075666440174874 7.5365739692921 15.790976839502235 0 0 0
272 1 26.400115050643784 6.561152296045625 12.753071934027226 0 0 0
166 1 29.10149712217175 8.031537984319769 14.960101265314846 0 0 0
274 1 34.93469860929708 6.854228651475577 13.674442667982934 0 0 0
281 1 35.86118086131997 7.269133067315862 16.414958772041814 0 0 0
413 1 22.97686120644276 0.2550778233493519 26.60654845781595 0 0 0
222 1 21.663299261001903 9.032080913998087 13.495624201139966 0 0 0
173 1 24.001852031792147 10.179102936950734 14.868953129795303 0 0 0
336 1 23.97040488021323 12.820268304189753 16.172104645700976 0 0 0
230 1 30.21225743388236 9.410006574280352 12.621127454338485 0 0 0
287 1 28.07840979789102 10.027454441163588 16.599913712455525 0 0 0
226 1 32.95308535534047 12.704695609441318 16.94442917560589 0 0 0
1581 1 34.43662413610649 10.393417056715775 16.291648419920502 0 0 0
20 1 36.826860611558324 11.093556441883893 15.992455888780846 0 0 0
233 1 22.033468074985205 14.264266034144468 13.06832732544646 0 0 1
285 1 21.827437846801747 14.447217725769768 15.894912753375415 0 0 0
234 1 26.340232581865852 13.517107967988505 14.869423903316276 0 0 0
286 1 28.716658707860343 12.892224109936047 16.41330896712632 0 0 0
235 1 30.768630505672665 12.808331916467367 14.63261607955467 0 0 0
240 1 35.08896697328255 14.0073171372528 15.513884739431509 0 0 0
231 1 38.853023287569506 13.22050459435786 16.622545579550952 0 0 0
301 1 37.332874528673386 15.492749894432649 15.826920662827208 0 0 0
360 1 25.055578889172427 18.04937152886124 15.574476883063268 0 0 0
243 1 26.529248999438323 15.883586834203994 13.930899822098272 0 0 0
245 1 29.124431714513875 17.363465605892596 14.02536226430216 0 0 0
189 1 32.40085150111936 14.903105691165974 13.702849252942862 0 0 0
199 1 33.70976181678212 17.295151303519425 15.155324431243772 0 0 0
1375 1 38.668220952934455 16.8729559110497 13.5240297169559 0 0 0
256 1 25.54934290534543 20.27724225696941 13.999611962585172 0 0 0
203 1 28.31093510858077 19.77341131265083 13.472392329554152 0 0 0
204 1 33.041323965560245 21.271385655749533 12.761570300829245 0 0 0
1545 1 32.89147676702499 19.952507203025196 15.32207886310456 0 0 0
247 1 38.42094093804198 19.684120754399547 13.779129940901887 0 0 0
251 1 25.540183937876492 22.210768011038052 16.35165209540162 0 0 0
304 1 27.02333335317646 23.84057407338062 14.551260214720601 0 0 0
205 1 29.36748360302421 22.270978494405337 14.61573736661037 0 0 0
85 1 31.51594259719749 23.706617777706093 13.494276819619332 0 0 0
100 1 33.49198670673655 24.45791663937001 25.675850783359564 0 0 0
958 1 28.137617065618546 1.8453493189295294 16.605561956666495 0 0 0
279 1 23.050639980790002 1.3143535200224667 19.38631442268236 0 0 0
2354 1 38.02284448954696 1.2675688585816864 12.708274022447807 0 0 0
810 1 23.93631297993942 24.29490241831571 23.080985779300654 0 0 -1
162 1 36.06105740207786 1.3174274458276876 18.2033030989265 0 1 0
216 1 19.964609234893143 2.735204309373068 16.991278784945305 0 1 0
324 1 22.10438677775902 4.020854606148349 19.742784697085877 0 0 0
1122 1 29.442146161517176 3.948178174817442 17.781764515303035 0 1 0
55 1 24.561382881243425 3.822339671147006 17.54067072950686 0 0 0
184 1 29.56601487774783 4.058286060759612 20.378966619495817 0 0 0
859 1 33.14356211791785 6.214508289470438 17.45361066030059 0 0 0
1174 1 35.141678446077506 3.887538509162984 19.769513705301538 0 0 0
269 1 20.286299293332505 5.53322126008015 17.959189976902437 0 1 0
276 1 22.46103203756413 7.444907359659506 19.386482100881803 0 0 0
225 1 23.633699268902767 8.707813629248923 16.97810024401919 0 0 0
292 1 27.596049393249242 5.331942098816482 15.314026730163508 0 0 0
344 1 31.510253436333507 8.899597010910032 16.23189939923715 0 0 0
290 1 35.183308977956564 7.887331583380409 19.438426214946745 0 0 0
267 1 37.32224998403815 5.187946078305715 18.447667285782803 0 0 0
164 1 21.15430940428593 19.020287640697273 25.664006833572653 0 0 -1
330 1 24.317322856369515 12.146874569302375 19.049047639273066 0 1 0
293 1 26.123874431265317 9.908445828933761 18.670288832759766 0 0 0
198 1 30.55993319006906 10.768723885809614 17.95925864612397 0 0 0
227 1 33.83852041922113 10.424410768882893 19.234861875215493 0 0 0
343 1 30.837055348752077 8.03670107392663 21.253272263640664 0 0 0
282 1 38.22408285396292 7.9958947693757025 19.146573897471473 0 0 0
297 1 29.707513163276502 14.94898833857208 18.066447851997783 0 0 0
1293 1 34.8745473220227 16.79019123927402 17.575483022525045 0 0 0
1370 1 35.59296088155891 12.727304967400071 20.44136978358741 0 0 -1
291 1 22.34660266758789 17.15176815711552 16.469933833199 0 0 0
402 1 23.116876873043264 17.18043054319327 19.159514701728238 0 0 0
303 1 25.51256401949571 18.354379776701272 18.236594308268693 0 0 0
362 1 28.035304890806692 16.946016591790727 19.184402648479224 0 0 0
299 1 31.137306304445904 16.89938674966767 16.100402976130866 0 0 0
345 1 34.09394916897595 14.597786554236608 19.06371614425687 0 0 0
298 1 34.01894382561288 18.73312515972401 19.275386632340794 0 0 0
1599 1 38.02089020312854 17.477392200729476 17.69723802027849 0 0 0
309 1 26.425243190432543 20.820886417244484 18.53079934201139 0 0 0
250 1 28.842934994998977 19.682326920167696 19.14647549107017 0 0 0
236 1 29.605000264520214 21.832605095003746 17.378411495683707 0 0 0
246 1 31.412669227267138 19.329734979039017 17.744111599590816 0 0 0
307 1 35.99179969754593 21.245238353013715 19.266790473352884 0 0 0
316 1 35.056075144231805 21.257091987030314 16.650655244288963 0 0 0
1565 1 37.68190340563101 20.020592157221134 16.415564326788754 0 0 0
648 1 32.48490977139526 24.023802235877902 8.655417634877045 0 0 0
315 1 32.30180475402676 24.69632121701644 16.04400761720549 0 0 0
541 1 35.48807003982571 23.97175568785449 15.841357162972864 0 0 0
265 1 36.56629203624691 3.699219799748092 12.289114421359086 0 0 0
1569 1 37.96893160495966 4.522880112207035 14.72019736533987 0 0 -1
181 1 26.878949762549315 1.4908979948566832 20.586037493568615 0 0 0
175 1 31.047787081977432 17.900747438735 28.492361265352056 0 0 -1
263 1 29.769590204766942 1.197561608734476 21.174448466026547 0 1 0
176 1 32.70136759519229 1.8138776933994887 19.921733603069057 0 1 0
86 1 35.74521897864187 1.9261792428325453 21.822943938605764 0 0 0
341 1 24.508156537022003 5.774875013827504 20.806608341513886 0 0 0
340 1 26.459731458337284 4.218409891197095 19.785235101295424 0 0 -1
325 1 32.238238008851816 4.660658508577065 19.7512482023529 0 0 0
348 1 24.927696586319495 8.274944978140867 22.080463941788025 0 0 0
280 1 27.724190808523065 6.435341597686886 18.181721520874 0 0 0
238 1 30.501585074862408 7.311534780720207 18.555721383317092 0 0 0
333 1 33.213883165236105 6.391509807277703 21.80530917880487 0 0 0
332 1 35.69707930405526 8.42255575076981 22.059513773356237 0 0 0
387 1 36.68874825286585 6.0949169874183475 23.44800567661984 0 0 0
1228 1 31.14428962851381 0.9285125804482982 17.722975170489402 0 0 -1
45 1 28.396524203756204 22.24204298779695 25.897141165322736 0 0 0
323 1 21.954323387628094 9.651690746960847 23.527098513036087 0 0 0
355 1 23.059753965042447 10.091224914070835 20.863293144667974 0 0 0
337 1 27.339934832658862 8.536392441397933 20.601182148449823 0 0 0
357 1 27.11074539117943 12.73004016676152 22.641118376119497 0 0 0
350 1 28.692306841830504 10.459361017135494 21.838674784119053 0 0 0
1696 1 37.43757306309401 10.287023085832699 20.690168676649517 0 0 0
107 1 32.50992419670516 20.92557546134046 28.184513871745672 0 0 0
347 1 25.067233217408244 13.834265468758986 21.23534754281902 0 0 0
300 1 31.599101548838867 13.567016642995743 20.097075879933175 0 0 0
237 1 31.389032683007425 10.912941080323106 20.70765322524752 0 0 0
1642 1 34.86878211626954 13.522575202800466 23.01387040187419 0 0 0
1649 1 37.97212557682835 14.362525305100371 20.706038954231634 0 0 0
242 1 25.706515638717356 16.347238532413733 20.89174384977083 0 0 0
358 1 29.082683126618857 17.260311960867597 21.66100781377909 0 0 -1
294 1 31.602986810108554 15.787450256813532 21.733479017454368 0 0 0
411 1 34.79377204705622 16.96426543341267 20.960375600880646 0 0 0
1657 1 37.81843201477015 17.276542478616342 20.709955136442993 0 0 0
361 1 23.304744052022656 18.99882783837779 21.545026043890225 0 0 0
305 1 25.247739740138687 21.104402680631573 21.007074565695827 0 0 0
35 1 28.359798072079368 21.109043731909527 21.47420266771136 0 0 -1
195 1 31.473867667311175 18.949408389026484 21.12222897874126 0 0 0
1674 1 36.948044440996895 20.13763090660715 21.718777456685025 0 0 -1
296 1 23.69894498107824 23.464451147207686 20.4357961709575 0 0 0
149 1 29.05662471912831 24.30447400524275 19.223654460529723 0 0 0
364 1 32.38528269456051 22.558408183862774 17.719365495566503 0 0 -1
1710 1 38.0937747979663 24.327407516824156 16.877457578818145 0 0 -1
421 1 33.06774869333097 21.836942917786356 20.558301352922527 0 0 0
1716 1 38.15764307838216 22.05201830360239 23.194775397422525 0 0 0
1631 1 38.31190625642583 22.925794616444264 18.968153133320435 0 0 0
382 1 21.75317591548996 2.385883510050699 25.41467590385834 0 0 0
601 1 37.05993482562231 23.962257638842793 8.068141546606332 0 0 0
373 1 30.466812835804998 1.8914528475830679 23.687149866799288 0 0 -1
1634 1 39.27842595823742 10.606443425762357 22.649430634639344 0 0 0
1309 1 37.367530439780225 6.166738238138085 29.385168955979328 0 0 0
278 1 25.864234981136807 0.4641454828688726 22.900899040255347 0 0 0
135 1 35.530008262355985 3.719333081911844 24.130472950691775 0 0 -1
384 1 22.073277762465533 3.174553065269668 22.782697202509315 0 0 0
338 1 24.284559071404942 5.046930700803296 23.347768547092727 0 0 0
372 1 25.299418343826027 5.053348366483062 26.94167493082882 0 1 0
322 1 27.58068252966865 2.6317707533106267 23.701507030309106 0 0 0
378 1 26.857168578164686 5.467403408339153 24.314805962142138 0 0 -1
328 1 32.92732260830819 3.590934847729768 24.547813810097068 0 0 0
388 1 31.473230928594585 5.9328582569462895 24.101484826468948 0 1 0
377 1 23.453143281260765 7.5284359987582965 24.495946121006714 0 0 0
260 1 26.00819387149915 8.76660239308437 25.446382436956412 0 0 0
289 1 28.993653971452904 6.6996070976953055 23.031210471170592 0 0 0
327 1 32.786649349581566 7.74325806058186 25.69884215996918 0 1 0
248 1 39.15725948172414 10.13542915194231 25.760623513567268 0 0 0
389 1 24.026977205057317 22.365589242801867 25.66538155282608 0 0 0
403 1 21.767686775748942 10.894246267531251 27.355020777093223 0 0 0
398 1 23.314420136004532 11.486159943276784 24.844169952373086 0 0 0
331 1 26.12262088672004 11.519247901598439 24.906787015553213 0 0 0
342 1 28.79582113615037 9.015529980661919 24.140489257275142 0 0 0
400 1 31.028807798174054 10.118445682098676 25.201626286946244 0 0 -1
385 1 34.3532244709953 9.548948701215233 24.367452262206665 0 0 0
1703 1 36.2712735961777 10.658340146359397 26.073436932649837 0 0 -1
351 1 32.710834541916896 11.685542798132884 23.10521532006407 0 0 0
217 1 22.83974962582468 13.483826942023358 23.17513203074772 0 0 -1
406 1 25.320268530239275 14.647995908588486 27.323420806036953 0 0 0
399 1 28.516915493380964 14.949192753889736 23.718737102635664 0 0 -1
359 1 33.22230685248402 15.64073297944577 24.031650130251464 0 0 0
249 1 30.915838486622476 14.080833211970019 24.46380823411493 0 0 0
1704 1 35.964810296835935 13.611595540018273 25.59642729218458 0 0 0
1656 1 38.31033351785247 14.694563456616715 24.87133858578352 0 0 0
356 1 24.88263638336783 17.37648596735234 23.37935126727292 0 0 0
161 1 23.922226447328505 15.4763020170351 25.1241747119138 0 0 0
363 1 31.710748862849822 20.29306254984881 24.845873282821223 0 0 0
418 1 29.009480945593836 19.47054197898792 25.314151965514615 0 0 0
401 1 32.68472111154341 17.72930165546392 26.32004802225256 0 0 0
40 1 35.25450670404815 17.97982548080525 23.6601790872425 0 0 0
1456 1 35.00735502027955 19.138045550783048 26.725080331478363 0 0 0
414 1 21.554299720180566 20.53938822970832 23.377485710809417 0 0 0
416 1 23.914981060082358 19.51382421080989 25.680621361629637 0 0 -1
415 1 27.53191156297384 19.292554372520875 23.212249989512234 0 0 0
735 1 30.81572207439059 21.754524906663384 22.576659196860778 0 0 -1
410 1 34.305490689360354 20.772663131034424 23.237693659662316 0 0 0
346 1 34.70402727081347 21.696230510847478 25.774722421781316 0 0 0
101 1 26.207222858281987 22.195029278329642 27.562558364022152 0 0 -1
412 1 26.314494257681 22.547239396220558 23.318710044069665 0 0 0
814 1 31.194309398352125 24.38877937607121 23.713119579904678 0 0 0
1402 1 35.875918452026156 23.69894080970264 22.4698538554579 0 0 -1
729 1 38.554956939196856 23.53349425640612 10.456373089400902 0 0 0
1013 1 32.598539147302446 1.8835534123325368 14.692717095701969 0 1 0
1999 1 37.54845935240405 22.745529680639983 26.088523956323467 0 0 0
1214 1 27.06260903353615 2.6353118938113114 26.914357881386692 0 1 -1
914 1 32.7529410085498 3.5884587899605527 27.522691507220426 0 0 0
369 1 29.60611811847657 3.7622973191629923 27.554693865178066 0 0 0
52 1 36.86657796255679 2.3268232998577405 0.5448534038932061 0 0 1
383 1 22.677796964285058 4.319820470539122 27.214690915190058 0 0 0
114 1 26.063965622861527 4.374604887568231 29.62182938840141 0 0 0
165 1 29.85030057196316 5.939552268571635 29.46667045161629 0 0 -1
2261 1 35.38512582958879 4.5654229200910725 27.882299241526866 0 1 -1
380 1 37.89274022545753 3.4800593243651106 2.8059234496780356 0 0 0
396 1 21.482506247128487 6.766216776539862 26.529613945532393 0 0 -1
29 1 22.597545474273144 8.55589994394881 28.410041115488493 0 0 0
392 1 25.464483750619024 7.9061726873573095 28.068159496519975 0 0 0
390 1 32.04583273705565 7.347626017409607 28.28865533198233 0 0 0
386 1 35.50225852075964 6.641126003867794 26.21472446141755 0 0 0
197 1 34.04452334627554 10.88657009548541 28.378755144689844 0 0 0
27 1 36.18044074125039 8.586896061307781 28.48489981980793 0 0 -1
393 1 27.685932888433943 11.951194596979683 27.32457161357775 0 0 0
128 1 30.36227617902497 11.362561357634624 27.40613261539801 0 0 0
408 1 23.267812426214835 13.11112244682801 28.620766545400002 0 0 0
32 1 28.135470173769292 15.169131290007527 26.44142908647063 0 0 0
47 1 31.227475768271535 14.019624850191173 27.10804287091058 0 0 -1
53 1 34.273971389451866 14.970735618053313 27.40639797284566 0 0 -1
83 1 37.179284466597636 12.371634156771783 28.408864963459948 0 0 -1
407 1 22.001916080245074 16.35764358279252 26.87566434932856 0 0 -1
215 1 28.58417547055591 18.000633477793702 27.537276127169722 0 0 0
241 1 26.012077374377153 16.943375268718505 29.21934950820738 0 0 -1
33 1 36.11264608032565 17.002129186214617 28.898943093315513 0 0 0
1 1 38.455066325349335 15.29302276932704 29.009675031127856 0 0 -1
439 1 31.303016155398456 22.73990718348424 26.39095573255384 0 0 -1
136 1 20.307558699396083 20.580739799403748 27.723591176284046 0 0 -1
424 1 25.394502933217264 0.4200257939021869 28.069919011580343 0 0 -1
113 1 37.03914835598075 0.1896371637693988 8.330453524335242 0 1 0
1056 1 33.05221041902217 0.951350162302741 28.681204151521317 0 1 0
1612 1 39.14916464226227 19.62364985078316 4.415414388088107 0 0 0
169 1 25.87558968999977 24.120299052328093 11.829906305144512 0 0 0
102 1 26.610554781442293 23.653566257470292 1.0515428362634183 0 0 0
1225 1 33.30377678672287 0.45665884839376614 25.37114752526082 0 0 0
191 1 36.2864566783876 24.63364430281566 27.60230939195215 0 0 0
438 1 33.362447914234124 23.53896350775043 1.6595508867988185 0 0 1
158 1 29.017836412005416 24.382665888596687 2.661615856520629 0 0 0