
# read in graphite data
read_data data.graphite group graphite extra/atom/types 1
Reading data file ...
  orthogonal box = (0.0000000 0.0000000 0.0000000) to (78.752000 75.021356 10.062000)
  4 by 3 by 1 MPI processor grid
  reading atoms ...
  6816 atoms
  reading velocities ...
  6816 velocities
  read_data CPU = 0.012 seconds

# Insert water
read_data data.Ibeam_MLmW_235K add append shift 0.0 0.0 ${Z_G} group water offset 1 0 0 0 0
read_data data.Ibeam_MLmW_235K add append shift 0.0 0.0 10.062 group water offset 1 0 0 0 0
Reading data file ...
  orthogonal box = (0.0000000 0.0000000 0.0000000) to (78.752000 75.021356 39.928133)
  3 by 2 by 2 MPI processor grid
  reading atoms ...
  2577 atoms
  reading velocities ...
  2577 velocities
  read_data CPU = 0.005 seconds


# Define potential
# CHECK ON THIS %%%%%%%%%%%%
#
pair_style sw
pair_coeff * * MLC_e.sw C mW


# Delete water and ice atoms that are overlapping
#
delete_atoms overlap 2.5 water graphite
System init for delete_atoms ...
Neighbor list info ...
  update every 1 steps, delay 10 steps, check yes
  max neighbors/atom: 2000, page size: 100000
  master list distance cutoff = 6.6747184
  ghost atom cutoff = 6.6747184
  binsize = 3.3373592, bins = 24 23 12
  2 neighbor lists, perpetual/occasional/extra = 1 1 0
  (1) command delete_atoms, occasional, copy from (2)
      attributes: full, newton on
      pair build: copy
      stencil: none
      bin: none
  (2) pair sw, perpetual
      attributes: full, newton on
      pair build: full/bin/atomonly
      stencil: full/bin/3d
      bin: standard
Deleted 112 atoms, new total = 9281

write_data test.${NAME}
write_data test.Ibeam_235K
System init for write_data ...
Neighbor list info ...
  update every 1 steps, delay 10 steps, check yes
  max neighbors/atom: 2000, page size: 100000
  master list distance cutoff = 6.6747184
  ghost atom cutoff = 6.6747184
  binsize = 3.3373592, bins = 24 23 12
  1 neighbor lists, perpetual/occasional/extra = 1 0 0
  (1) pair sw, perpetual
      attributes: full, newton on
      pair build: full/bin/atomonly
      stencil: full/bin/3d
      bin: standard


# Fix graphite atoms in place
#
fix 1 graphite setforce 0.0 0.0 0.0
velocity graphite set 0.0 0.0 0.0
velocity water create ${TEMP} 120598 rot yes dist gaussian
velocity water create 235 120598 rot yes dist gaussian
timestep 5.0

# Define output
#

compute 1 water msd
compute 2 water stress/atom NULL
compute 3 water temp

thermo 100
thermo_style custom step c_3 press vol etotal ke pe c_1[4] density

# Neighbor lists
#
neigh_modify delay 0 every 1 check yes




# Set fixes
#
fix                 2 water momentum 10 linear 1 1 1 rescale
fix                 3 all nve
fix                 4 water temp/csvr ${TEMP} ${TEMP} 500.0 928347
fix                 4 water temp/csvr 235 ${TEMP} 500.0 928347
fix                 4 water temp/csvr 235 235 500.0 928347

# Run 0.25 ns equilibration
#
dump                1 all custom 100 eq.${NAME}.dump id type x y z vx vy vz
dump                1 all custom 100 eq.Ibeam_235K.dump id type x y z vx vy vz
run                 50000
Per MPI rank memory allocation (min/avg/max) = 5.739 | 5.941 | 6.148 Mbytes
Step c_3 Press Volume TotEng KinEng PotEng c_1[4] Density 
       0          235   -539.90553    235898.68   -22205.986    1726.0083   -23931.994            0   0.88882012 
     100    259.08924   -720.89067    235898.68   -22306.554    1902.9368   -24209.491     1.239421   0.88882012 
     200    258.86241   -124.52235    235898.68   -22548.983    1901.2709   -24450.254    2.4804367   0.88882012 
     300    247.33508   -191.19518    235898.68   -22673.015    1816.6059   -24489.621    3.5426723   0.88882012 
     400    246.66901   -504.37715    235898.68    -22794.53    1811.7138   -24606.243    4.3477111   0.88882012 
     500    244.27278   -349.38816    235898.68   -22887.808    1794.1142   -24681.922    5.0709474   0.88882012 
     600    239.45794   -196.38465    235898.68   -23064.628    1758.7505   -24823.378    5.8123149   0.88882012 
     700    238.34517   -277.00631    235898.68   -23081.772    1750.5775    -24832.35    6.4070318   0.88882012 
     800     233.1289   -451.01259    235898.68   -23166.858    1712.2655   -24879.123    6.8113469   0.88882012 
     900    235.88129   -246.46416    235898.68    -23159.41    1732.4811   -24891.892     7.216087   0.88882012 
    1000    236.35777   -379.90582    235898.68    -23134.52    1735.9807   -24870.501    7.7024344   0.88882012 
    1100    238.08066   -1.8624253    235898.68   -23185.497    1748.6348   -24934.132    8.3561466   0.88882012 
    1200    229.58924   -515.62213    235898.68   -23257.477    1686.2677   -24943.745    8.9108615   0.88882012 
    1300    229.18635   -341.77334    235898.68   -23220.216    1683.3087   -24903.525    9.3946516   0.88882012 
    1400     238.1228   -201.02885    235898.68   -23163.373    1748.9443   -24912.317    9.8006876   0.88882012 
    1500    235.62114   -318.22806    235898.68    -23184.74    1730.5704    -24915.31    10.214709   0.88882012 
    1600      238.238   -357.10215    235898.68    -23175.74    1749.7904    -24925.53    10.729756   0.88882012 
    1700    238.97279   -272.31497    235898.68    -23194.83    1755.1873   -24950.017     11.14082   0.88882012 
    1800    239.52003   -426.13355    235898.68   -23209.624    1759.2066    -24968.83    11.519009   0.88882012 
    1900    242.96464   -386.87284    235898.68   -23131.124    1784.5063    -24915.63    11.907186   0.88882012 
    2000    238.88822   -407.00831    235898.68   -23128.353    1754.5661   -24882.919    12.366757   0.88882012 
    2100    241.61711   -367.02595    235898.68   -23143.366    1774.6091   -24917.975    12.731855   0.88882012 
    2200    241.67038   -213.20308    235898.68   -23170.418    1775.0003   -24945.418    13.115967   0.88882012 
    2300    242.56004   -299.37008    235898.68   -23241.249    1781.5346   -25022.784    13.654202   0.88882012 
    2400    234.82966   -474.31144    235898.68   -23239.949    1724.7571   -24964.706     13.97153   0.88882012 
    2500    237.74162   -60.932903    235898.68   -23235.485    1746.1447    -24981.63     14.41155   0.88882012 
    2600    239.11188   -442.64651    235898.68   -23288.623    1756.2088   -25044.832    14.816655   0.88882012 
    2700    237.26666   -425.56908    235898.68   -23276.351    1742.6562   -25019.008    15.380332   0.88882012 
    2800    235.29783   -227.64434    235898.68    -23295.36    1728.1957   -25023.556    15.767606   0.88882012 
    2900    230.25911   -297.36377    235898.68   -23347.292    1691.1878    -25038.48    15.902538   0.88882012 
    3000    229.40472   -269.69492    235898.68   -23383.094    1684.9125   -25068.007    16.079557   0.88882012 
    3100    232.55741   -226.00562    235898.68   -23369.265    1708.0681   -25077.333    16.217765   0.88882012 
    3200    229.38742   -353.42867    235898.68   -23377.748    1684.7855   -25062.534    16.522939   0.88882012 
    3300    237.53733   -390.05416    235898.68   -23336.086    1744.6442   -25080.731    17.037037   0.88882012 
    3400    234.52428   -281.65613    235898.68   -23346.238    1722.5143   -25068.752    17.359977   0.88882012 
    3500    233.43641   -245.41571    235898.68   -23329.256    1714.5242    -25043.78    17.910826   0.88882012 
    3600    235.33125   -459.59213    235898.68   -23315.834    1728.4412   -25044.275    18.380348   0.88882012 
    3700    232.53496   -376.33762    235898.68   -23344.897    1707.9033   -25052.801    18.929202   0.88882012 
    3800    229.98372   -327.93998    235898.68   -23333.111    1689.1651   -25022.276    19.192459   0.88882012 
    3900    233.02274   -183.89868    235898.68   -23355.489    1711.4858   -25066.975    19.575064   0.88882012 
    4000     229.8772   -414.02287    235898.68   -23369.349    1688.3828   -25057.731    19.925631   0.88882012 
    4100    237.67969   -384.10605    235898.68   -23319.764    1745.6898   -25065.454    20.424136   0.88882012 
    4200    234.29408   -203.86836    235898.68   -23269.996    1720.8235    -24990.82    21.051196   0.88882012 
    4300    240.10115   -288.70309    235898.68   -23208.867    1763.4748   -24972.342    21.689337   0.88882012 
    4400    240.71127   -519.76885    235898.68   -23190.012    1767.9559   -24957.968    22.299718   0.88882012 
    4500    238.97879   -373.42077    235898.68   -23240.852    1755.2313   -24996.084    22.689308   0.88882012 
    4600    230.17014   -330.56441    235898.68   -23272.093    1690.5343   -24962.627    23.076859   0.88882012 
    4700    233.01848   -270.05634    235898.68     -23279.7    1711.4545   -24991.155    23.510582   0.88882012 
    4800    235.26649   -277.42924    235898.68   -23238.318    1727.9655   -24966.283    23.877889   0.88882012 
    4900    237.04911   -306.41078    235898.68    -23273.68    1741.0584   -25014.738    24.068561   0.88882012 
    5000     234.6078   -222.73524    235898.68   -23286.148    1723.1276   -25009.275    24.145314   0.88882012 
    5100    232.60731   -482.58181    235898.68   -23306.385    1708.4346   -25014.819    24.504262   0.88882012 
    5200    233.83665   -115.43554    235898.68   -23257.224    1717.4638   -24974.688    24.900494   0.88882012 
    5300    231.32408   -332.26722    235898.68   -23336.429    1699.0097   -25035.439    24.785301   0.88882012 
    5400    233.81862   -249.68782    235898.68   -23310.343    1717.3314   -25027.675    24.812887   0.88882012 
    5500    230.07202   -454.43812    235898.68   -23354.421    1689.8136   -25044.235    25.305309   0.88882012 
    5600    225.69438   -186.23604    235898.68   -23364.582    1657.6611   -25022.243    25.792769   0.88882012 
    5700    229.13821   -340.07418    235898.68   -23317.496    1682.9551   -25000.451    26.128074   0.88882012 
    5800    232.04447    -368.8246    235898.68   -23242.474    1704.3007   -24946.774    26.417146   0.88882012 
    5900    233.45235   -263.65266    235898.68   -23257.689    1714.6412   -24972.331    26.891763   0.88882012 
    6000    229.07158   -312.03414    235898.68   -23344.267    1682.4657   -25026.733    27.352868   0.88882012 
    6100    229.97338   -77.798239    235898.68   -23350.636    1689.0892   -25039.725    27.812398   0.88882012 
    6200    232.00127   -313.98429    235898.68   -23301.655    1703.9834   -25005.638    28.140158   0.88882012 
    6300     237.0417   -463.85164    235898.68   -23261.389    1741.0039   -25002.393    28.547508   0.88882012 
    6400    235.31872    -340.4712    235898.68   -23247.003    1728.3491   -24975.352    29.508488   0.88882012 
    6500    231.41894   -150.33998    235898.68   -23276.832    1699.7064   -24976.538    29.876079   0.88882012 
    6600    234.40928   -315.51904    235898.68   -23314.904    1721.6696   -25036.573    30.605371   0.88882012 
    6700    224.73339   -523.12139    235898.68   -23360.739    1650.6029   -25011.342    31.050188   0.88882012 
    6800    232.50281   -349.19353    235898.68   -23320.474    1707.6671   -25028.141    31.222363   0.88882012 
    6900    229.65177   -438.28647    235898.68   -23357.305     1686.727   -25044.032     31.59714   0.88882012 
    7000    229.57805   -288.25845    235898.68   -23371.716    1686.1856   -25057.901    31.893212   0.88882012 
    7100    235.56379   -332.64241    235898.68   -23300.494    1730.1492   -25030.643    31.928251   0.88882012 
    7200    233.18437   -551.64814    235898.68    -23309.43     1712.673   -25022.103    32.044315   0.88882012 
    7300    234.91017   -338.69246    235898.68   -23393.383    1725.3484   -25118.731    32.610219   0.88882012 
    7400    225.02396    -401.9044    235898.68   -23399.387    1652.7371   -25052.124    32.641104   0.88882012 
    7500    231.93092   -185.07607    235898.68   -23414.804    1703.4667   -25118.271    33.140457   0.88882012 
    7600    227.48321   -498.45988    235898.68   -23427.706    1670.7996   -25098.506    33.226172   0.88882012 
    7700     235.9412   -296.21611    235898.68   -23395.945    1732.9211   -25128.866    33.142015   0.88882012 
    7800    235.03679   -164.51793    235898.68   -23326.489    1726.2784   -25052.767    33.711965   0.88882012 
    7900    236.49619   -532.53999    235898.68   -23331.913    1736.9973    -25068.91    34.078369   0.88882012 
    8000    232.39279   -394.92448    235898.68   -23295.826     1706.859   -25002.685    34.494707   0.88882012 
    8100    232.80311   -329.88291    235898.68   -23330.894    1709.8727   -25040.767     35.02045   0.88882012 
    8200    235.22508   -372.96706    235898.68   -23385.661    1727.6614   -25113.323    34.968097   0.88882012 
    8300    231.08743   -334.90237    235898.68   -23402.747    1697.2715   -25100.019    34.743682   0.88882012 
    8400    231.57473   -413.26498    235898.68   -23388.919    1700.8506   -25089.769    34.698974   0.88882012 
    8500    230.78228   -268.52915    235898.68   -23424.074    1695.0303   -25119.104    34.688788   0.88882012 
    8600     236.8019   -196.91165    235898.68    -23354.32    1739.2427   -25093.563    34.988653   0.88882012 
    8700    225.06376   -501.62107    235898.68   -23419.013    1653.0294   -25072.043    34.902244   0.88882012 
    8800    237.32714   -307.07183    235898.68   -23356.681    1743.1005   -25099.781     35.27826   0.88882012 
    8900     230.3768    -273.9547    235898.68   -23387.152    1692.0522   -25079.204    36.131131   0.88882012 
    9000    238.06482   -438.89381    235898.68   -23335.716    1748.5185   -25084.235    36.854131   0.88882012 
    9100    234.91383   -380.54872    235898.68   -23328.935    1725.3754   -25054.311    37.457471   0.88882012 
    9200    230.13981   -407.04414    235898.68   -23370.545    1690.3115   -25060.857    37.919848   0.88882012 
    9300    233.32168   -348.35691    235898.68   -23408.899    1713.6815   -25122.581    38.137783   0.88882012 
    9400    234.87222   -464.32104    235898.68   -23456.561    1725.0698   -25181.631    38.698647   0.88882012 
    9500    233.99446   -452.77889    235898.68    -23408.34    1718.6228   -25126.962    38.924153   0.88882012 
    9600    227.33677   -388.73796    235898.68   -23477.279     1669.724   -25147.003    38.991008   0.88882012 
    9700    231.77251   -543.69893    235898.68   -23431.792    1702.3033   -25134.095    39.079966   0.88882012 
    9800    229.99775   -316.75041    235898.68   -23426.715    1689.2681   -25115.983    39.076283   0.88882012 
    9900    234.69689   -238.53923    235898.68   -23384.868     1723.782    -25108.65     38.92737   0.88882012 
   10000    236.83907   -325.62539    235898.68   -23285.747    1739.5157   -25025.263    38.905576   0.88882012 
   10100    234.91976    -388.0986    235898.68   -23301.682    1725.4189   -25027.101      38.9527   0.88882012 
   10200    232.71399   -294.09555    235898.68   -23285.123    1709.2181   -24994.341    39.095046   0.88882012 
   10300    237.44012   -336.86406    235898.68    -23245.24    1743.9302    -24989.17    39.366819   0.88882012 
   10400    236.71262   -343.59274    235898.68   -23273.638    1738.5869   -25012.224    39.365657   0.88882012 
   10500    237.06586   -249.91263    235898.68   -23285.769    1741.1814   -25026.951    39.792798   0.88882012 
   10600    238.48485   -302.17131    235898.68   -23237.343    1751.6035   -24988.946    39.994704   0.88882012 
   10700    239.94401   -414.91119    235898.68   -23262.165    1762.3206   -25024.485    40.475768   0.88882012 
   10800    235.73608    -361.3264    235898.68   -23275.372    1731.4145   -25006.787    40.895955   0.88882012 
   10900    234.95436   -476.55702    235898.68   -23318.562    1725.6731   -25044.235    41.139357   0.88882012 
   11000    237.89076   -357.57582    235898.68   -23285.577      1747.24   -25032.817    41.289416   0.88882012 
   11100    237.52066   -558.93538    235898.68   -23224.083    1744.5218   -24968.605    41.698384   0.88882012 
   11200    239.94625   -341.76895    235898.68   -23272.712     1762.337   -25035.049    42.416091   0.88882012 
   11300    236.12153   -366.24884    235898.68   -23302.413    1734.2455   -25036.659    42.819205   0.88882012 
   11400    229.96732   -405.77605    235898.68   -23284.401    1689.0446   -24973.446    43.500277   0.88882012 
   11500    237.16985   -402.26943    235898.68   -23203.358    1741.9452   -24945.303    44.441707   0.88882012 
   11600    236.77663   -165.19737    235898.68   -23234.762    1739.0571   -24973.819    44.922028   0.88882012 
   11700    242.74555    -232.5978    235898.68   -23246.981    1782.8971   -25029.878    45.276493   0.88882012 
   11800    238.29759   -107.13587    235898.68   -23264.898    1750.2281   -25015.126    45.693323   0.88882012 
   11900    231.64998   -335.64648    235898.68   -23321.646    1701.4033    -25023.05    46.234411   0.88882012 
   12000    235.58046   -343.59084    235898.68   -23242.974    1730.2716   -24973.245     46.98301   0.88882012 
   12100    239.94932   -244.51126    235898.68   -23238.306    1762.3596   -25000.666    47.455208   0.88882012 
   12200    234.40614   -343.30936    235898.68   -23284.181    1721.6465   -25005.828    47.558494   0.88882012 
   12300    233.44893   -407.96468    235898.68   -23346.904    1714.6161    -25061.52    47.517148   0.88882012 
   12400    239.21555   -445.63065    235898.68   -23252.994    1756.9703   -25009.964    47.680955   0.88882012 
   12500    238.02162   -417.83479    235898.68   -23235.859    1748.2012    -24984.06    47.805912   0.88882012 
   12600    239.42928   -553.71424    235898.68   -23191.366    1758.5401   -24949.907    48.300784   0.88882012 
   12700    243.55915   -288.09047    235898.68   -23231.607    1788.8728   -25020.479    48.442038   0.88882012 
   12800    238.03848   -379.25847    235898.68   -23301.861     1748.325   -25050.186    48.691273   0.88882012 
   12900    239.02996   -379.20101    235898.68   -23323.027    1755.6072   -25078.634    48.709491   0.88882012 
   13000    238.10837   -200.18045    235898.68   -23371.874    1748.8383   -25120.712    48.964074   0.88882012 
   13100    239.63875   -385.61289    235898.68   -23347.823    1760.0786   -25107.902     49.23462   0.88882012 
   13200    236.02236   -381.23025    235898.68   -23311.646    1733.5172   -25045.163    49.544515   0.88882012 
   13300    233.77922   -354.44723    235898.68   -23308.341     1717.042   -25025.383    49.822018   0.88882012 
   13400    241.43078   -560.84655    235898.68   -23274.576    1773.2405   -25047.817    50.279968   0.88882012 
   13500    238.64062   -446.41124    235898.68   -23295.792    1752.7476   -25048.539    50.471235   0.88882012 
   13600    236.34217    -273.6488    235898.68   -23288.609    1735.8661   -25024.475    50.572964   0.88882012 
   13700    230.87768    -216.9265    235898.68   -23385.253     1695.731   -25080.984    50.751814   0.88882012 
   13800    230.11529    -276.2265    235898.68   -23358.057    1690.1315   -25048.188    51.048841   0.88882012 
   13900    238.76585   -355.08982    235898.68   -23347.993    1753.6674   -25101.661    51.449831   0.88882012 
   14000     234.2037   -370.33521    235898.68   -23331.778    1720.1597   -25051.937     52.12034   0.88882012 
   14100     230.9814   -287.46052    235898.68    -23379.97    1696.4928   -25076.463    52.963968   0.88882012 
   14200    229.82291   -437.33397    235898.68   -23401.948     1687.984   -25089.932    53.170802   0.88882012 
   14300    229.99294   -257.29719    235898.68    -23401.45    1689.2328   -25090.682    53.545698   0.88882012 
   14400    233.85032   -257.41002    235898.68   -23425.168    1717.5642   -25142.732    53.949223   0.88882012 
   14500    230.56175   -275.15537    235898.68   -23421.013    1693.4105   -25114.423    53.911946   0.88882012 
   14600    230.38296   -282.23226    235898.68   -23428.315    1692.0974   -25120.413    54.311984   0.88882012 
   14700    226.51333   -358.50329    235898.68   -23426.254    1663.6761    -25089.93    54.737256   0.88882012 
   14800     232.9269   -278.54226    235898.68   -23398.441     1710.782   -25109.223    54.621315   0.88882012 
   14900    232.86946   -348.53718    235898.68   -23424.933      1710.36   -25135.293    54.836952   0.88882012 
   15000    232.67563   -276.60752    235898.68   -23376.011    1708.9364   -25084.948    55.012603   0.88882012 
   15100     233.4724   -415.11936    235898.68   -23390.657    1714.7885   -25105.445     55.41459   0.88882012 
   15200    229.26451   -463.44316    235898.68   -23429.209    1683.8827   -25113.091    55.728878   0.88882012 
   15300    228.99502   -441.88067    235898.68   -23453.647    1681.9034    -25135.55    55.847114   0.88882012 
   15400      229.711   -352.19225    235898.68   -23400.335    1687.1621   -25087.498    55.684143   0.88882012 
   15500     231.8969   -419.42694    235898.68   -23375.944    1703.2169   -25079.161    55.628527   0.88882012 
   15600     230.5039   -394.98232    235898.68   -23401.902    1692.9857   -25094.888    55.855668   0.88882012 
   15700    232.32084   -281.07662    235898.68   -23391.194    1706.3306   -25097.524    56.273877   0.88882012 
   15800    243.15115   -289.01861    235898.68   -23314.472    1785.8761   -25100.348    56.530175   0.88882012 
   15900    240.11392   -441.91356    235898.68   -23353.214    1763.5685   -25116.783    56.947041   0.88882012 
   16000    235.42798   -355.73687    235898.68   -23364.523    1729.1517   -25093.675    57.350679   0.88882012 
   16100    235.17314    -299.1879    235898.68   -23341.373    1727.2799   -25068.653    57.639401   0.88882012 
   16200     238.8658   -405.89842    235898.68   -23316.392    1754.4014   -25070.794    57.935128   0.88882012 
   16300     236.5433   -453.06072    235898.68   -23339.584    1737.3433   -25076.927    58.405245   0.88882012 
   16400    242.57581   -429.34216    235898.68   -23313.343    1781.6505   -25094.993    58.975115   0.88882012 
   16500     242.2126   -467.65002    235898.68    -23282.58    1778.9827   -25061.562    59.592055   0.88882012 
   16600    241.30001    -358.9199    235898.68   -23356.014      1772.28   -25128.294     59.75714   0.88882012 
   16700    233.07783   -167.86899    235898.68   -23373.331    1711.8904   -25085.221    59.841703   0.88882012 
   16800    238.93826   -396.62551    235898.68   -23346.655    1754.9336   -25101.589     60.04372   0.88882012 
   16900    229.13471   -430.67426    235898.68    -23402.76    1682.9293   -25085.689    60.070349   0.88882012 
   17000    235.51341   -431.58619    235898.68   -23333.338    1729.7791   -25063.117     60.34111   0.88882012 
   17100    234.91443   -276.05468    235898.68   -23358.557    1725.3797   -25083.936    60.385212   0.88882012 
   17200    236.04708   -305.74911    235898.68   -23328.749    1733.6988   -25062.447    60.962499   0.88882012 
   17300    236.42206   -391.59391    235898.68   -23304.978    1736.4529   -25041.431    61.652028   0.88882012 
   17400    235.52275   -425.14207    235898.68   -23277.149    1729.8477   -25006.997    62.387887   0.88882012 
   17500    234.61457   -282.95206    235898.68   -23322.283    1723.1774    -25045.46    62.829301   0.88882012 
   17600    226.31124   -210.69847    235898.68   -23256.411    1662.1918   -24918.603    63.166947   0.88882012 
   17700    243.33241   -358.79938    235898.68   -23230.432    1787.2074   -25017.639    62.865893   0.88882012 
   17800    234.39528    -402.2532    235898.68   -23232.569    1721.5668   -24954.136    63.030409   0.88882012 
   17900     232.2438   -308.62556    235898.68   -23273.781    1705.7648   -24979.546    63.444676   0.88882012 
   18000    232.04898   -247.96591    235898.68   -23254.816    1704.3339    -24959.15    63.304984   0.88882012 
   18100    239.76462   -388.24501    235898.68   -23230.981     1761.003   -24991.984    63.625339   0.88882012 
   18200    241.72397   -408.87512    235898.68   -23256.382    1775.3939   -25031.775    63.774395   0.88882012 
   18300    235.88142   -440.71288    235898.68   -23268.969     1732.482   -25001.451    63.765743   0.88882012 
   18400    234.01369   -216.59064    235898.68   -23296.344    1718.7641   -25015.108    63.977115   0.88882012 
   18500    235.67657   -338.82724    235898.68   -23290.295    1730.9775   -25021.272    64.109247   0.88882012 
   18600    239.37033   -215.63392    235898.68   -23242.464    1758.1071   -25000.572    64.860546   0.88882012 
   18700      235.691   -414.35659    235898.68   -23228.618    1731.0834   -24959.701    65.081486   0.88882012 
   18800    233.56633   -339.24507    235898.68   -23248.326    1715.4783   -24963.804    65.579556   0.88882012 
   18900    232.88679   -299.30255    235898.68   -23242.509    1710.4873   -24952.996    66.002946   0.88882012 
   19000    236.84406   -360.59863    235898.68   -23272.761    1739.5524   -25012.313    66.740927   0.88882012 
   19100    235.96292   -267.07675    235898.68   -23247.525    1733.0806   -24980.605     67.05056   0.88882012 
   19200    232.07741   -263.01377    235898.68   -23280.913    1704.5427   -24985.456    67.237768   0.88882012 
   19300    235.92844   -226.09413    235898.68   -23311.405    1732.8274   -25044.232    67.321544   0.88882012 
   19400    237.87629   -559.77111    235898.68   -23275.557    1747.1338    -25022.69    67.380119   0.88882012 
   19500    240.59022   -285.09625    235898.68   -23333.505    1767.0669   -25100.571    67.840557   0.88882012 
   19600    232.83942   -262.08305    235898.68   -23342.631    1710.1394   -25052.771    68.691353   0.88882012 
   19700    231.76722   -372.75079    235898.68   -23372.586    1702.2644    -25074.85    69.087487   0.88882012 
   19800    239.07505   -348.91476    235898.68   -23353.489    1755.9383   -25109.427    69.395753   0.88882012 
   19900    235.01904   -321.31833    235898.68   -23371.575    1726.1481   -25097.724    70.027445   0.88882012 
   20000    232.28928   -431.91899    235898.68   -23383.398    1706.0988   -25089.497    70.503661   0.88882012 
   20100    237.21611   -360.63337    235898.68   -23321.001     1742.285   -25063.286     70.63631   0.88882012 
   20200    230.46934   -410.23101    235898.68   -23350.644    1692.7319   -25043.376     71.20725   0.88882012 
   20300    235.84314   -428.65689    235898.68   -23367.707    1732.2008   -25099.907    71.633214   0.88882012 
   20400    225.22419   -194.66737    235898.68    -23452.83    1654.2077   -25107.038    71.890367   0.88882012 
   20500    231.39057   -166.54947    235898.68     -23444.4     1699.498   -25143.899    72.017665   0.88882012 
   20600    233.09505   -351.84234    235898.68   -23423.234    1712.0169   -25135.251    72.416663   0.88882012 
   20700    228.50569   -348.92356    235898.68   -23431.403    1678.3094   -25109.712    73.127142   0.88882012 
   20800    236.49416    -325.1229    235898.68   -23400.378    1736.9824   -25137.361     73.27729   0.88882012 
   20900    232.23562   -342.93192    235898.68   -23403.383    1705.7046   -25109.088    73.260894   0.88882012 
   21000    232.30431   -450.67929    235898.68   -23362.676    1706.2092   -25068.886    73.079237   0.88882012 
   21100    232.28315   -332.71042    235898.68   -23303.579    1706.0537   -25009.633    73.057337   0.88882012 
   21200     235.0411   -212.04757    235898.68   -23293.311    1726.3101   -25019.621    72.758284   0.88882012 
   21300    229.77553   -229.08156    235898.68   -23299.808     1687.636   -24987.444    73.409301   0.88882012 
   21400    232.27464   -394.19378    235898.68   -23344.686    1705.9913   -25050.677    73.956707   0.88882012 
   21500    231.45165   -384.95818    235898.68   -23343.522    1699.9466   -25043.468    74.257452   0.88882012 
   21600    235.24865   -339.42211    235898.68   -23296.488    1727.8345   -25024.322    74.450762   0.88882012 
   21700    232.66079   -413.31769    235898.68   -23327.021    1708.8274   -25035.848    74.757031   0.88882012 
   21800    239.32501   -269.03712    235898.68   -23269.412    1757.7742   -25027.186    75.011986   0.88882012 
   21900    243.66068    -291.1145    235898.68   -23203.325    1789.6185   -24992.944    75.630614   0.88882012 
   22000    233.79442   -334.81528    235898.68   -23284.026    1717.1536    -25001.18    75.877368   0.88882012 
   22100    232.57902   -302.33877    235898.68   -23267.799    1708.2269   -24976.026    75.730104   0.88882012 
   22200    236.56941   -473.50788    235898.68   -23263.646    1737.5351   -25001.181    76.659207   0.88882012 
   22300    230.08212   -246.11051    235898.68   -23244.945    1689.8878   -24934.832    76.520884   0.88882012 
   22400    233.60338   -374.66875    235898.68   -23266.762    1715.7505   -24982.513    76.351101   0.88882012 
   22500    232.99605   -434.26861    235898.68   -23250.871    1711.2898   -24962.161    77.073117   0.88882012 
   22600    234.19415   -413.02573    235898.68    -23274.54    1720.0895   -24994.629    77.552064   0.88882012 
   22700    235.10723   -403.23511    235898.68   -23288.204    1726.7958       -25015    77.988834   0.88882012 
   22800    230.34707   -411.09705    235898.68   -23292.707    1691.8338   -24984.541    78.313398   0.88882012 
   22900     232.5781   -235.92711    235898.68   -23298.584    1708.2201   -25006.804    78.772116   0.88882012 
   23000    225.34842   -364.26648    235898.68   -23316.231    1655.1201   -24971.351    79.000703   0.88882012 
   23100    233.69902   -522.17129    235898.68   -23339.313    1716.4529   -25055.766     79.02849   0.88882012 
   23200    235.40183    -407.4693    235898.68   -23345.266    1728.9596   -25074.226    78.922258   0.88882012 
   23300    233.42413    -237.1981    235898.68   -23350.229     1714.434   -25064.663    78.524116   0.88882012 
   23400    237.66574   -514.53733    235898.68   -23310.987    1745.5874   -25056.574    78.657786   0.88882012 
   23500    232.66389   -307.73401    235898.68   -23354.627    1708.8502   -25063.478    78.635734   0.88882012 
   23600     228.7233   -420.38463    235898.68   -23387.658    1679.9077   -25067.566    78.675003   0.88882012 
   23700     237.6654   -412.12782    235898.68   -23362.458    1745.5849   -25108.043    78.715514   0.88882012 
   23800    231.16341   -312.34729    235898.68   -23418.811    1697.8296   -25116.641    78.577016   0.88882012 
   23900    234.39095   -358.03726    235898.68   -23402.255    1721.5349    -25123.79    78.468234   0.88882012 
   24000    231.17832   -259.51851    235898.68   -23368.512    1697.9391   -25066.451      78.3711   0.88882012 
   24100    239.99516    -457.1696    235898.68   -23324.954    1762.6963    -25087.65     78.72447   0.88882012 
   24200    240.08079   -350.43673    235898.68   -23349.777    1763.3252   -25113.102    79.183692   0.88882012 
   24300    237.26411   -393.32365    235898.68   -23313.872    1742.6375   -25056.509    79.443848   0.88882012 
   24400    240.26943   -422.86323    235898.68   -23299.784    1764.7107   -25064.494    80.027495   0.88882012 
   24500    237.67696   -228.10488    235898.68   -23337.387    1745.6698   -25083.057    80.513088   0.88882012 
   24600    233.88867   -422.45396    235898.68   -23368.567    1717.8459   -25086.413    80.916373   0.88882012 
   24700    236.04351   -313.58297    235898.68   -23350.377    1733.6726    -25084.05    81.245011   0.88882012 
   24800    235.10197   -312.22585    235898.68   -23331.882    1726.7572   -25058.639    81.475492   0.88882012 
   24900    239.52878   -416.58362    235898.68   -23322.442    1759.2709   -25081.713     81.67017   0.88882012 
   25000    237.34101   -331.58976    235898.68   -23306.477    1743.2023   -25049.679    81.877076   0.88882012 
   25100    232.12657   -192.24633    235898.68   -23364.425    1704.9037   -25069.329    82.217043   0.88882012 
   25200    231.73434   -350.77853    235898.68   -23348.402    1702.0229   -25050.425    82.621053   0.88882012 
   25300    233.06341   -205.18715    235898.68   -23310.543    1711.7845   -25022.328    83.124194   0.88882012 
   25400    234.11324    -346.6263    235898.68   -23321.351    1719.4953   -25040.847    83.513735   0.88882012 
   25500    234.73121   -370.35582    235898.68   -23313.775    1724.0341   -25037.809    84.507963   0.88882012 
   25600    235.54286   -397.03454    235898.68   -23305.473    1729.9954   -25035.468    83.926813   0.88882012 
   25700    237.89148   -314.38172    235898.68   -23322.013    1747.2454   -25069.259    84.170982   0.88882012 
   25800     235.1856   -354.72629    235898.68   -23327.258    1727.3715   -25054.629    84.860441   0.88882012 
   25900     229.7908   -302.30696    235898.68   -23359.694    1687.7482   -25047.442     84.90622   0.88882012 
   26000    228.98662   -331.46164    235898.68   -23400.641    1681.8417   -25082.482     85.35643   0.88882012 
   26100    230.81734   -370.38433    235898.68   -23337.558    1695.2878   -25032.845    85.676775   0.88882012 
   26200    229.17267   -254.43427    235898.68   -23324.497    1683.2082   -25007.705    85.941875   0.88882012 
   26300    239.66945   -201.65644    235898.68    -23393.53     1760.304   -25153.834    85.640537   0.88882012 
   26400    234.17812   -391.74917    235898.68   -23421.706    1719.9717   -25141.678    86.517656   0.88882012 
   26500    232.61953    -213.4151    235898.68   -23423.236    1708.5244    -25131.76    86.965773   0.88882012 
   26600    228.74402   -313.77125    235898.68   -23420.587    1680.0599   -25100.647     87.53116   0.88882012 
   26700    228.95106   -413.16516    235898.68   -23424.917    1681.5805   -25106.497     87.83932   0.88882012 
   26800    232.80969   -375.41186    235898.68   -23336.788    1709.9211   -25046.709    87.786337   0.88882012 
   26900    237.41625   -238.47331    235898.68   -23324.731    1743.7549   -25068.486    87.549781   0.88882012 
   27000    237.25771   -359.71163    235898.68   -23325.513    1742.5905   -25068.103    88.071554   0.88882012 
   27100    236.45866   -309.51959    235898.68   -23280.225    1736.7217   -25016.946    87.986402   0.88882012 
   27200    242.14489   -232.93147    235898.68   -23229.749    1778.4854   -25008.234    88.584478   0.88882012 
   27300    233.44354   -293.56561    235898.68   -23327.805    1714.5765   -25042.382    88.936165   0.88882012 
   27400     231.5548     -404.609    235898.68   -23313.267    1700.7042   -25013.971    89.352156   0.88882012 
   27500    234.71692   -289.27419    235898.68   -23284.713    1723.9291   -25008.642    89.425949   0.88882012 
   27600    239.85486   -443.67366    235898.68   -23324.843    1761.6658   -25086.509    89.680368   0.88882012 
   27700     230.5114   -200.42143    235898.68   -23338.875    1693.0408   -25031.916    89.743217   0.88882012 
   27800    226.87238   -418.29421    235898.68   -23403.905    1666.3132   -25070.218    90.488322   0.88882012 
   27900    233.71138   -367.68833    235898.68   -23356.919    1716.5437   -25073.463    90.795112   0.88882012 
   28000     237.4297   -353.74529    235898.68   -23345.068    1743.8537   -25088.922    91.200166   0.88882012 
   28100    234.92195   -372.50015    235898.68   -23331.486     1725.435   -25056.921    91.451074   0.88882012 
   28200    239.49245   -218.12232    235898.68   -23311.023     1759.004   -25070.027    91.535572   0.88882012 
   28300    235.92264   -229.74877    235898.68   -23330.925    1732.7848    -25063.71    91.910872   0.88882012 
   28400    235.21292   -361.62323    235898.68   -23315.688    1727.5721    -25043.26    92.077569   0.88882012 
   28500    241.56593   -361.04182    235898.68   -23279.701    1774.2331   -25053.934    92.554459   0.88882012 
   28600     234.0662   -364.02056    235898.68   -23331.467    1719.1498   -25050.617    92.496942   0.88882012 
   28700     236.1777   -256.63992    235898.68   -23363.967    1734.6581   -25098.625    92.816703   0.88882012 
   28800    231.20948   -431.12236    235898.68   -23403.129     1698.168   -25101.297    92.995124   0.88882012 
   28900    231.47818   -405.77299    235898.68   -23417.852    1700.1415   -25117.994    93.554225   0.88882012 
   29000    237.13318    -343.1532    235898.68   -23377.977    1741.6758   -25119.653    94.210115   0.88882012 
   29100    236.31169   -443.46281    235898.68   -23414.329    1735.6422   -25149.972    94.405009   0.88882012 
   29200    241.09022   -258.91016    235898.68   -23414.704    1770.7392   -25185.443    94.678896   0.88882012 
   29300    237.93316   -386.28326    235898.68   -23400.004    1747.5515   -25147.556    95.426894   0.88882012 
   29400     232.4391   -294.22959    235898.68   -23410.335    1707.1992   -25117.534    95.659194   0.88882012 
   29500    234.14394   -209.74167    235898.68   -23385.585    1719.7207   -25105.306    96.032863   0.88882012 
   29600    237.20551   -345.07607    235898.68   -23379.399    1742.2071   -25121.606    96.214355   0.88882012 
   29700    231.35944   -180.40188    235898.68   -23310.787    1699.2694   -25010.057    96.589363   0.88882012 
   29800    236.24331   -265.38001    235898.68   -23353.852      1735.14   -25088.992    96.953922   0.88882012 
   29900     231.0289   -436.81067    235898.68   -23394.187    1696.8416   -25091.029    97.799467   0.88882012 
   30000    234.25046   -275.64603    235898.68   -23372.161    1720.5031   -25092.664    98.609621   0.88882012 
   30100    235.12587   -329.96755    235898.68    -23351.25    1726.9327   -25078.183    98.701369   0.88882012 
   30200    241.99783   -422.07079    235898.68   -23341.477    1777.4053   -25118.882    99.161317   0.88882012 
   30300    231.00232   -295.64923    235898.68   -23397.228    1696.6464   -25093.875    99.718397   0.88882012 
   30400    229.71123   -363.89793    235898.68   -23424.163    1687.1637   -25111.327     100.1349   0.88882012 
   30500    235.99734   -411.28582    235898.68     -23439.1    1733.3334   -25172.433    100.12985   0.88882012 
   30600    228.50924   -310.42735    235898.68   -23467.822    1678.3355   -25146.157    99.862435   0.88882012 
   30700    237.49725   -349.16852    235898.68    -23374.11    1744.3498   -25118.459     100.1178   0.88882012 
   30800    232.60152   -546.13975    235898.68   -23409.942    1708.3921   -25118.334    100.49675   0.88882012 
   30900    237.03703   -309.67202    235898.68    -23336.68    1740.9697    -25077.65    100.58154   0.88882012 
   31000    236.28611   -416.18889    235898.68   -23380.671    1735.4544   -25116.126     100.9603   0.88882012 
   31100    233.32783   -316.24569    235898.68   -23362.162    1713.7266   -25075.888    101.66962   0.88882012 
   31200    234.99639   -375.16264    235898.68   -23314.822    1725.9817   -25040.804    102.21235   0.88882012 
   31300     241.3379   -411.00113    235898.68    -23322.23    1772.5583   -25094.788    102.97719   0.88882012 
   31400    231.13316   -442.84684    235898.68   -23310.345    1697.6074   -25007.953    103.47107   0.88882012 
   31500    233.51598    -394.3731    235898.68   -23324.994    1715.1086   -25040.103    103.90401   0.88882012 
   31600    233.72962    -266.1713    235898.68   -23303.937    1716.6777   -25020.615    104.64107   0.88882012 
   31700    244.01174    -234.6026    235898.68    -23254.01    1792.1969   -25046.207     105.0683   0.88882012 
   31800    239.55098   -448.38733    235898.68   -23327.592    1759.4339   -25087.026    105.25617   0.88882012 
   31900    236.72476   -326.43975    235898.68   -23313.538    1738.6761   -25052.214    105.75319   0.88882012 
   32000    238.40702   -369.23627    235898.68   -23338.115    1751.0319   -25089.147    105.62443   0.88882012 
   32100    234.94656   -304.91583    235898.68   -23365.752    1725.6158   -25091.367    105.30383   0.88882012 
   32200    232.68392   -342.27927    235898.68    -23406.46    1708.9973   -25115.457    105.25285   0.88882012 
   32300    233.17399   -363.56351    235898.68   -23394.007    1712.5967   -25106.604    105.09448   0.88882012 
   32400    235.13374   -485.54301    235898.68   -23389.084    1726.9905   -25116.075    105.35381   0.88882012 
   32500    235.03763   -284.63207    235898.68   -23361.245    1726.2846    -25087.53    105.27846   0.88882012 
   32600    232.99404   -463.18001    235898.68   -23378.003     1711.275   -25089.278    105.02845   0.88882012 
   32700    233.60475   -454.95059    235898.68   -23367.629    1715.7605    -25083.39    105.40104   0.88882012 
   32800    231.01304   -432.69931    235898.68   -23364.203    1696.7252   -25060.928    105.13539   0.88882012 
   32900    235.71274   -326.78987    235898.68    -23381.92    1731.2431   -25113.163    105.62511   0.88882012 
   33000    237.59673   -317.14981    235898.68   -23348.632    1745.0805   -25093.713    106.51842   0.88882012 
   33100    235.49043   -335.43243    235898.68   -23381.439    1729.6104   -25111.049    106.21286   0.88882012 
   33200     233.8275   -377.72518    235898.68   -23350.935    1717.3965   -25068.332    106.56555   0.88882012 
   33300    232.98457   -340.47928    235898.68   -23372.505    1711.2055    -25083.71     106.4315   0.88882012 
   33400    228.68669   -232.85791    235898.68   -23359.804    1679.6388   -25039.443    106.79998   0.88882012 
   33500    238.15837   -348.44696    235898.68   -23366.379    1749.2056   -25115.585    107.18063   0.88882012 
   33600    232.48509   -375.93027    235898.68   -23414.874     1707.537   -25122.411     108.2488   0.88882012 
   33700    241.29986   -361.30926    235898.68   -23365.451    1772.2789    -25137.73    108.61702   0.88882012 
   33800    242.16939   -188.37721    235898.68   -23360.517    1778.6654   -25139.182    110.04134   0.88882012 
   33900      234.442   -374.31528    235898.68   -23377.635    1721.9099   -25099.544    110.99943   0.88882012 
   34000    229.99383   -289.23342    235898.68   -23422.133    1689.2393   -25111.373    111.73175   0.88882012 
   34100    234.01033   -372.42639    235898.68    -23433.12    1718.7394   -25151.859    111.72193   0.88882012 
   34200    232.04017   -434.54785    235898.68   -23438.209    1704.2691   -25142.478    112.06079   0.88882012 
   34300    233.17267   -186.05743    235898.68   -23427.776     1712.587   -25140.363    112.34975   0.88882012 
   34400    232.64521   -431.28262    235898.68   -23487.037     1708.713    -25195.75    112.47883   0.88882012 
   34500    236.89084   -325.08626    235898.68   -23396.571    1739.8959   -25136.467    112.30931   0.88882012 
   34600    237.07115   -341.66896    235898.68   -23422.921    1741.2203   -25164.141    112.35208   0.88882012 
   34700    228.26882   -405.70917    235898.68   -23428.098    1676.5696   -25104.668    112.28824   0.88882012 
   34800    235.89046   -403.55436    235898.68   -23401.322    1732.5485    -25133.87    112.59627   0.88882012 
   34900    240.53245   -367.28533    235898.68   -23375.507    1766.6425    -25142.15    112.41933   0.88882012 
   35000    234.14945    -306.2897    235898.68   -23346.978    1719.7612   -25066.739    112.67096   0.88882012 
   35100    231.72262    -419.3528    235898.68   -23377.702    1701.9368   -25079.639    113.03154   0.88882012 
   35200    233.85183   -425.12492    235898.68   -23365.167    1717.5752   -25082.742    113.02936   0.88882012 
   35300    236.04217   -439.10295    235898.68   -23304.201    1733.6627   -25037.863    113.05098   0.88882012 
   35400    241.69346   -303.87134    235898.68   -23296.068    1775.1698   -25071.238    113.10927   0.88882012 
   35500    234.32276   -365.89134    235898.68   -23357.133    1721.0341   -25078.168    113.08999   0.88882012 
   35600    231.22752   -368.57412    235898.68   -23407.983    1698.3005   -25106.284    114.14301   0.88882012 
   35700    235.46577   -356.90885    235898.68   -23454.988    1729.4292   -25184.417    114.08407   0.88882012 
   35800    240.69573   -420.10589    235898.68   -23373.667    1767.8418   -25141.509    114.59923   0.88882012 
   35900    240.07654   -329.19347    235898.68   -23418.878     1763.294   -25182.171     114.3718   0.88882012 
   36000    231.34051   -325.19545    235898.68   -23517.612    1699.1303   -25216.743    114.63878   0.88882012 
   36100    234.37773   -353.63436    235898.68   -23469.587    1721.4379   -25191.025    114.58914   0.88882012 
   36200     236.3115   -304.96653    235898.68   -23474.457    1735.6408   -25210.098    114.89752   0.88882012 
   36300    233.31122   -278.88454    235898.68   -23442.085    1713.6047   -25155.689    115.29096   0.88882012 
   36400    236.50576   -356.85359    235898.68   -23429.344    1737.0676   -25166.412    115.55318   0.88882012 
   36500    232.80245   -212.20512    235898.68   -23413.133    1709.8679   -25123.001    115.83116   0.88882012 
   36600    228.78375    -415.6471    235898.68   -23465.405    1680.3517   -25145.756    116.50401   0.88882012 
   36700    239.13683   -368.60946    235898.68   -23476.482    1756.3921   -25232.874    116.70904   0.88882012 
   36800    230.58988    -259.5432    235898.68   -23468.201    1693.6172   -25161.818    116.62513   0.88882012 
   36900    232.35357   -407.17758    235898.68   -23477.467     1706.571   -25184.038    117.14692   0.88882012 
   37000    230.34147   -247.54025    235898.68   -23441.753    1691.7926   -25133.546    117.22408   0.88882012 
   37100    225.07044   -343.74405    235898.68   -23530.135    1653.0785   -25183.213    117.85052   0.88882012 
   37200    230.20486   -426.42707    235898.68   -23553.427    1690.7893   -25244.216    118.03141   0.88882012 
   37300    233.12914   -383.99006    235898.68   -23505.098    1712.2673   -25217.365    118.26265   0.88882012 
   37400    232.15982   -374.09726    235898.68   -23464.569    1705.1479   -25169.717    118.90741   0.88882012 
   37500    234.37055   -361.58021    235898.68   -23455.839    1721.3851   -25177.224      118.894   0.88882012 
   37600      235.552   -302.77644    235898.68   -23428.888    1730.0625   -25158.951    119.17847   0.88882012 
   37700    235.49922   -322.12586    235898.68   -23403.344    1729.6749   -25133.019    119.24233   0.88882012 
   37800    233.43806   -379.13739    235898.68   -23460.296    1714.5362   -25174.832    118.88366   0.88882012 
   37900    229.39796   -342.54704    235898.68   -23427.384    1684.8629   -25112.247    119.22491   0.88882012 
   38000    233.10403   -400.21335    235898.68   -23385.996    1712.0829   -25098.079    120.25819   0.88882012 
   38100    230.72898   -300.30847    235898.68   -23406.854    1694.6388   -25101.493    120.52556   0.88882012 
   38200    232.25355   -358.14163    235898.68     -23383.2    1705.8364   -25089.037    120.58541   0.88882012 
   38300    229.93498   -335.91584    235898.68   -23363.709    1688.8071   -25052.516    120.55455   0.88882012 
   38400    234.74713   -327.53608    235898.68   -23365.308     1724.151   -25089.459    120.91494   0.88882012 
   38500    239.56756   -192.69832    235898.68   -23378.382    1759.5557   -25137.938    121.30518   0.88882012 
   38600    232.74846   -201.86475    235898.68   -23390.272    1709.4713   -25099.743    121.33251   0.88882012 
   38700     237.6866   -188.53274    235898.68   -23385.146    1745.7406   -25130.886    121.78649   0.88882012 
   38800    236.82721   -243.82457    235898.68   -23371.421    1739.4286   -25110.849    121.88373   0.88882012 
   38900    236.39663   -368.08872    235898.68   -23345.485    1736.2661   -25081.751    122.29773   0.88882012 
   39000    237.99074   -247.77348    235898.68   -23353.241    1747.9744   -25101.215     122.5259   0.88882012 
   39100    233.69226   -378.36551    235898.68   -23360.796    1716.4032   -25077.199    122.79328   0.88882012 
   39200    236.81784   -213.59682    235898.68   -23416.192    1739.3598   -25155.552     122.3372   0.88882012 
   39300    230.55219   -183.41426    235898.68   -23399.077    1693.3404   -25092.418     122.4804   0.88882012 
   39400    233.62714   -296.30965    235898.68    -23385.18     1715.925   -25101.105    122.06565   0.88882012 
   39500    233.80616   -279.51875    235898.68   -23368.884    1717.2398   -25086.124    121.91444   0.88882012 
   39600    239.13788    -366.9761    235898.68   -23396.256    1756.3998   -25152.656    122.20685   0.88882012 
   39700     235.3492   -358.51041    235898.68   -23338.715     1728.573   -25067.288    122.87291   0.88882012 
   39800     234.0113    -140.5886    235898.68   -23267.967    1718.7465   -24986.713    123.40289   0.88882012 
   39900    238.85401    -472.4586    235898.68   -23338.389    1754.3149   -25092.704    124.14051   0.88882012 
   40000    236.87228   -326.15021    235898.68   -23373.702    1739.7596   -25113.462    124.58962   0.88882012 
   40100    233.75372   -565.71683    235898.68   -23409.952    1716.8547   -25126.806     125.0616   0.88882012 
   40200    229.98694   -399.41506    235898.68   -23483.974    1689.1887   -25173.163    125.17981   0.88882012 
   40300    228.65004   -351.56436    235898.68   -23387.429    1679.3696   -25066.799     125.1117   0.88882012 
   40400    243.42775   -270.97862    235898.68   -23339.463    1787.9077    -25127.37    125.63185   0.88882012 
   40500    234.15799   -406.25443    235898.68   -23354.338    1719.8239   -25074.162    125.40799   0.88882012 
   40600    229.93406   -164.40815    235898.68   -23437.628    1688.8004   -25126.429     125.3306   0.88882012 
   40700    233.56655   -279.78552    235898.68   -23470.124    1715.4799   -25185.604    125.63897   0.88882012 
   40800    230.77074   -470.88425    235898.68   -23428.034    1694.9455    -25122.98    126.32427   0.88882012 
   40900    236.83409   -385.85221    235898.68   -23389.718    1739.4791   -25129.198    126.49414   0.88882012 
   41000    240.84608   -206.50233    235898.68   -23395.692    1768.9461   -25164.638    127.00725   0.88882012 
   41100    231.35465   -251.64541    235898.68   -23412.033    1699.2342   -25111.267     127.7273   0.88882012 
   41200    238.97535   -227.75422    235898.68   -23411.572    1755.2061   -25166.778    128.29578   0.88882012 
   41300    235.42256   -397.53277    235898.68   -23398.186    1729.1118   -25127.298    128.57072   0.88882012 
   41400    228.41331   -253.51473    235898.68   -23445.977    1677.6309   -25123.608    128.21757   0.88882012 
   41500    232.56198   -214.87953    235898.68   -23397.652    1708.1017   -25105.754    128.25267   0.88882012 
   41600    241.81345    -429.3246    235898.68   -23321.114    1776.0511   -25097.165    128.14223   0.88882012 
   41700    235.60674   -244.40137    235898.68   -23377.478    1730.4646   -25107.942    127.83347   0.88882012 
   41800      235.398   -360.94222    235898.68    -23354.17    1728.9315   -25083.101    127.78294   0.88882012 
   41900    237.72189   -332.66101    235898.68   -23298.151    1745.9998   -25044.151     128.3714   0.88882012 
   42000    238.74832   -385.44729    235898.68   -23384.844    1753.5386   -25138.382    129.00149   0.88882012 
   42100    239.17042   -355.11352    235898.68   -23366.642    1756.6388   -25123.281    129.19133   0.88882012 
   42200     235.5643   -149.90979    235898.68   -23370.469    1730.1528   -25100.622    129.35229   0.88882012 
   42300    234.51516   -133.17037    235898.68   -23441.371    1722.4472   -25163.818    128.79252   0.88882012 
   42400    231.45956   -316.42077    235898.68   -23463.627    1700.0047   -25163.632    128.89796   0.88882012 
   42500    231.26225   -470.44042    235898.68   -23391.468    1698.5555   -25090.023    129.48556   0.88882012 
   42600    234.30683   -198.91948    235898.68   -23457.232    1720.9171    -25178.15    129.88811   0.88882012 
   42700    233.96778   -208.07387    235898.68   -23404.839    1718.4269   -25123.266    130.14452   0.88882012 
   42800     235.4173   -434.20161    235898.68   -23357.075    1729.0732   -25086.148    130.85821   0.88882012 
   42900    238.58807   -379.15627    235898.68   -23328.907    1752.3616   -25081.269    131.01878   0.88882012 
   43000    241.62756   -386.72074    235898.68   -23298.806    1774.6858   -25073.492    130.82711   0.88882012 
   43100    243.91268   -238.23323    235898.68   -23290.438    1791.4694   -25081.907    131.13314   0.88882012 
   43200    239.89586   -408.44987    235898.68   -23330.844    1761.9669   -25092.811    131.02221   0.88882012 
   43300    242.00144   -415.00045    235898.68   -23346.149    1777.4318    -25123.58    131.42255   0.88882012 
   43400    233.93979   -165.34544    235898.68   -23382.443    1718.2213   -25100.664    131.64219   0.88882012 
   43500    236.92373   -300.91268    235898.68    -23388.46    1740.1375   -25128.597    132.73992   0.88882012 
   43600    239.03011   -411.35475    235898.68   -23411.906    1755.6082   -25167.515     133.0994   0.88882012 
   43700    236.82695   -416.64994    235898.68   -23435.553    1739.4267   -25174.979    133.17469   0.88882012 
   43800    238.23354   -211.86074    235898.68   -23406.531    1749.7577   -25156.289    133.48726   0.88882012 
   43900    234.64998   -338.52612    235898.68   -23435.041    1723.4374   -25158.478    133.29383   0.88882012 
   44000    228.64085   -398.61096    235898.68   -23461.553    1679.3021   -25140.855    133.39928   0.88882012 
   44100    231.74374    -311.5122    235898.68    -23423.48    1702.0919   -25125.572    134.10302   0.88882012 
   44200    239.90453   -434.17965    235898.68   -23409.681    1762.0306   -25171.711    134.84875   0.88882012 
   44300    234.96598    -415.0084    235898.68   -23406.394    1725.7584   -25132.153    135.57003   0.88882012 
   44400    237.20145   -383.74162    235898.68   -23409.239    1742.1773   -25151.416      135.952   0.88882012 
   44500    236.60239   -389.24355    235898.68   -23345.568    1737.7774   -25083.345    136.14886   0.88882012 
   44600    237.18018   -469.88958    235898.68   -23360.677    1742.0211   -25102.698    135.81931   0.88882012 
   44700    226.91316   -396.16266    235898.68   -23397.849    1666.6127   -25064.462    136.11355   0.88882012 
   44800    238.78997   -239.59479    235898.68   -23379.545    1753.8445    -25133.39    135.63836   0.88882012 
   44900    236.12478   -416.41679    235898.68   -23407.428    1734.2695   -25141.697    135.43507   0.88882012 
   45000    236.45876   -385.57081    235898.68   -23415.724    1736.7225   -25152.447    135.47105   0.88882012 
   45100    236.13364   -386.93328    235898.68   -23395.284    1734.3345   -25129.618    135.25616   0.88882012 
   45200     243.5851   -224.44825    235898.68   -23316.313    1789.0634   -25105.377    135.51903   0.88882012 
   45300    239.73496   -346.66982    235898.68   -23275.268    1760.7852   -25036.053    135.91452   0.88882012 
   45400    241.98677   -372.00507    235898.68   -23259.447    1777.3241   -25036.771    135.85341   0.88882012 
   45500    247.62342    -297.0997    235898.68   -23237.523    1818.7237   -25056.247       135.89   0.88882012 
   45600    242.54103   -357.60762    235898.68   -23259.951    1781.3949   -25041.346    136.18467   0.88882012 
   45700    235.37374   -262.03793    235898.68   -23307.256    1728.7532    -25036.01    136.81058   0.88882012 
   45800     235.0864   -368.73223    235898.68   -23306.722    1726.6428   -25033.365    137.12264   0.88882012 
   45900    237.50652   -436.66556    235898.68   -23340.629     1744.418   -25085.047     137.1923   0.88882012 
   46000    240.22887   -286.00209    235898.68   -23328.563    1764.4128   -25092.976    137.09272   0.88882012 
   46100    230.53556   -308.26465    235898.68   -23373.273    1693.2182   -25066.491    137.41047   0.88882012 
   46200       239.56   -199.98593    235898.68   -23358.073    1759.5001   -25117.573    137.78194   0.88882012 
   46300    240.96445   -351.48644    235898.68   -23332.808    1769.8155   -25102.623    138.47621   0.88882012 
   46400    239.31129   -356.01796    235898.68   -23335.151    1757.6734   -25092.824    138.56071   0.88882012 
   46500      237.581   -421.87606    235898.68   -23373.403     1744.965   -25118.368    139.16563   0.88882012 
   46600     236.4282   -290.38139    235898.68   -23394.959     1736.498   -25131.457    139.43655   0.88882012 
   46700     235.6081   -345.58799    235898.68   -23394.595    1730.4746    -25125.07    139.68317   0.88882012 
   46800    234.78712    -292.3976    235898.68   -23381.545    1724.4447    -25105.99    139.43482   0.88882012 
   46900    237.01234   -452.72668    235898.68   -23328.947    1740.7883   -25069.735    140.14156   0.88882012 
   47000    242.11374   -314.36594    235898.68   -23322.244    1778.2567   -25100.501    140.19354   0.88882012 
   47100    240.07482   -307.90586    235898.68   -23370.834    1763.2814   -25134.116    140.08446   0.88882012 
   47200    235.64539   -142.22281    235898.68   -23381.953    1730.7484   -25112.701    139.99906   0.88882012 
   47300     236.2301   -284.71898    235898.68   -23449.519     1735.043   -25184.562    139.88793   0.88882012 
   47400    230.28476   -285.10445    235898.68   -23475.075    1691.3762   -25166.451    140.29795   0.88882012 
   47500    231.45927   -356.57382    235898.68   -23436.697    1700.0026     -25136.7    140.08526   0.88882012 
   47600    233.82444   -209.78649    235898.68   -23382.008    1717.3741   -25099.382    140.04934   0.88882012 
   47700    238.03567   -233.78309    235898.68   -23341.151    1748.3044   -25089.455    140.96918   0.88882012 
   47800    238.79228   -437.44265    235898.68   -23362.363    1753.8615   -25116.224    142.00907   0.88882012 
   47900    231.81107   -366.00498    235898.68   -23388.021    1702.5865   -25090.607    142.21859   0.88882012 
   48000     237.0181   -348.50832    235898.68   -23367.431    1740.8306   -25108.261    142.99303   0.88882012 
   48100    235.05048   -324.03331    235898.68   -23390.883     1726.379   -25117.262    143.56636   0.88882012 
   48200    240.87318   -385.27003    235898.68    -23386.69    1769.1451   -25155.835    144.38018   0.88882012 
   48300    236.44539    -337.2513    235898.68   -23392.357    1736.6243   -25128.981      144.743   0.88882012 
   48400    233.19376   -197.37621    235898.68   -23433.091    1712.7419   -25145.833    144.53579   0.88882012 
   48500    229.93479    -393.8232    235898.68   -23435.232    1688.8057   -25124.037    144.82414   0.88882012 
   48600    233.68961   -383.09092    235898.68   -23393.736    1716.3838    -25110.12    145.39984   0.88882012 
   48700    235.92933   -380.79337    235898.68   -23367.447    1732.8339   -25100.281    145.86258   0.88882012 
   48800    234.19568   -394.37823    235898.68   -23347.353    1720.1007   -25067.453    146.30547   0.88882012 
   48900    234.54175   -297.88828    235898.68   -23376.962    1722.6425   -25099.604    146.21086   0.88882012 
   49000    237.39092   -410.92188    235898.68   -23404.829    1743.5689   -25148.398    146.13927   0.88882012 
   49100    231.66161   -459.13611    235898.68   -23399.435    1701.4887   -25100.924     146.0939   0.88882012 
   49200    235.41619   -311.61937    235898.68   -23403.322     1729.065   -25132.387    145.54773   0.88882012 
   49300    238.66987   -457.53198    235898.68   -23330.428    1752.9624    -25083.39    145.99608   0.88882012 
   49400    236.65977   -385.38365    235898.68    -23348.71    1738.1988   -25086.909     146.5395   0.88882012 
   49500    231.75216   -330.24842    235898.68   -23377.479    1702.1538   -25079.633    146.72389   0.88882012 
   49600    241.82732    -209.3029    235898.68   -23393.039     1776.153   -25169.192    146.71785   0.88882012 
   49700    238.68098   -310.19087    235898.68   -23352.703     1753.044   -25105.747    146.27258   0.88882012 
   49800    233.64259   -348.83206    235898.68   -23419.533    1716.0385   -25135.571    146.63427   0.88882012 
   49900    232.91698   -320.75964    235898.68   -23409.174     1710.709   -25119.883    146.53161   0.88882012 
   50000    235.07408   -382.82476    235898.68   -23407.619    1726.5523   -25134.171    146.92272   0.88882012 
Loop time of 577.557 on 12 procs for 50000 steps with 9281 atoms

Performance: 37.399 ns/day, 0.642 hours/ns, 86.572 timesteps/s
92.9% CPU use with 12 MPI tasks x no OpenMP threads

MPI task timing breakdown:
Section |  min time  |  avg time  |  max time  |%varavg| %total
---------------------------------------------------------------
Pair    | 10.369     | 67.682     | 151.33     | 617.8 | 11.72
Neigh   | 0.40059    | 6.2322     | 13.52      | 193.9 |  1.08
Comm    | 204.09     | 288.08     | 346.35     | 273.0 | 49.88
Output  | 11.849     | 11.996     | 12.157     |   2.6 |  2.08
Modify  | 98.616     | 128.21     | 155.95     | 154.8 | 22.20
Other   |            | 75.36      |            |       | 13.05

Nlocal:        773.417 ave        1478 max          46 min
Histogram: 4 0 0 0 2 0 0 2 2 2
Nghost:        1918.08 ave        2395 max        1478 min
Histogram: 4 0 0 0 4 0 0 0 2 2
Neighs:        0.00000 ave           0 max           0 min
Histogram: 12 0 0 0 0 0 0 0 0 0
FullNghs:      76762.0 ave      159045 max        1705 min
Histogram: 4 2 0 0 0 0 0 0 4 2

Total # of neighbors = 921144
Ave neighs/atom = 99.250512
Neighbor list builds = 2877
Dangerous builds = 0

# Create data file for import to other simulations
#
write_data data.${NAME}
write_data data.Ibeam_235K
System init for write_data ...


Total wall time: 0:09:37
