LAMMPS data file via write_data, version 29 Sep 2021, timestep = 6000000

8098 atoms
2 atom types

0 78.752 xlo xhi
0 68.92587069519459 ylo yhi
0 33.96350954342557 zlo zhi

Masses

1 12.01
2 18.015

Atoms # atomic

1 1 0 2.8417180249513345 1.677 0 0 0
3 1 0 0 1.677 0 0 0
5 1 1.2305 0.7104295062378347 1.677 0 0 0
12 1 1.2305 2.1312885187135 1.677 0 0 0
14 1 2.461 2.8417180249513345 1.677 0 0 0
16 1 2.461 0 1.677 0 0 0
18 1 3.6915 0.7104295062378347 1.677 0 0 0
33 1 3.6914999999999996 2.1312885187135 1.677 0 0 0
8 1 0 4.262577037427 1.677 0 0 0
29 1 2.461 4.262577037427 1.677 0 0 0
35 1 4.922 2.841718024951334 1.677 0 0 0
37 1 4.922 0 1.677 0 0 0
39 1 6.1525 0.7104295062378343 1.677 0 0 0
62 1 6.1525 2.1312885187134993 1.677 0 0 0
64 1 7.382999999999999 2.8417180249513345 1.677 0 0 0
66 1 7.382999999999999 0 1.677 0 0 0
68 1 8.613499999999998 0.7104295062378343 1.677 0 0 0
99 1 8.613499999999998 2.1312885187135002 1.677 0 0 0
58 1 4.922 4.262577037426999 1.677 0 0 0
95 1 7.382999999999999 4.262577037427 1.677 0 0 0
6 1 0 7.104295062378334 1.677 0 0 0
10 1 1.2305000000000001 4.973006543664834 1.677 0 0 0
25 1 1.2305 6.393865556140499 1.677 0 0 0
27 1 2.461 7.104295062378334 1.677 0 0 0
31 1 3.6914999999999996 4.973006543664834 1.677 0 0 0
54 1 3.6914999999999996 6.393865556140499 1.677 0 0 0
21 1 0 8.525154074854 1.677 0 0 0
50 1 2.4609999999999994 8.525154074854 1.677 0 0 0
56 1 4.922 7.104295062378334 1.677 0 0 0
60 1 6.1525 4.973006543664834 1.677 0 0 0
91 1 6.1525 6.393865556140499 1.677 0 0 0
93 1 7.383 7.104295062378334 1.677 0 0 0
97 1 8.6135 4.973006543664834 1.677 0 0 0
135 1 8.6135 6.3938655561405 1.677 0 0 0
87 1 4.922 8.525154074854 1.677 0 0 0
131 1 7.383 8.525154074854 1.677 0 0 0
2 1 0 1.420859012475665 5.031000000000001 0 0 0
4 1 0 0 5.031000000000001 0 0 0
11 1 1.2305 3.552147531189165 5.031000000000001 0 0 0
13 1 1.2305 2.1312885187135 5.031000000000001 0 0 0
15 1 2.461 1.420859012475665 5.031000000000001 0 0 0
17 1 2.461 0 5.031000000000001 0 0 0
32 1 3.6914999999999996 3.552147531189165 5.031000000000001 0 0 0
34 1 3.6914999999999996 2.1312885187135 5.031000000000001 0 0 0
9 1 0 4.262577037427 5.031000000000001 0 0 0
30 1 2.461 4.262577037427 5.031000000000001 0 0 0
36 1 4.922 1.420859012475665 5.031000000000001 0 0 0
38 1 4.922 0 5.031000000000001 0 0 0
61 1 6.1525 3.5521475311891653 5.031000000000001 0 0 0
63 1 6.1525 2.1312885187134993 5.031000000000001 0 0 0
65 1 7.382999999999999 1.420859012475666 5.031000000000001 0 0 0
67 1 7.382999999999999 0 5.031000000000001 0 0 0
98 1 8.613499999999998 3.552147531189166 5.031000000000001 0 0 0
100 1 8.613499999999998 2.1312885187135002 5.031000000000001 0 0 0
59 1 4.922 4.262577037426999 5.031000000000001 0 0 0
96 1 7.382999999999999 4.262577037427 5.031000000000001 0 0 0
7 1 0 5.683436049902665 5.031000000000001 0 0 0
26 1 1.2305 6.393865556140499 5.031000000000001 0 0 0
28 1 2.461 5.683436049902665 5.031000000000001 0 0 0
55 1 3.6914999999999996 6.393865556140499 5.031000000000001 0 0 0
22 1 0 8.525154074854 5.031000000000001 0 0 0
24 1 1.2304999999999997 7.814724568616164 5.031000000000001 0 0 0
51 1 2.4609999999999994 8.525154074854 5.031000000000001 0 0 0
53 1 3.6914999999999996 7.814724568616165 5.031000000000001 0 0 0
57 1 4.922 5.6834360499026655 5.031000000000001 0 0 0
92 1 6.1525 6.393865556140499 5.031000000000001 0 0 0
94 1 7.382999999999999 5.6834360499026655 5.031000000000001 0 0 0
136 1 8.6135 6.3938655561405 5.031000000000001 0 0 0
88 1 4.922 8.525154074854 5.031000000000001 0 0 0
90 1 6.1525 7.814724568616166 5.031000000000001 0 0 0
132 1 7.383 8.525154074854 5.031000000000001 0 0 0
134 1 8.6135 7.814724568616164 5.031000000000001 0 0 0
357 1 0 2.8417180249513345 8.385 0 0 0
358 1 0 0 8.385 0 0 0
359 1 1.2305 0.7104295062378347 8.385 0 0 0
363 1 1.2305 2.1312885187135 8.385 0 0 0
364 1 2.461 2.8417180249513345 8.385 0 0 0
365 1 2.461 0 8.385 0 0 0
366 1 3.6915 0.7104295062378347 8.385 0 0 0
374 1 3.6914999999999996 2.1312885187135 8.385 0 0 0
361 1 0 4.262577037427 8.385 0 0 0
372 1 2.461 4.262577037427 8.385 0 0 0
375 1 4.922 2.841718024951334 8.385 0 0 0
376 1 4.922 0 8.385 0 0 0
377 1 6.1525 0.7104295062378343 8.385 0 0 0
389 1 6.1525 2.1312885187134993 8.385 0 0 0
390 1 7.382999999999999 2.8417180249513345 8.385 0 0 0
391 1 7.382999999999999 0 8.385 0 0 0
392 1 8.613499999999998 0.7104295062378343 8.385 0 0 0
408 1 8.613499999999998 2.1312885187135002 8.385 0 0 0
387 1 4.922 4.262577037426999 8.385 0 0 0
406 1 7.382999999999999 4.262577037427 8.385 0 0 0
360 1 0 7.104295062378334 8.385 0 0 0
362 1 1.2305000000000001 4.973006543664834 8.385 0 0 0
370 1 1.2305 6.393865556140499 8.385 0 0 0
371 1 2.461 7.104295062378334 8.385 0 0 0
373 1 3.6914999999999996 4.973006543664834 8.385 0 0 0
385 1 3.6914999999999996 6.393865556140499 8.385 0 0 0
368 1 0 8.525154074854 8.385 0 0 0
383 1 2.4609999999999994 8.525154074854 8.385 0 0 0
386 1 4.922 7.104295062378334 8.385 0 0 0
388 1 6.1525 4.973006543664834 8.385 0 0 0
404 1 6.1525 6.393865556140499 8.385 0 0 0
405 1 7.383 7.104295062378334 8.385 0 0 0
407 1 8.6135 4.973006543664834 8.385 0 0 0
426 1 8.6135 6.3938655561405 8.385 0 0 0
402 1 4.922 8.525154074854 8.385 0 0 0
424 1 7.383 8.525154074854 8.385 0 0 0
19 1 0 11.366872099805333 1.677 0 0 0
23 1 1.2304999999999997 9.235583581091834 1.677 0 0 0
46 1 1.2304999999999997 10.656442593567498 1.677 0 0 0
48 1 2.461 11.366872099805335 1.677 0 0 0
52 1 3.6915 9.235583581091834 1.677 0 0 0
83 1 3.6914999999999996 10.6564425935675 1.677 0 0 0
42 1 0 12.787731112280998 1.677 0 0 0
79 1 2.461 12.787731112280998 1.677 0 0 0
85 1 4.922 11.366872099805333 1.677 0 0 0
89 1 6.1525 9.235583581091834 1.677 0 0 0
127 1 6.1525 10.6564425935675 1.677 0 0 0
129 1 7.382999999999999 11.366872099805335 1.677 0 0 0
133 1 8.613499999999998 9.235583581091834 1.677 0 0 0
171 1 8.613499999999998 10.656442593567498 1.677 0 0 0
123 1 4.922 12.787731112281 1.677 0 0 0
167 1 7.382999999999999 12.787731112280998 1.677 0 0 0
44 1 1.2305000000000001 13.498160618518833 1.677 0 0 0
75 1 1.2305000000000001 14.919019630994498 1.677 0 0 0
81 1 3.6915 13.498160618518833 1.677 0 0 0
119 1 3.6915 14.919019630994498 1.677 0 0 0
40 1 0 15.629449137232333 1.677 0 0 0
71 1 0 17.050308149708 1.677 0 0 0
77 1 2.4610000000000003 15.629449137232331 1.677 0 0 0
115 1 2.4610000000000003 17.050308149708 1.677 0 0 0
121 1 4.921999999999999 15.629449137232333 1.677 0 0 0
159 1 4.921999999999999 17.050308149708 1.677 0 0 0
125 1 6.152499999999999 13.498160618518833 1.677 0 0 0
163 1 6.152499999999999 14.919019630994498 1.677 0 0 0
169 1 8.6135 13.498160618518835 1.677 0 0 0
207 1 8.6135 14.919019630994498 1.677 0 0 0
165 1 7.382999999999999 15.629449137232333 1.677 0 0 0
203 1 7.383 17.050308149708 1.677 0 0 0
20 1 0 9.946013087329664 5.031000000000001 0 0 0
47 1 1.2304999999999997 10.656442593567498 5.031000000000001 0 0 0
49 1 2.4609999999999994 9.946013087329664 5.031000000000001 0 0 0
84 1 3.6914999999999996 10.6564425935675 5.031000000000001 0 0 0
43 1 0 12.787731112280998 5.031000000000001 0 0 0
45 1 1.2304999999999997 12.077301606043164 5.031000000000001 0 0 0
80 1 2.461 12.787731112280998 5.031000000000001 0 0 0
82 1 3.6914999999999996 12.077301606043164 5.031000000000001 0 0 0
86 1 4.922 9.946013087329666 5.031000000000001 0 0 0
128 1 6.1525 10.6564425935675 5.031000000000001 0 0 0
130 1 7.383 9.946013087329664 5.031000000000001 0 0 0
172 1 8.613499999999998 10.656442593567498 5.031000000000001 0 0 0
124 1 4.922 12.787731112281 5.031000000000001 0 0 0
126 1 6.1525 12.077301606043164 5.031000000000001 0 0 0
168 1 7.382999999999999 12.787731112280998 5.031000000000001 0 0 0
170 1 8.6135 12.077301606043164 5.031000000000001 0 0 0
41 1 0 14.208590124756665 5.031000000000001 0 0 0
76 1 1.2305000000000001 14.919019630994498 5.031000000000001 0 0 0
78 1 2.461 14.208590124756665 5.031000000000001 0 0 0
120 1 3.6915 14.919019630994498 5.031000000000001 0 0 0
72 1 0 17.050308149708 5.031000000000001 0 0 0
74 1 1.2305000000000001 16.339878643470165 5.031000000000001 0 0 0
116 1 2.4610000000000003 17.050308149708 5.031000000000001 0 0 0
118 1 3.6915 16.339878643470165 5.031000000000001 0 0 0
160 1 4.921999999999999 17.050308149708 5.031000000000001 0 0 0
122 1 4.922 14.208590124756663 5.031000000000001 0 0 0
164 1 6.152499999999999 14.919019630994498 5.031000000000001 0 0 0
166 1 7.383 14.208590124756665 5.031000000000001 0 0 0
208 1 8.6135 14.919019630994498 5.031000000000001 0 0 0
162 1 6.1525 16.339878643470165 5.031000000000001 0 0 0
204 1 7.383 17.050308149708 5.031000000000001 0 0 0
206 1 8.613499999999998 16.339878643470165 5.031000000000001 0 0 0
367 1 0 11.366872099805333 8.385 0 0 0
369 1 1.2304999999999997 9.235583581091834 8.385 0 0 0
381 1 1.2304999999999997 10.656442593567498 8.385 0 0 0
382 1 2.461 11.366872099805335 8.385 0 0 0
384 1 3.6915 9.235583581091834 8.385 0 0 0
400 1 3.6914999999999996 10.6564425935675 8.385 0 0 0
379 1 0 12.787731112280998 8.385 0 0 0
398 1 2.461 12.787731112280998 8.385 0 0 0
401 1 4.922 11.366872099805333 8.385 0 0 0
403 1 6.1525 9.235583581091834 8.385 0 0 0
422 1 6.1525 10.6564425935675 8.385 0 0 0
423 1 7.382999999999999 11.366872099805335 8.385 0 0 0
425 1 8.613499999999998 9.235583581091834 8.385 0 0 0
444 1 8.613499999999998 10.656442593567498 8.385 0 0 0
420 1 4.922 12.787731112281 8.385 0 0 0
442 1 7.382999999999999 12.787731112280998 8.385 0 0 0
380 1 1.2305000000000001 13.498160618518833 8.385 0 0 0
396 1 1.2305000000000001 14.919019630994498 8.385 0 0 0
399 1 3.6915 13.498160618518833 8.385 0 0 0
418 1 3.6915 14.919019630994498 8.385 0 0 0
378 1 0 15.629449137232333 8.385 0 0 0
394 1 0 17.050308149708 8.385 0 0 0
397 1 2.4610000000000003 15.629449137232331 8.385 0 0 0
416 1 2.4610000000000003 17.050308149708 8.385 0 0 0
419 1 4.921999999999999 15.629449137232333 8.385 0 0 0
438 1 4.921999999999999 17.050308149708 8.385 0 0 0
421 1 6.152499999999999 13.498160618518833 8.385 0 0 0
440 1 6.152499999999999 14.919019630994498 8.385 0 0 0
443 1 8.6135 13.498160618518835 8.385 0 0 0
462 1 8.6135 14.919019630994498 8.385 0 0 0
441 1 7.382999999999999 15.629449137232333 8.385 0 0 0
460 1 7.383 17.050308149708 8.385 0 0 0
73 1 1.2305000000000001 17.76073765594583 1.677 0 0 0
117 1 3.6914999999999996 17.76073765594583 1.677 0 0 0
69 1 0 19.892026174659332 1.677 0 0 0
107 1 0 21.312885187135 1.677 0 0 0
111 1 1.2305000000000001 19.1815966684215 1.677 0 0 0
113 1 2.4609999999999994 19.892026174659332 1.677 0 0 0
151 1 2.4609999999999994 21.312885187134995 1.677 0 0 0
155 1 3.6914999999999996 19.1815966684215 1.677 0 0 0
161 1 6.1525 17.76073765594583 1.677 0 0 0
205 1 8.613499999999998 17.76073765594583 1.677 0 0 0
157 1 4.922 19.892026174659332 1.677 0 0 0
195 1 4.922000000000001 21.312885187134995 1.677 0 0 0
199 1 6.1525 19.1815966684215 1.677 0 0 0
201 1 7.382999999999999 19.892026174659332 1.677 0 0 0
239 1 7.382999999999999 21.312885187135 1.677 0 0 0
243 1 8.6135 19.1815966684215 1.677 0 0 0
109 1 1.2304999999999993 22.023314693372832 1.677 0 0 0
153 1 3.6914999999999996 22.023314693372832 1.677 0 0 0
533 1 0 24.154603212086332 1.677 0 0 0
536 1 0 25.575462224561996 1.677 0 0 0
540 1 1.2304999999999993 23.4441737058485 1.677 0 0 0
542 1 2.4609999999999994 24.154603212086332 1.677 0 0 0
553 1 2.4610000000000003 25.575462224561996 1.677 0 0 0
557 1 3.6915000000000004 23.4441737058485 1.677 0 0 0
559 1 4.921999999999999 24.154603212086332 1.677 0 0 0
197 1 6.152499999999999 22.023314693372832 1.677 0 0 0
241 1 8.6135 22.023314693372836 1.677 0 0 0
578 1 4.922 25.575462224561996 1.677 0 0 0
582 1 6.1525 23.4441737058485 1.677 0 0 0
584 1 7.383 24.154603212086336 1.677 0 0 0
611 1 7.382999999999999 25.575462224561996 1.677 0 0 0
615 1 8.613499999999998 23.4441737058485 1.677 0 0 0
70 1 0 18.471167162183665 5.031000000000001 0 0 0
114 1 2.4610000000000003 18.47116716218366 5.031000000000001 0 0 0
108 1 0 21.312885187135 5.031000000000001 0 0 0
110 1 1.2305000000000001 20.602455680897165 5.031000000000001 0 0 0
112 1 1.2305000000000001 19.1815966684215 5.031000000000001 0 0 0
152 1 2.4609999999999994 21.312885187134995 5.031000000000001 0 0 0
154 1 3.6915000000000004 20.602455680897165 5.031000000000001 0 0 0
156 1 3.6914999999999996 19.1815966684215 5.031000000000001 0 0 0
158 1 4.922000000000001 18.47116716218366 5.031000000000001 0 0 0
202 1 7.382999999999999 18.471167162183665 5.031000000000001 0 0 0
246 1 9.843999999999998 18.47116716218366 5.031000000000001 0 0 0
196 1 4.922000000000001 21.312885187134995 5.031000000000001 0 0 0
198 1 6.1525 20.602455680897165 5.031000000000001 0 0 0
200 1 6.1525 19.1815966684215 5.031000000000001 0 0 0
240 1 7.382999999999999 21.312885187135 5.031000000000001 0 0 0
242 1 8.613499999999998 20.60245568089716 5.031000000000001 0 0 0
244 1 8.6135 19.1815966684215 5.031000000000001 0 0 0
106 1 0 22.733744199610662 5.031000000000001 0 0 0
150 1 2.4610000000000003 22.733744199610662 5.031000000000001 0 0 0
537 1 0 25.575462224561996 5.031000000000001 0 0 0
539 1 1.2305000000000001 24.865032718324162 5.031000000000001 0 0 0
541 1 1.2304999999999993 23.4441737058485 5.031000000000001 0 0 0
554 1 2.4610000000000003 25.575462224561996 5.031000000000001 0 0 0
556 1 3.6914999999999996 24.865032718324166 5.031000000000001 0 0 0
558 1 3.6915000000000004 23.4441737058485 5.031000000000001 0 0 0
194 1 4.922 22.733744199610662 5.031000000000001 0 0 0
238 1 7.382999999999999 22.733744199610662 5.031000000000001 0 0 0
278 1 9.843999999999998 22.733744199610662 5.031000000000001 0 0 0
579 1 4.922 25.575462224561996 5.031000000000001 0 0 0
581 1 6.152499999999999 24.86503271832416 5.031000000000001 0 0 0
583 1 6.1525 23.4441737058485 5.031000000000001 0 0 0
612 1 7.382999999999999 25.575462224561996 5.031000000000001 0 0 0
614 1 8.613499999999998 24.86503271832416 5.031000000000001 0 0 0
616 1 8.613499999999998 23.4441737058485 5.031000000000001 0 0 0
395 1 1.2305000000000001 17.76073765594583 8.385 0 0 0
417 1 3.6914999999999996 17.76073765594583 8.385 0 0 0
393 1 0 19.892026174659332 8.385 0 0 0
412 1 0 21.312885187135 8.385 0 0 0
414 1 1.2305000000000001 19.1815966684215 8.385 0 0 0
415 1 2.4609999999999994 19.892026174659332 8.385 0 0 0
434 1 2.4609999999999994 21.312885187134995 8.385 0 0 0
436 1 3.6914999999999996 19.1815966684215 8.385 0 0 0
439 1 6.1525 17.76073765594583 8.385 0 0 0
461 1 8.613499999999998 17.76073765594583 8.385 0 0 0
437 1 4.922 19.892026174659332 8.385 0 0 0
456 1 4.922000000000001 21.312885187134995 8.385 0 0 0
458 1 6.1525 19.1815966684215 8.385 0 0 0
459 1 7.382999999999999 19.892026174659332 8.385 0 0 0
478 1 7.382999999999999 21.312885187135 8.385 0 0 0
480 1 8.6135 19.1815966684215 8.385 0 0 0
413 1 1.2304999999999993 22.023314693372832 8.385 0 0 0
435 1 3.6914999999999996 22.023314693372832 8.385 0 0 0
879 1 0 24.154603212086332 8.385 0 0 0
881 1 0 25.575462224561996 8.385 0 0 0
883 1 1.2304999999999993 23.4441737058485 8.385 0 0 0
884 1 2.4609999999999994 24.154603212086332 8.385 0 0 0
890 1 2.4610000000000003 25.575462224561996 8.385 0 0 0
892 1 3.6915000000000004 23.4441737058485 8.385 0 0 0
893 1 4.921999999999999 24.154603212086332 8.385 0 0 0
457 1 6.152499999999999 22.023314693372832 8.385 0 0 0
479 1 8.6135 22.023314693372836 8.385 0 0 0
903 1 4.922 25.575462224561996 8.385 0 0 0
905 1 6.1525 23.4441737058485 8.385 0 0 0
906 1 7.383 24.154603212086336 8.385 0 0 0
920 1 7.382999999999999 25.575462224561996 8.385 0 0 0
922 1 8.613499999999998 23.4441737058485 8.385 0 0 0
538 1 1.2305000000000001 26.285891730799833 1.677 0 0 0
555 1 3.6914999999999987 26.285891730799833 1.677 0 0 0
534 1 0 28.417180249513333 1.677 0 0 0
545 1 0 29.838039261988996 1.677 0 0 0
549 1 1.230500000000001 27.706750743275496 1.677 0 0 0
551 1 2.4609999999999994 28.41718024951333 1.677 0 0 0
570 1 2.4610000000000003 29.838039261988996 1.677 0 0 0
574 1 3.6914999999999996 27.7067507432755 1.677 0 0 0
603 1 4.921999999999999 29.838039261988996 1.677 0 0 0
580 1 6.1525 26.285891730799836 1.677 0 0 0
613 1 8.613500000000002 26.285891730799836 1.677 0 0 0
576 1 4.922 28.417180249513336 1.677 0 0 0
607 1 6.152499999999999 27.7067507432755 1.677 0 0 0
609 1 7.383000000000001 28.417180249513336 1.677 0 0 0
644 1 7.383 29.838039261988996 1.677 0 0 0
648 1 8.6135 27.7067507432755 1.677 0 0 0
547 1 1.2304999999999993 30.548468768226833 1.677 0 0 0
572 1 3.6915000000000004 30.548468768226833 1.677 0 0 0
543 1 0 32.67975728694033 1.677 0 0 0
562 1 0 34.100616299416 1.677 0 0 0
566 1 1.2304999999999993 31.969327780702496 1.677 0 0 0
568 1 2.4610000000000003 32.67975728694034 1.677 0 0 0
595 1 2.4609999999999985 34.100616299416 1.677 0 0 0
599 1 3.6914999999999996 31.969327780702496 1.677 0 0 0
605 1 6.152500000000001 30.548468768226833 1.677 0 0 0
646 1 8.6135 30.548468768226833 1.677 0 0 0
601 1 4.9220000000000015 32.67975728694034 1.677 0 0 0
636 1 4.922000000000001 34.100616299416 1.677 0 0 0
640 1 6.1525 31.9693277807025 1.677 0 0 0
642 1 7.383 32.67975728694033 1.677 0 0 0
679 1 7.382999999999999 34.100616299416 1.677 0 0 0
683 1 8.613499999999998 31.9693277807025 1.677 0 0 0
722 1 9.843999999999998 34.100616299416 1.677 0 0 0
535 1 0 26.996321237037662 5.031000000000001 0 0 0
546 1 0 29.838039261988996 5.031000000000001 0 0 0
548 1 1.2304999999999993 29.127609755751163 5.031000000000001 0 0 0
550 1 1.230500000000001 27.706750743275496 5.031000000000001 0 0 0
552 1 2.4609999999999994 26.996321237037662 5.031000000000001 0 0 0
571 1 2.4610000000000003 29.838039261988996 5.031000000000001 0 0 0
573 1 3.6914999999999987 29.12760975575116 5.031000000000001 0 0 0
575 1 3.6914999999999996 27.7067507432755 5.031000000000001 0 0 0
577 1 4.921999999999999 26.996321237037662 5.031000000000001 0 0 0
604 1 4.921999999999999 29.838039261988996 5.031000000000001 0 0 0
606 1 6.152499999999998 29.12760975575116 5.031000000000001 0 0 0
608 1 6.152499999999999 27.7067507432755 5.031000000000001 0 0 0
610 1 7.382999999999998 26.996321237037662 5.031000000000001 0 0 0
645 1 7.383 29.838039261988996 5.031000000000001 0 0 0
647 1 8.613499999999998 29.12760975575116 5.031000000000001 0 0 0
649 1 8.6135 27.7067507432755 5.031000000000001 0 0 0
544 1 0 31.258898274464663 5.031000000000001 0 0 0
563 1 0 34.100616299416 5.031000000000001 0 0 0
565 1 1.2304999999999993 33.39018679317816 5.031000000000001 0 0 0
567 1 1.2304999999999993 31.969327780702496 5.031000000000001 0 0 0
569 1 2.4609999999999985 31.25889827446466 5.031000000000001 0 0 0
596 1 2.4609999999999985 34.100616299416 5.031000000000001 0 0 0
598 1 3.691499999999998 33.39018679317816 5.031000000000001 0 0 0
600 1 3.6914999999999996 31.969327780702496 5.031000000000001 0 0 0
602 1 4.921999999999998 31.25889827446466 5.031000000000001 0 0 0
637 1 4.922000000000001 34.100616299416 5.031000000000001 0 0 0
639 1 6.152499999999999 33.39018679317816 5.031000000000001 0 0 0
641 1 6.1525 31.9693277807025 5.031000000000001 0 0 0
643 1 7.382999999999999 31.258898274464663 5.031000000000001 0 0 0
680 1 7.382999999999999 34.100616299416 5.031000000000001 0 0 0
682 1 8.613499999999998 33.39018679317816 5.031000000000001 0 0 0
684 1 8.613499999999998 31.9693277807025 5.031000000000001 0 0 0
686 1 9.843999999999998 31.258898274464663 5.031000000000001 0 0 0
723 1 9.843999999999998 34.100616299416 5.031000000000001 0 0 0
882 1 1.2305000000000001 26.285891730799833 8.385 0 0 0
891 1 3.6914999999999987 26.285891730799833 8.385 0 0 0
880 1 0 28.417180249513333 8.385 0 0 0
886 1 0 29.838039261988996 8.385 0 0 0
888 1 1.230500000000001 27.706750743275496 8.385 0 0 0
889 1 2.4609999999999994 28.41718024951333 8.385 0 0 0
899 1 2.4610000000000003 29.838039261988996 8.385 0 0 0
901 1 3.6914999999999996 27.7067507432755 8.385 0 0 0
916 1 4.921999999999999 29.838039261988996 8.385 0 0 0
904 1 6.1525 26.285891730799836 8.385 0 0 0
921 1 8.613500000000002 26.285891730799836 8.385 0 0 0
902 1 4.922 28.417180249513336 8.385 0 0 0
918 1 6.152499999999999 27.7067507432755 8.385 0 0 0
919 1 7.383000000000001 28.417180249513336 8.385 0 0 0
937 1 7.383 29.838039261988996 8.385 0 0 0
939 1 8.6135 27.7067507432755 8.385 0 0 0
887 1 1.2304999999999993 30.548468768226833 8.385 0 0 0
900 1 3.6915000000000004 30.548468768226833 8.385 0 0 0
885 1 0 32.67975728694033 8.385 0 0 0
895 1 0 34.100616299416 8.385 0 0 0
897 1 1.2304999999999993 31.969327780702496 8.385 0 0 0
898 1 2.4610000000000003 32.67975728694034 8.385 0 0 0
912 1 2.4609999999999985 34.100616299416 8.385 0 0 0
914 1 3.6914999999999996 31.969327780702496 8.385 0 0 0
917 1 6.152500000000001 30.548468768226833 8.385 0 0 0
938 1 8.6135 30.548468768226833 8.385 0 0 0
915 1 4.9220000000000015 32.67975728694034 8.385 0 0 0
933 1 4.922000000000001 34.100616299416 8.385 0 0 0
935 1 6.1525 31.9693277807025 8.385 0 0 0
936 1 7.383 32.67975728694033 8.385 0 0 0
955 1 7.382999999999999 34.100616299416 8.385 0 0 0
957 1 8.613499999999998 31.9693277807025 8.385 0 0 0
977 1 9.843999999999998 34.100616299416 8.385 0 0 0
560 1 0 36.94233432436734 1.677 0 0 0
564 1 1.230500000000001 34.81104580565383 1.677 0 0 0
591 1 1.2304999999999993 36.23190481812949 1.677 0 0 0
593 1 2.461000000000002 36.94233432436734 1.677 0 0 0
597 1 3.6915000000000013 34.81104580565383 1.677 0 0 0
632 1 3.6914999999999996 36.23190481812949 1.677 0 0 0
587 1 0 38.363193336843 1.677 0 0 0
628 1 2.4610000000000003 38.363193336843 1.677 0 0 0
671 1 4.921999999999999 38.363193336843 1.677 0 0 0
634 1 4.922000000000001 36.94233432436733 1.677 0 0 0
638 1 6.152500000000001 34.81104580565383 1.677 0 0 0
675 1 6.1525 36.23190481812949 1.677 0 0 0
677 1 7.383000000000002 36.94233432436733 1.677 0 0 0
681 1 8.613500000000002 34.81104580565383 1.677 0 0 0
718 1 8.613499999999998 36.23190481812949 1.677 0 0 0
714 1 7.382999999999999 38.363193336843 1.677 0 0 0
585 1 0 41.20491136179434 1.677 0 0 0
589 1 1.230500000000001 39.07362284308084 1.677 0 0 0
624 1 1.230500000000001 40.4944818555565 1.677 0 0 0
626 1 2.4610000000000003 41.20491136179433 1.677 0 0 0
630 1 3.6915000000000013 39.07362284308083 1.677 0 0 0
667 1 3.6914999999999996 40.4944818555565 1.677 0 0 0
620 1 0 42.62577037427 1.677 0 0 0
663 1 2.4610000000000003 42.62577037427 1.677 0 0 0
706 1 4.921999999999999 42.62577037426999 1.677 0 0 0
669 1 4.922000000000002 41.20491136179433 1.677 0 0 0
673 1 6.152500000000002 39.073622843080834 1.677 0 0 0
710 1 6.152499999999998 40.494481855556494 1.677 0 0 0
712 1 7.383000000000001 41.20491136179433 1.677 0 0 0
716 1 8.613500000000002 39.073622843080834 1.677 0 0 0
753 1 8.6135 40.494481855556494 1.677 0 0 0
749 1 7.382999999999999 42.62577037426999 1.677 0 0 0
561 1 0 35.521475311891656 5.031000000000001 0 0 0
590 1 1.2304999999999993 37.65276383060515 5.031000000000001 0 0 0
592 1 1.2304999999999993 36.23190481812949 5.031000000000001 0 0 0
594 1 2.4609999999999985 35.52147531189166 5.031000000000001 0 0 0
631 1 3.6914999999999996 37.65276383060516 5.031000000000001 0 0 0
633 1 3.6914999999999996 36.23190481812949 5.031000000000001 0 0 0
635 1 4.921999999999999 35.52147531189166 5.031000000000001 0 0 0
588 1 0 38.363193336843 5.031000000000001 0 0 0
629 1 2.4610000000000003 38.363193336843 5.031000000000001 0 0 0
672 1 4.921999999999999 38.363193336843 5.031000000000001 0 0 0
674 1 6.152499999999998 37.65276383060516 5.031000000000001 0 0 0
676 1 6.1525 36.23190481812949 5.031000000000001 0 0 0
678 1 7.382999999999998 35.52147531189166 5.031000000000001 0 0 0
717 1 8.613499999999998 37.65276383060516 5.031000000000001 0 0 0
719 1 8.613499999999998 36.23190481812949 5.031000000000001 0 0 0
721 1 9.843999999999998 35.52147531189166 5.031000000000001 0 0 0
715 1 7.382999999999999 38.363193336843 5.031000000000001 0 0 0
586 1 0 39.78405234931866 5.031000000000001 0 0 0
623 1 1.230500000000001 41.91534086803216 5.031000000000001 0 0 0
625 1 1.230500000000001 40.4944818555565 5.031000000000001 0 0 0
627 1 2.4610000000000003 39.78405234931866 5.031000000000001 0 0 0
666 1 3.6914999999999996 41.91534086803216 5.031000000000001 0 0 0
668 1 3.6914999999999996 40.4944818555565 5.031000000000001 0 0 0
670 1 4.921999999999999 39.78405234931866 5.031000000000001 0 0 0
621 1 0 42.62577037427 5.031000000000001 0 0 0
664 1 2.4610000000000003 42.62577037427 5.031000000000001 0 0 0
707 1 4.921999999999999 42.62577037426999 5.031000000000001 0 0 0
709 1 6.152499999999998 41.91534086803216 5.031000000000001 0 0 0
711 1 6.152499999999998 40.494481855556494 5.031000000000001 0 0 0
713 1 7.382999999999997 39.78405234931866 5.031000000000001 0 0 0
752 1 8.613499999999997 41.91534086803216 5.031000000000001 0 0 0
754 1 8.6135 40.494481855556494 5.031000000000001 0 0 0
756 1 9.843999999999998 39.78405234931866 5.031000000000001 0 0 0
750 1 7.382999999999999 42.62577037426999 5.031000000000001 0 0 0
894 1 0 36.94233432436734 8.385 0 0 0
896 1 1.230500000000001 34.81104580565383 8.385 0 0 0
910 1 1.2304999999999993 36.23190481812949 8.385 0 0 0
911 1 2.461000000000002 36.94233432436734 8.385 0 0 0
913 1 3.6915000000000013 34.81104580565383 8.385 0 0 0
931 1 3.6914999999999996 36.23190481812949 8.385 0 0 0
908 1 0 38.363193336843 8.385 0 0 0
929 1 2.4610000000000003 38.363193336843 8.385 0 0 0
951 1 4.921999999999999 38.363193336843 8.385 0 0 0
932 1 4.922000000000001 36.94233432436733 8.385 0 0 0
934 1 6.152500000000001 34.81104580565383 8.385 0 0 0
953 1 6.1525 36.23190481812949 8.385 0 0 0
954 1 7.383000000000002 36.94233432436733 8.385 0 0 0
956 1 8.613500000000002 34.81104580565383 8.385 0 0 0
975 1 8.613499999999998 36.23190481812949 8.385 0 0 0
973 1 7.382999999999999 38.363193336843 8.385 0 0 0
907 1 0 41.20491136179434 8.385 0 0 0
909 1 1.230500000000001 39.07362284308084 8.385 0 0 0
927 1 1.230500000000001 40.4944818555565 8.385 0 0 0
928 1 2.4610000000000003 41.20491136179433 8.385 0 0 0
930 1 3.6915000000000013 39.07362284308083 8.385 0 0 0
949 1 3.6914999999999996 40.4944818555565 8.385 0 0 0
925 1 0 42.62577037427 8.385 0 0 0
947 1 2.4610000000000003 42.62577037427 8.385 0 0 0
969 1 4.921999999999999 42.62577037426999 8.385 0 0 0
950 1 4.922000000000002 41.20491136179433 8.385 0 0 0
952 1 6.152500000000002 39.073622843080834 8.385 0 0 0
971 1 6.152499999999998 40.494481855556494 8.385 0 0 0
972 1 7.383000000000001 41.20491136179433 8.385 0 0 0
974 1 8.613500000000002 39.073622843080834 8.385 0 0 0
993 1 8.6135 40.494481855556494 8.385 0 0 0
991 1 7.382999999999999 42.62577037426999 8.385 0 0 0
618 1 0 45.46748839922133 1.677 0 0 0
622 1 1.2304999999999993 43.336199880507834 1.677 0 0 0
659 1 1.2304999999999993 44.757058892983494 1.677 0 0 0
661 1 2.4610000000000003 45.46748839922134 1.677 0 0 0
665 1 3.6915000000000013 43.336199880507834 1.677 0 0 0
702 1 3.6914999999999996 44.757058892983494 1.677 0 0 0
1057 1 0 46.888347411697 1.677 0 0 0
1071 1 2.4609999999999985 46.888347411697 1.677 0 0 0
704 1 4.922000000000001 45.46748839922134 1.677 0 0 0
708 1 6.152500000000002 43.336199880507834 1.677 0 0 0
745 1 6.1525 44.757058892983494 1.677 0 0 0
747 1 7.383000000000003 45.46748839922133 1.677 0 0 0
751 1 8.613500000000002 43.336199880507834 1.677 0 0 0
787 1 8.6135 44.757058892983494 1.677 0 0 0
1093 1 4.922000000000001 46.888347411697 1.677 0 0 0
1123 1 7.383000000000001 46.888347411697 1.677 0 0 0
1055 1 0 49.73006543664833 1.677 0 0 0
1059 1 1.230500000000001 47.59877691793483 1.677 0 0 0
1067 1 1.2304999999999993 49.019635930410494 1.677 0 0 0
1069 1 2.4610000000000003 49.73006543664833 1.677 0 0 0
1073 1 3.6914999999999996 47.598776917934835 1.677 0 0 0
1089 1 3.6914999999999996 49.019635930410494 1.677 0 0 0
1063 1 0 51.15092444912399 1.677 0 0 0
1085 1 2.4610000000000003 51.15092444912399 1.677 0 0 0
1091 1 4.922000000000001 49.73006543664833 1.677 0 0 0
1095 1 6.152500000000002 47.598776917934835 1.677 0 0 0
1119 1 6.152500000000002 49.019635930410494 1.677 0 0 0
1121 1 7.383000000000001 49.73006543664833 1.677 0 0 0
1125 1 8.613500000000002 47.59877691793483 1.677 0 0 0
1157 1 8.6135 49.019635930410494 1.677 0 0 0
1115 1 4.922000000000001 51.15092444912399 1.677 0 0 0
1153 1 7.383000000000001 51.15092444912399 1.677 0 0 0
619 1 0 44.04662938674566 5.031000000000001 0 0 0
660 1 1.2304999999999993 44.757058892983494 5.031000000000001 0 0 0
662 1 2.4610000000000003 44.04662938674566 5.031000000000001 0 0 0
703 1 3.6914999999999996 44.757058892983494 5.031000000000001 0 0 0
705 1 4.921999999999999 44.04662938674566 5.031000000000001 0 0 0
1058 1 0 46.888347411697 5.031000000000001 0 0 0
1060 1 1.2304999999999993 46.177917905459154 5.031000000000001 0 0 0
1072 1 2.4609999999999985 46.888347411697 5.031000000000001 0 0 0
1074 1 3.6914999999999996 46.177917905459154 5.031000000000001 0 0 0
746 1 6.1525 44.757058892983494 5.031000000000001 0 0 0
748 1 7.382999999999997 44.046629386745664 5.031000000000001 0 0 0
788 1 8.6135 44.757058892983494 5.031000000000001 0 0 0
1094 1 4.922000000000001 46.888347411697 5.031000000000001 0 0 0
1096 1 6.152499999999998 46.177917905459154 5.031000000000001 0 0 0
1124 1 7.383000000000001 46.888347411697 5.031000000000001 0 0 0
1126 1 8.6135 46.177917905459154 5.031000000000001 0 0 0
1056 1 0 48.30920642417266 5.031000000000001 0 0 0
1068 1 1.2304999999999993 49.019635930410494 5.031000000000001 0 0 0
1070 1 2.4609999999999985 48.30920642417266 5.031000000000001 0 0 0
1090 1 3.6914999999999996 49.019635930410494 5.031000000000001 0 0 0
1092 1 4.921999999999999 48.30920642417266 5.031000000000001 0 0 0
1064 1 0 51.15092444912399 5.031000000000001 0 0 0
1066 1 1.2304999999999993 50.44049494288616 5.031000000000001 0 0 0
1086 1 2.4610000000000003 51.15092444912399 5.031000000000001 0 0 0
1088 1 3.691499999999998 50.44049494288616 5.031000000000001 0 0 0
1120 1 6.152500000000002 49.019635930410494 5.031000000000001 0 0 0
1122 1 7.383000000000001 48.30920642417266 5.031000000000001 0 0 0
1158 1 8.6135 49.019635930410494 5.031000000000001 0 0 0
1116 1 4.922000000000001 51.15092444912399 5.031000000000001 0 0 0
1118 1 6.152500000000002 50.440494942886154 5.031000000000001 0 0 0