
### Dimensions ###
variable Z_G equal 10.062000000000001
variable Z_W equal 23.803019087

variable	XDIM string 78.752
variable 	YDIM string 68.92587069519459


### IMPORT ATOMS ###
read_data ../Box_Setup/data.Ibeam_240K
Reading data file ...
  orthogonal box = (0.0000000 0.0000000 0.0000000) to (78.752000 68.925871 33.963510)
  8 by 8 by 2 MPI processor grid
  reading atoms ...
  8098 atoms
  reading velocities ...
  8098 velocities
  read_data CPU = 0.019 seconds
group water type 2
1794 atoms in group water
group graphite type 1
6304 atoms in group graphite


# Define potential
#
pair_style          sw
pair_coeff * * MLC_e.sw C mW

# Add velocity/set timestep
#

fix		1 graphite setforce 0.0 0.0 0.0
velocity 	graphite set 0.0 0.0 0.0
velocity            water create ${START_TEMP} ${SEED} rot yes dist gaussian
velocity            water create 240 ${SEED} rot yes dist gaussian
velocity            water create 240 30832 rot yes dist gaussian
timestep            5.0

# Define output
#
compute 1 water msd
compute 2 water temp


thermo	            100
thermo_style custom step c_2 press vol etotal ke pe c_1[4] density

# Neighbor lists
#
neigh_modify        delay 0 every 1 check yes


# Set fixes
#
fix                 2 water momentum 10 linear 1 1 1 rescale
fix                 3 all nve
fix                 4 water temp/csvr ${START_TEMP} ${START_TEMP} 500.0 928347
fix                 4 water temp/csvr 240 ${START_TEMP} 500.0 928347
fix                 4 water temp/csvr 240 240 500.0 928347

# Run 0.05 ns equilibration
#
dump                1 all custom 100 ${DIR}/eq.${NAME}.dump id type x y z vx vy vz
dump                1 all custom 100 run_1/eq.${NAME}.dump id type x y z vx vy vz
dump                1 all custom 100 run_1/eq.ibeam_cooling_1.dump id type x y z vx vy vz
run                 10000
Neighbor list info ...
  update every 1 steps, delay 0 steps, check yes
  max neighbors/atom: 2000, page size: 100000
  master list distance cutoff = 6.6747184
  ghost atom cutoff = 6.6747184
  binsize = 3.3373592, bins = 24 21 11
  1 neighbor lists, perpetual/occasional/extra = 1 0 0
  (1) pair sw, perpetual
      attributes: full, newton on
      pair build: full/bin/atomonly
      stencil: full/bin/3d
      bin: standard
Per MPI rank memory allocation (min/avg/max) = 3.600 | 4.444 | 4.730 Mbytes
Step c_2 Press Volume TotEng KinEng PotEng c_1[4] Density 
       0          240   -393.07244    184355.63   -16966.788    1282.7022    -18249.49            0   0.97305373 
     100    241.43954   -345.13779    184355.63   -16980.191    1290.3959   -18270.587   0.83046527   0.97305373 
     200    241.84713   -254.88246    184355.63   -17028.387    1292.5743   -18320.961    1.2391831   0.97305373 
     300    242.93683   -391.20896    184355.63   -17012.147    1298.3983   -18310.546    1.6945329   0.97305373 
     400    237.52205   -410.23333    184355.63   -17027.996    1269.4586   -18297.455     2.094927   0.97305373 
     500     231.1999   -355.03631    184355.63     -16999.6    1235.6693   -18235.269    2.5648854   0.97305373 
     600    249.75101   -378.29849    184355.63   -16914.388    1334.8173   -18249.206    3.1139997   0.97305373 
     700    250.37948   -486.73808    184355.63   -16928.348    1338.1763   -18266.524    3.5230026   0.97305373 
     800    250.76503   -263.89394    184355.63   -16919.384    1340.2369   -18259.621    3.9019444   0.97305373 
     900    238.88954   -319.79413    184355.63   -16958.673    1276.7672   -18235.441    4.2889154   0.97305373 
    1000    236.99074   -429.98294    184355.63    -16985.13    1266.6189   -18251.749    4.4821012   0.97305373 
    1100    241.88872   -115.19589    184355.63   -16955.143    1292.7966   -18247.939     4.908337   0.97305373 
    1200    239.86864   -401.07522    184355.63   -16947.395    1282.0001   -18229.396    5.1204961   0.97305373 
    1300    241.24425   -428.06789    184355.63   -16904.048    1289.3522     -18193.4    5.5511718   0.97305373 
    1400    244.48887   -410.74066    184355.63   -16928.362    1306.6934   -18235.055    5.8783973   0.97305373 
    1500      247.346   -289.28584    184355.63    -16967.93    1321.9636   -18289.893    6.0421455   0.97305373 
    1600    238.12502   -352.23594    184355.63   -16968.619    1272.6812     -18241.3    6.4488122   0.97305373 
    1700    246.58883   -401.62498    184355.63   -16963.807    1317.9168   -18281.724    6.8738513   0.97305373 
    1800    241.51592   -342.34906    184355.63   -16957.363    1290.8042   -18248.167    7.2892433   0.97305373 
    1900    245.34297   -243.27826    184355.63   -16939.178    1311.2582   -18250.436    7.6189079   0.97305373 
    2000    250.19073   -407.27918    184355.63   -16914.214    1337.1675   -18251.382    7.9000502   0.97305373 
    2100    241.52374     -306.858    184355.63   -17009.731    1290.8459   -18300.577    8.1764728   0.97305373 
    2200    240.72774   -255.45396    184355.63   -16989.961    1286.5917   -18276.552    8.5633547   0.97305373 
    2300    241.47217   -216.04735    184355.63   -16977.975    1290.5703   -18268.545    9.1017759   0.97305373 
    2400    244.51131    -503.2782    184355.63   -16971.135    1306.8133   -18277.949    9.3827526   0.97305373 
    2500    237.81079   -515.05691    184355.63    -16979.26    1271.0017   -18250.262    9.6727249   0.97305373 
    2600    236.39326   -326.75395    184355.63   -16960.519    1263.4256   -18223.944    9.9450029   0.97305373 
    2700    237.46988   -327.81171    184355.63   -16976.633    1269.1797   -18245.813    10.210756   0.97305373 
    2800    241.45521   -419.39745    184355.63   -16929.495    1290.4797   -18219.975     10.24762   0.97305373 
    2900    247.52209   -430.03807    184355.63   -16924.516    1322.9047   -18247.421    10.654543   0.97305373 
    3000     242.0232   -347.90652    184355.63   -16928.076    1293.5153   -18221.592    10.800625   0.97305373 
    3100    235.96581   -316.58601    184355.63   -16901.222    1261.1411   -18162.363     10.97852   0.97305373 
    3200    241.69073   -515.63753    184355.63    -16951.04    1291.7384   -18242.778    11.441652   0.97305373 
    3300    235.54654   -374.16872    184355.63   -17000.765    1258.9002   -18259.665    11.810724   0.97305373 
    3400    232.41138   -396.63402    184355.63   -16957.039    1242.1441   -18199.183    12.324441   0.97305373 
    3500    244.10157    -401.5776    184355.63   -16946.966    1304.6234   -18251.589    12.778037   0.97305373 
    3600    243.42485   -387.64007    184355.63   -16960.259    1301.0066   -18261.266    13.131205   0.97305373 
    3700    237.84241   -386.30055    184355.63   -16961.883    1271.1708   -18233.053    13.386795   0.97305373 
    3800    243.46393    -427.1301    184355.63   -16938.389    1301.2154   -18239.604    13.743657   0.97305373 
    3900    237.13997    -246.4985    184355.63    -16941.34    1267.4165   -18208.756    14.260284   0.97305373 
    4000    234.77984   -283.57958    184355.63    -16975.55    1254.8025   -18230.353    14.589381   0.97305373 
    4100    242.24101   -401.93154    184355.63   -16973.451    1294.6795    -18268.13    14.801215   0.97305373 
    4200    238.67733   -197.82539    184355.63   -16941.299     1275.633   -18216.932    15.218703   0.97305373 
    4300    246.19698   -381.15137    184355.63    -16987.88    1315.8225   -18303.703     15.53407   0.97305373 
    4400    232.75013   -322.99181    184355.63    -16942.27    1243.9546   -18186.224     15.53047   0.97305373 
    4500    237.39498   -331.88346    184355.63   -16977.592    1268.7794   -18246.371    15.476562   0.97305373 
    4600    235.70233   -319.50276    184355.63   -17021.103    1259.7329   -18280.836    15.758423   0.97305373 
    4700    242.24515   -419.28512    184355.63   -16951.992    1294.7016   -18246.694    16.440395   0.97305373 
    4800    247.06394   -548.87578    184355.63     -16927.7    1320.4561   -18248.156    16.871285   0.97305373 
    4900    252.44061   -493.75344    184355.63   -16876.345    1349.1922   -18225.537    17.203363   0.97305373 
    5000    243.55286   -519.47614    184355.63   -16930.708    1301.6908   -18232.399    17.804787   0.97305373 
    5100    238.57203   -292.94535    184355.63   -16926.581    1275.0703   -18201.652    18.550063   0.97305373 
    5200    238.57295   -219.20896    184355.63    -16930.64    1275.0752   -18205.715    18.918397   0.97305373 
    5300    227.42309   -450.11486    184355.63   -16997.219    1215.4837   -18212.703    19.209111   0.97305373 
    5400    230.43062   -293.98072    184355.63   -16987.568    1231.5577   -18219.126    19.311656   0.97305373 
    5500    244.22626   -316.90199    184355.63   -16979.103    1305.2898   -18284.393    19.449688   0.97305373 
    5600     242.2096   -485.89408    184355.63   -17029.805    1294.5116   -18324.317     19.57948   0.97305373 
    5700    242.46322   -405.96392    184355.63   -16997.314    1295.8671   -18293.181    19.978452   0.97305373 
    5800    238.09138   -306.76652    184355.63   -16994.984    1272.5014   -18267.485    20.388276   0.97305373 
    5900    244.06419   -375.56796    184355.63   -17026.234    1304.4236   -18330.658    20.857277   0.97305373 
    6000    236.67941   -487.20561    184355.63   -17028.321     1264.955   -18293.276    20.907128   0.97305373 
    6100    237.10888   -583.19491    184355.63   -17039.601    1267.2503   -18306.851    20.666841   0.97305373 
    6200     239.2878   -608.35953    184355.63   -17043.818    1278.8958   -18322.714    20.974902   0.97305373 
    6300    246.18347   -319.80239    184355.63   -16998.136    1315.7503   -18313.886    21.580709   0.97305373 
    6400    244.16155   -525.59093    184355.63   -17023.405     1304.944   -18328.349    21.768563   0.97305373 
    6500    246.47695   -428.53591    184355.63   -17032.985    1317.3188   -18350.304    21.899688   0.97305373 
    6600    240.19635   -290.19052    184355.63   -17076.136    1283.7516   -18359.888    22.111888   0.97305373 
    6700     236.6477   -274.64885    184355.63   -17084.998    1264.7855   -18349.784    22.504118   0.97305373 
    6800    232.87905   -445.02159    184355.63   -17081.795    1244.6436   -18326.439    22.999835   0.97305373 
    6900    237.88025   -502.64482    184355.63   -17054.488     1271.373   -18325.861    23.092293   0.97305373 
    7000     232.8147   -233.57354    184355.63   -17048.668    1244.2997   -18292.968    23.291305   0.97305373 
    7100    238.37525   -303.74702    184355.63   -17058.223    1274.0185   -18332.242    23.773659   0.97305373 
    7200    230.97585   -424.13689    184355.63    -17097.49    1234.4718   -18331.962    24.372121   0.97305373 
    7300    233.18763   -231.30498    184355.63   -17126.485    1246.2929   -18372.778    24.747456   0.97305373 
    7400    241.87934   -397.42531    184355.63   -17087.022    1292.7465   -18379.769    25.149336   0.97305373 
    7500    235.08241   -439.22595    184355.63   -17087.395    1256.4197   -18343.815    25.612977   0.97305373 
    7600    237.01217   -274.66098    184355.63   -17063.389    1266.7335   -18330.122     25.72775   0.97305373 
    7700    238.92727   -318.37891    184355.63   -17037.786    1276.9689   -18314.755    26.332363   0.97305373 
    7800    235.83046   -484.95151    184355.63   -17062.309    1260.4177   -18322.727    26.717774   0.97305373 
    7900    236.62237   -338.49907    184355.63   -17068.029    1264.6501   -18332.679    27.129346   0.97305373 
    8000    242.62513   -202.05925    184355.63   -17021.425    1296.7324   -18318.158    27.229657   0.97305373 
    8100    243.34578   -448.59151    184355.63   -17007.567     1300.584   -18308.151    27.300462   0.97305373 
    8200    238.71433   -399.21432    184355.63   -17029.941    1275.8308   -18305.772    28.004448   0.97305373 
    8300     242.9601    -347.4855    184355.63   -16989.346    1298.5227   -18287.868    27.980574   0.97305373 
    8400    246.27503   -407.06357    184355.63   -16971.205    1316.2397   -18287.445    28.496939   0.97305373 
    8500    241.72735   -519.44439    184355.63   -17010.139    1291.9341   -18302.073    28.856447   0.97305373 
    8600    246.96784   -478.53564    184355.63   -17023.365    1319.9425   -18343.308    29.200653   0.97305373 
    8700    245.54856   -365.95642    184355.63   -17039.281     1312.357   -18351.638    29.596662   0.97305373 
    8800      240.563   -339.62415    184355.63   -17042.463    1285.7112   -18328.175    29.944134   0.97305373 
    8900    231.32373    -428.6105    184355.63    -17075.04     1236.331   -18311.371     30.31645   0.97305373 
    9000    239.58976   -283.76613    184355.63   -17043.817    1280.5096   -18324.326    30.605036   0.97305373 
    9100    240.13495   -168.18285    184355.63   -17047.775    1283.4234   -18331.198    30.951982   0.97305373 
    9200     238.7452   -468.74892    184355.63   -17013.577    1275.9958   -18289.573    31.102844   0.97305373 
    9300    242.53146   -308.31421    184355.63   -17050.629    1296.2318   -18346.861    31.417872   0.97305373 
    9400    244.59078   -337.72111    184355.63   -17069.331     1307.238   -18376.569    31.627517   0.97305373 
    9500    238.47124    -366.9548    184355.63   -17074.136    1274.5316   -18348.667    31.589265   0.97305373 
    9600    230.05106   -508.99134    184355.63   -17125.062    1229.5292   -18354.591    31.806296   0.97305373 
    9700     239.5345   -446.11942    184355.63   -17053.005    1280.2143   -18333.219    31.726125   0.97305373 
    9800    244.68084   -251.03582    184355.63   -16999.801    1307.7194   -18307.521    32.038389   0.97305373 
    9900    244.77538   -472.73447    184355.63   -17009.439    1308.2246   -18317.663    32.163474   0.97305373 
   10000    234.47455   -411.37983    184355.63     -17016.1    1253.1709   -18269.271    32.553155   0.97305373 
Loop time of 6.11579 on 128 procs for 10000 steps with 8098 atoms

Performance: 706.368 ns/day, 0.034 hours/ns, 1635.111 timesteps/s
96.4% CPU use with 128 MPI tasks x no OpenMP threads

MPI task timing breakdown:
Section |  min time  |  avg time  |  max time  |%varavg| %total
---------------------------------------------------------------
Pair    | 0.00068903 | 1.7186     | 4.717      | 118.2 | 28.10
Neigh   | 0.0028214  | 0.1239     | 0.2949     |  27.5 |  2.03
Comm    | 0.16666    | 1.6351     | 3.9098     |  84.3 | 26.74
Output  | 0.14019    | 0.14032    | 0.14111    |   0.0 |  2.29
Modify  | 0.13252    | 2.4225     | 5.7328     | 130.2 | 39.61
Other   |            | 0.07532    |            |       |  1.23

Nlocal:        63.2656 ave         134 max           0 min
Histogram: 33 6 8 17 0 0 8 26 23 7
Nghost:        592.805 ave         848 max         389 min
Histogram: 21 8 23 12 11 8 11 12 10 12
Neighs:         0.00000 ave           0 max           0 min
Histogram: 128 0 0 0 0 0 0 0 0 0
FullNghs:      6507.41 ave       15325 max           0 min
Histogram: 43 21 0 0 0 0 12 23 23 6

Total # of neighbors = 832948
Ave neighs/atom = 102.85848
Neighbor list builds = 570
Dangerous builds = 0
write_data 	    ${DIR}/data.${NAME}_eq
write_data 	    run_1/data.${NAME}_eq
write_data 	    run_1/data.ibeam_cooling_1_eq
System init for write_data ...

undump              1
unfix               4



################################################
#######         Run Simulation         #########
################################################

reset_timestep      0
timestep	    10.0
log                 ${DIR}/log.run_${NAME}
log                 run_1/log.run_${NAME}
log                 run_1/log.run_ibeam_cooling_1
