
### Dimensions ###
variable Z_G equal 10.062000000000001
variable Z_W equal 23.803019087

variable	XDIM string 78.752
variable 	YDIM string 80.86108639999017


### IMPORT ATOMS ###
read_data ../Box_Setup/data.Ibeam_240K
  orthogonal box = (0 0 0) to (78.752 80.8611 33.9443)
  5 by 8 by 3 MPI processor grid
  reading atoms ...
  9422 atoms
  reading velocities ...
  9422 velocities
group water type 2
2126 atoms in group water
group graphite type 1
7296 atoms in group graphite


# Define potential
#
pair_style          sw
pair_coeff * * MLC_e.sw C mW

# Add velocity/set timestep
#

fix		1 graphite setforce 0.0 0.0 0.0
velocity 	graphite set 0.0 0.0 0.0
velocity            water create ${START_TEMP} ${SEED} rot yes dist gaussian
velocity            water create 235 ${SEED} rot yes dist gaussian
velocity            water create 235 14144 rot yes dist gaussian
timestep            5.0

# Define output
#
compute 1 water msd
compute 2 water temp


thermo	            100
thermo_style custom step c_2 press vol etotal ke pe c_1[4] density

# Neighbor lists
#
neigh_modify        delay 0 every 1 check yes


# Set fixes
#
fix                 2 water momentum 10 linear 1 1 1 rescale
fix                 3 all nve
fix                 4 water temp/csvr ${START_TEMP} ${START_TEMP} 500.0 928347
fix                 4 water temp/csvr 235 ${START_TEMP} 500.0 928347
fix                 4 water temp/csvr 235 235 500.0 928347

# Run 0.05 ns equilibration
#
dump                1 all custom 100 ${DIR}/eq.${NAME}.dump id type x y z vx vy vz
dump                1 all custom 100 run_12/eq.${NAME}.dump id type x y z vx vy vz
dump                1 all custom 100 run_12/eq.ibeam_cooling_12.dump id type x y z vx vy vz
run                 10000
Neighbor list info ...
  update every 1 steps, delay 0 steps, check yes
  max neighbors/atom: 2000, page size: 100000
  master list distance cutoff = 6.67472
  ghost atom cutoff = 6.67472
  binsize = 3.33736, bins = 24 25 11
  1 neighbor lists, perpetual/occasional/extra = 1 0 0
  (1) pair sw, perpetual
      attributes: full, newton on
      pair build: full/bin/atomonly
      stencil: full/bin/3d
      bin: standard
Per MPI rank memory allocation (min/avg/max) = 3.374 | 4.228 | 4.744 Mbytes
Step c_2 Press Volume TotEng KinEng PotEng c_1[4] Density 
       0          235   -349.74665    216156.16   -20108.674     1488.542   -21597.216            0   0.96737059 
     100    237.62423   -335.77552    216156.16   -20127.801    1505.1644   -21632.966   0.91999511   0.96737059 
     200    237.16034   -416.81776    216156.16   -20176.818    1502.2261   -21679.044    1.3937744   0.96737059 
     300    233.54944   -432.77878    216156.16   -20182.269    1479.3539   -21661.623    1.7476932   0.96737059 
     400    231.76847   -496.47764    216156.16   -20195.782    1468.0728   -21663.855    2.1406018   0.96737059 
     500    234.29274   -291.41666    216156.16   -20175.987    1484.0621   -21660.049     2.585006   0.96737059 
     600    239.80852   -335.10529    216156.16   -20131.799    1519.0003   -21650.799    2.8205096   0.96737059 
     700    235.68217   -458.09105    216156.16   -20147.327     1492.863    -21640.19    3.2752029   0.96737059 
     800    238.28814   -466.08289    216156.16   -20137.504    1509.3698   -21646.874    3.5203767   0.96737059 
     900     235.3119   -298.86509    216156.16   -20156.914    1490.5177   -21647.432    3.6186599   0.96737059 
    1000    235.26955   -460.13288    216156.16   -20205.093    1490.2494   -21695.342    3.8855685   0.96737059 
    1100    234.43472   -454.17213    216156.16   -20184.584    1484.9614   -21669.546    4.2510507   0.96737059 
    1200     228.8721   -400.20916    216156.16   -20180.209    1449.7265   -21629.935    4.6613806   0.96737059 
    1300    236.62656    -406.1561    216156.16   -20126.535     1498.845    -21625.38    4.8491832   0.96737059 
    1400    231.36198   -424.73706    216156.16   -20153.667     1465.498   -21619.165    5.1886995   0.96737059 
    1500    231.11574   -356.08399    216156.16   -20189.682    1463.9383    -21653.62    5.6772552   0.96737059 
    1600     234.8186   -447.85243    216156.16   -20175.387     1487.393    -21662.78    6.0659259   0.96737059 
    1700    234.72238     -342.007    216156.16   -20176.506    1486.7835    -21663.29    6.4367429   0.96737059 
    1800    231.90845   -427.72513    216156.16   -20142.642    1468.9595   -21611.602    6.8965645   0.96737059 
    1900     234.7736   -341.91527    216156.16   -20099.239     1487.108   -21586.347    7.3699074   0.96737059 
    2000    245.79136   -287.04497    216156.16   -20078.505    1556.8969   -21635.402    7.6938117   0.96737059 
    2100    235.22147   -434.95193    216156.16   -20159.918    1489.9448   -21649.863    8.1157815   0.96737059 
    2200    235.70041   -253.19514    216156.16   -20126.481    1492.9786   -21619.459    8.4179511   0.96737059 
    2300    232.59653   -473.96886    216156.16   -20112.404    1473.3179   -21585.722    8.6912276   0.96737059 
    2400    236.94629   -265.94849    216156.16   -20128.681    1500.8702   -21629.551    9.2154327   0.96737059 
    2500    240.79783   -275.49075    216156.16   -20149.331    1525.2668   -21674.597    9.4639301   0.96737059 
    2600    231.87527   -330.54829    216156.16   -20166.149    1468.7493   -21634.898    9.7112966   0.96737059 
    2700    239.53272   -372.23702    216156.16   -20137.613    1517.2533   -21654.866    10.193454   0.96737059 
    2800    238.89578    -307.4998    216156.16   -20089.985    1513.2187   -21603.204    10.564036   0.96737059 
    2900    241.73433   -322.84115    216156.16   -20102.178    1531.1988   -21633.377    10.868375   0.96737059 
    3000    241.53862   -382.04911    216156.16   -20091.592    1529.9591   -21621.551    11.353631   0.96737059 
    3100    234.65882   -176.34696    216156.16   -20091.781    1486.3809   -21578.162    11.565216   0.96737059 
    3200    231.36253   -263.34519    216156.16   -20158.739    1465.5015   -21624.241    11.910846   0.96737059 
    3300    231.04017   -375.77084    216156.16   -20235.758    1463.4596   -21699.218    12.212785   0.96737059 
    3400    240.78028    -317.7657    216156.16   -20185.317    1525.1556   -21710.473    12.758761   0.96737059 
    3500    236.63979   -310.19215    216156.16   -20191.737    1498.9288   -21690.666    13.090828   0.96737059 
    3600    233.60399   -462.14593    216156.16   -20200.284    1479.6994   -21679.984    13.399493   0.96737059 
    3700    235.39634   -327.79362    216156.16   -20174.889    1491.0525   -21665.942    13.830516   0.96737059 
    3800    237.60695   -156.97096    216156.16   -20175.346     1505.055   -21680.401    14.304798   0.96737059 
    3900    236.01417    -462.0795    216156.16    -20193.58     1494.966   -21688.546    14.852439   0.96737059 
    4000    236.88211   -395.97451    216156.16   -20223.518    1500.4637   -21723.982    15.232012   0.96737059 
    4100    238.76179   -302.26318    216156.16   -20206.424      1512.37   -21718.794      15.4221   0.96737059 
    4200    236.54376    -279.0066    216156.16   -20205.677    1498.3205   -21703.997    15.564449   0.96737059 
    4300    228.56856   -379.09252    216156.16   -20257.127    1447.8039   -21704.931    15.851974   0.96737059 
    4400    232.45627   -327.36983    216156.16   -20203.976    1472.4295   -21676.405    16.237406   0.96737059 
    4500    236.52914   -304.64991    216156.16   -20218.878    1498.2279   -21717.106     16.62347   0.96737059 
    4600    227.26044   -397.46776    216156.16   -20238.483    1439.5179   -21678.001    16.895849   0.96737059 
    4700    240.62202   -293.11338    216156.16   -20169.165    1524.1531   -21693.318     17.22225   0.96737059 
    4800    235.83498   -382.77333    216156.16   -20127.278     1493.831   -21621.109     17.34942   0.96737059 
    4900    241.94233   -372.72822    216156.16   -20097.873    1532.5163    -21630.39    17.787953   0.96737059 
    5000    231.28403    -530.3484    216156.16   -20151.546    1465.0042   -21616.551     18.12519   0.96737059 
    5100    235.92045   -329.88109    216156.16   -20124.275    1494.3724   -21618.647    18.420904   0.96737059 
    5200    234.48193    -527.9488    216156.16    -20157.26    1485.2605   -21642.521    18.605343   0.96737059 
    5300    238.69466   -371.79067    216156.16   -20234.913    1511.9448   -21746.858    19.113015   0.96737059 
    5400      236.879   -389.78323    216156.16   -20224.505     1500.444   -21724.949    19.627055   0.96737059 
    5500    239.80472   -312.15999    216156.16    -20241.15    1518.9762   -21760.126    19.820703   0.96737059 
    5600    232.71746   -502.90135    216156.16   -20263.297    1474.0839   -21737.381    20.317037   0.96737059 
    5700    233.45633   -414.36558    216156.16   -20246.016     1478.764    -21724.78    20.404187   0.96737059 
    5800    238.08799   -288.23703    216156.16   -20221.928     1508.102    -21730.03    20.900663   0.96737059 
    5900    228.60067   -340.88838    216156.16   -20252.377    1448.0073   -21700.384    21.206724   0.96737059 
    6000    229.62122   -224.57986    216156.16    -20257.04    1454.4717   -21711.511    21.513772   0.96737059 
    6100    236.85919   -257.48261    216156.16   -20286.622    1500.3185    -21786.94    21.592082   0.96737059 
    6200    233.13997   -253.86977    216156.16   -20287.268    1476.7602   -21764.029    21.743111   0.96737059 
    6300    240.60785   -303.91267    216156.16   -20217.329    1524.0634   -21741.393    22.001971   0.96737059 
    6400    231.90916   -262.71663    216156.16   -20249.834    1468.9639   -21718.798    22.033038   0.96737059 
    6500    232.60619   -399.02917    216156.16   -20255.494    1473.3791   -21728.873    22.294447   0.96737059 
    6600    232.71722   -562.56954    216156.16    -20260.12    1474.0824   -21734.203    22.417894   0.96737059 
    6700    239.15659   -266.28755    216156.16   -20276.525    1514.8708   -21791.396    22.637841   0.96737059 
    6800    228.38916    -449.7586    216156.16   -20258.502    1446.6675    -21705.17    22.920398   0.96737059 
    6900    234.67256   -456.02411    216156.16   -20227.626     1486.468   -21714.094    22.950848   0.96737059 
    7000     232.5415   -204.85042    216156.16   -20230.687    1472.9694   -21703.656    23.071971   0.96737059 
    7100    237.43741   -252.30001    216156.16   -20243.092    1503.9811   -21747.073    23.510091   0.96737059 
    7200    239.89678   -298.06702    216156.16   -20321.892    1519.5593   -21841.451    23.576537   0.96737059 
    7300    226.76089   -380.50201    216156.16   -20355.954    1436.3536   -21792.308    23.925954   0.96737059 
    7400    233.91444   -346.47585    216156.16   -20322.201    1481.6658   -21803.867    23.808307   0.96737059 
    7500    228.38385   -288.68344    216156.16    -20292.05    1446.6339   -21738.684    23.761818   0.96737059 
    7600    239.15557   -224.01025    216156.16    -20246.42    1514.8643   -21761.284    24.032479   0.96737059 
    7700    238.40117   -362.11387    216156.16    -20274.86    1510.0858   -21784.945    24.176678   0.96737059 
    7800    230.06842   -432.58965    216156.16   -20333.914    1457.3043   -21791.218    24.439062   0.96737059 
    7900    238.75906   -292.10193    216156.16   -20293.016    1512.3527   -21805.369    24.763727   0.96737059 
    8000    235.24495   -266.97933    216156.16   -20241.008    1490.0936   -21731.102    25.160175   0.96737059 
    8100    240.33841   -346.80717    216156.16   -20220.564    1522.3567   -21742.921    25.461786   0.96737059 
    8200    239.39829   -303.52034    216156.16   -20227.312    1516.4017   -21743.714    26.132941   0.96737059 
    8300    238.12475   -300.99145    216156.16   -20198.611    1508.3349   -21706.946    26.826105   0.96737059 
    8400    235.63383   -482.62323    216156.16   -20164.935    1492.5568   -21657.492    27.446861   0.96737059 
    8500    239.57257    -323.4629    216156.16   -20199.441    1517.5057   -21716.946    28.037221   0.96737059 
    8600    233.15774   -245.26102    216156.16   -20187.626    1476.8727   -21664.499    28.549854   0.96737059 
    8700    235.53006   -371.38996    216156.16   -20213.099    1491.8995   -21704.999    29.057717   0.96737059 
    8800    234.67516   -491.04433    216156.16   -20224.661    1486.4844   -21711.145    29.677707   0.96737059 
    8900    233.24624   -335.85829    216156.16   -20243.529    1477.4333   -21720.962    29.915173   0.96737059 
    9000     235.0734   -222.79044    216156.16   -20225.823     1489.007    -21714.83    29.919072   0.96737059 
    9100    233.86833   -499.10494    216156.16   -20245.052    1481.3738   -21726.425    29.854033   0.96737059 
    9200    239.32843   -400.09104    216156.16   -20204.164    1515.9592   -21720.123    29.892348   0.96737059 
    9300    233.19961   -318.95289    216156.16   -20259.579    1477.1379   -21736.717    29.978019   0.96737059 
    9400    232.02813   -445.94654    216156.16   -20261.025    1469.7175   -21730.743    30.123311   0.96737059 
    9500    236.31322   -454.43174    216156.16   -20292.544    1496.8602   -21789.405    30.074646   0.96737059 
    9600     232.3061   -307.25187    216156.16   -20315.141    1471.4782   -21786.619    30.222821   0.96737059 
    9700    236.49762   -361.74888    216156.16   -20278.112    1498.0283    -21776.14     30.44149   0.96737059 
    9800    242.49579   -296.61926    216156.16   -20253.119     1536.022   -21789.141    30.441238   0.96737059 
    9900    233.09665   -281.41747    216156.16     -20270.3    1476.4858   -21746.786    30.631241   0.96737059 
   10000    233.23673   -354.37632    216156.16   -20265.533    1477.3731   -21742.906     30.66137   0.96737059 
Loop time of 16.0482 on 120 procs for 10000 steps with 9422 atoms

Performance: 269.189 ns/day, 0.089 hours/ns, 623.123 timesteps/s
98.0% CPU use with 120 MPI tasks x no OpenMP threads

MPI task timing breakdown:
Section |  min time  |  avg time  |  max time  |%varavg| %total
---------------------------------------------------------------
Pair    | 0.00085473 | 4.2395     | 13.025     | 202.1 | 26.42
Neigh   | 0.0037277  | 0.13168    | 0.41563    |  37.7 |  0.82
Comm    | 0.31694    | 6.0288     | 12.716     | 163.9 | 37.57
Output  | 0.16459    | 0.16473    | 0.17148    |   0.2 |  1.03
Modify  | 0.7086     | 5.3214     | 15.435     | 254.3 | 33.16
Other   |            | 0.162      |            |       |  1.01

Nlocal:    78.5167 ave 207 max 0 min
Histogram: 36 25 15 4 0 0 0 2 16 22
Nghost:    694.492 ave 926 max 528 min
Histogram: 32 3 13 5 20 10 9 7 13 8
Neighs:    0 ave 0 max 0 min
Histogram: 120 0 0 0 0 0 0 0 0 0
FullNghs:  7992 ave 25203 max 0 min
Histogram: 67 13 0 0 0 0 0 10 17 13

Total # of neighbors = 959040
Ave neighs/atom = 101.787
Neighbor list builds = 567
Dangerous builds = 0
write_data 	    ${DIR}/data.${NAME}_eq
write_data 	    run_12/data.${NAME}_eq
write_data 	    run_12/data.ibeam_cooling_12_eq

undump              1
unfix               4



################################################
#######         Run Simulation         #########
################################################

reset_timestep      0
timestep	    10.0
log                 ${DIR}/log.run_${NAME}
log                 run_12/log.run_${NAME}
log                 run_12/log.run_ibeam_cooling_12
