
# Set production fixes - Nose/Hoover
#
fix                 4 water temp/csvr ${START_TEMP} ${END_TEMP} 500.0 928347
fix                 4 water temp/csvr 235 ${END_TEMP} 500.0 928347
fix                 4 water temp/csvr 235 225 500.0 928347


## divide "droplet" into core and surface
#region		core_reg cylinder z 135 135 44.6 20 INF units box
#region		surface_reg cylinder z 135 135 44.6 20 INF units box side out
#group		core dynamic all region core_reg
#group		surface dynamic all region surface_reg

## compute pressure core
#compute        peratom_core core stress/atom NULL
#compute        p_core core reduce sum c_peratom_core[1] c_peratom_core[2] c_peratom_core[3]
#variable       press_core equal -(c_p_core[1]+c_p_core[2]+c_p_core[3])/(3*1249982.5)


## compute pressure surface
#compute        peratom_surf surface stress/atom NULL
#compute        p_surf surface reduce sum c_peratom_surf[1] c_peratom_surf[2] #c_peratom_surf[3]
#variable       press_surf equal -(c_p_surf[1]+c_p_surf[2]+c_p_surf[3])/(3*42395)

## compute total pressure of drop
compute        peratom water stress/atom NULL
compute        p water reduce sum c_peratom[1] c_peratom[2] c_peratom[3]
variable       press equal -(c_p[1]+c_p[2]+c_p[3])/(3*50402)


# compute order parameter
compute        3 all orientorder/atom nnn NULL cutoff 3.5

# compute center of mass of bridge
compute 	4 water com

# Run simulation
thermo_style        custom step c_2 press vol etotal ke pe v_press c_1[4] c_4[*]
thermo              200
dump		     1 water custom 400 ${DIR}/prod.${NAME}.dump id type x y z vx vy vz c_3[*] c_peratom[*]
dump		     1 water custom 400 run_12/prod.${NAME}.dump id type x y z vx vy vz c_3[*] c_peratom[*]
dump		     1 water custom 400 run_12/prod.ibeam_cooling_12.dump id type x y z vx vy vz c_3[*] c_peratom[*]
run                 ${STEPS}
run                 4000000
Neighbor list info ...
  update every 1 steps, delay 0 steps, check yes
  max neighbors/atom: 2000, page size: 100000
  master list distance cutoff = 6.67472
  ghost atom cutoff = 6.67472
  binsize = 3.33736, bins = 24 25 11
  2 neighbor lists, perpetual/occasional/extra = 1 1 0
  (1) pair sw, perpetual
      attributes: full, newton on
      pair build: full/bin/atomonly
      stencil: full/bin/3d
      bin: standard
  (2) compute orientorder/atom, occasional, copy from (1)
      attributes: full, newton on
      pair build: copy
      stencil: none
      bin: none
Per MPI rank memory allocation (min/avg/max) = 6.149 | 6.79 | 7.275 Mbytes
Step c_2 Press Volume TotEng KinEng PotEng v_press c_1[4] c_4[1] c_4[2] c_4[3] 
       0    233.23673   -354.37632    216156.16   -20265.533    1477.3731   -21742.906   -858.95594     30.66137    39.419172    39.237799    23.668503 
     200    235.84947    -169.7455    216156.16   -20272.721    1493.9228   -21766.644   -88.766345     32.06276    39.418764    39.236086     23.66772 
     400    237.55822   -477.24957    216156.16   -20240.091    1504.7464   -21744.838   -1410.6457    32.745956    39.415641    39.234135     23.65478 
     600     233.7624   -455.05404    216156.16   -20139.751    1480.7028   -21620.454   -1299.6966    33.560869    39.418479    39.233928    23.653179 
     800    236.85563   -277.85187    216156.16    -20128.31     1500.296   -21628.606   -557.73517    34.720492    39.417001     39.23284     23.65356 
    1000    231.70758   -433.40912    216156.16    -20197.07    1467.6871   -21664.757   -1188.6916    34.675397    39.415235    39.232411    23.651218 
    1200    232.87538   -428.31862    216156.16   -20128.238    1475.0842   -21603.322    -1198.155    35.809116    39.416261    39.233775    23.664158 
    1400    232.80473   -365.89833    216156.16   -20114.225    1474.6367   -21588.862   -912.00013    37.754839    39.416697    39.234491    23.664332 
    1600    240.53309   -294.98465    216156.16   -20133.039    1523.5898   -21656.629   -637.81919    40.168818    39.416593    39.233385    23.678341 
    1800    238.50244   -386.64126    216156.16   -20146.862    1510.7272   -21657.589   -1015.8644    41.391418    39.414269    39.236541    23.685615 
    2000     246.5674   -396.95949    216156.16   -20076.234    1561.8125   -21638.047   -1039.0664    42.057141    39.413365    39.239191    23.692569 
    2200    233.05742   -339.66687    216156.16   -20138.432    1476.2373   -21614.669   -784.43613    43.207992    39.412167    39.240784    23.665943 
    2400    233.64305   -389.80814    216156.16   -20136.426    1479.9468   -21616.373   -973.62266    44.075718    39.411385    39.242424    23.676439 
    2600    227.69375   -467.01802    216156.16   -20186.105    1442.2626   -21628.368   -1290.1356    44.890834    39.412996    39.243976    23.665018 
    2800    240.63732   -410.73408    216156.16   -20104.436      1524.25   -21628.686   -1068.9005    45.928114    39.412216    39.242782      23.6679 
    3000    239.04994   -496.41514    216156.16   -20111.416    1514.1952   -21625.611    -1470.705    47.132888    39.410628    39.241973    23.667314 
    3200    231.16644   -314.43043    216156.16   -20184.186    1464.2594   -21648.446   -698.52718     48.75883    39.410559    39.240127    23.673359 
    3400    238.78744   -291.92348    216156.16   -20193.995    1512.5325   -21706.527   -619.09879    49.080565    39.409865    39.239027    23.657135 
    3600     231.3624   -402.98026    216156.16   -20193.542    1465.5007   -21659.043   -1077.3824     51.79277    39.409942    39.238751    23.672631 
    3800     232.8138   -442.60283    216156.16   -20144.267    1474.6941   -21618.961   -1244.5446    54.051431    39.410492    39.237658    23.667647 
    4000    237.28827     -468.663    216156.16   -20170.028    1503.0364   -21673.065   -1337.6678    54.414805    39.410585     39.23988    23.668301 
    4200    240.60946   -409.46208    216156.16   -20164.998    1524.0735   -21689.072   -1088.7176    55.752927    39.406799    39.241841     23.65814 
    4400    232.58159   -479.05604    216156.16   -20214.477    1473.2233   -21687.701   -1361.0801     56.20348    39.406073    39.240431    23.638504 
    4600    229.95127   -413.57732    216156.16   -20286.806    1456.5622   -21743.368   -1122.4004    57.172433    39.407551    39.238876    23.627522 
    4800    237.55753   -209.51246    216156.16   -20192.092     1504.742   -21696.834   -250.39855    58.724581    39.407714    39.240297    23.639571 
    5000    233.20806   -352.76816    216156.16    -20251.17    1477.1915   -21728.361   -883.85691    59.268131    39.407727    39.240976    23.648781 
    5200    232.35325   -264.30059    216156.16   -20231.551    1471.7769   -21703.328   -513.92307    60.297363     39.40784    39.242168    23.653436 
    5400    238.83581   -318.59127    216156.16   -20269.352    1512.8389   -21782.191   -658.99914     60.79199    39.405321    39.240571    23.662364 
    5600    233.05872    -181.7948    216156.16    -20295.33    1476.2455   -21771.575   -152.66815    61.880572    39.405479    39.237032    23.672581 
    5800    235.94169   -324.65695    216156.16   -20237.807    1494.5069   -21732.314    -745.3826    63.441376    39.407583    39.237799    23.691997 
    6000    239.53452   -395.92364    216156.16   -20256.455    1517.2647   -21773.719    -1051.554    64.701879     39.40877    39.238269    23.693562 
    6200    231.15778   -639.33997    216156.16   -20223.101    1464.2045   -21687.306   -2113.2203    66.141485    39.409674     39.23943    23.691548 
    6400    233.16046   -433.17215    216156.16   -20195.725      1476.89   -21672.615   -1212.4725    67.092991    39.409703     39.23612    23.682829 
    6600    228.41575   -291.10377    216156.16   -20204.495     1446.836   -21651.331   -561.90596    67.656268     39.40961    39.233912    23.681852 
    6800    242.41118   -360.56854    216156.16   -20228.915    1535.4861   -21764.401   -910.63973    68.469515    39.409498    39.234851    23.688924 
    7000    234.36225   -596.29853    216156.16   -20219.952    1484.5024   -21704.454   -1900.2823    70.082983    39.406819    39.236239    23.664289 
    7200    214.91432   -384.92227    216156.16   -20329.804    1361.3149   -21691.119    -1024.622    70.992049    39.408082    39.237394    23.669633 
    7400    233.09976   -358.67037    216156.16   -20267.485    1476.5055   -21743.991   -888.34238    71.920029    39.407548    39.238407    23.670915 
    7600    239.48837   -248.10388    216156.16   -20171.351    1516.9724   -21688.323   -432.52135    73.264057    39.407738    39.237837    23.662013 
    7800    225.59094   -347.63599    216156.16     -20270.1    1428.9429   -21699.043   -859.72905    74.549834    39.407557    39.241141     23.67021 
    8000    237.36449   -363.21734    216156.16   -20135.623    1503.5192   -21639.143    -893.7532    75.764429    39.406459     39.24259    23.685033 
    8200    238.24252   -440.22537    216156.16   -20115.937    1509.0809   -21625.018   -1204.2318    77.948722    39.406517    39.244253    23.681182 
    8400    234.61919   -411.62491    216156.16   -20064.493    1486.1299   -21550.623   -1103.3863     79.47397     39.40687    39.244997    23.680933 
    8600     237.1422   -430.25294    216156.16   -20119.582    1502.1112   -21621.693   -1232.0567    82.431894    39.408188    39.245991    23.681617 
    8800    230.16168   -384.50038    216156.16   -20137.413     1457.895   -21595.308   -969.35671    83.115064    39.412391     39.24685    23.676858 
    9000     238.9132   -366.70674    216156.16    -20111.91    1513.3291   -21625.239   -909.75625    83.682553    39.411989    39.246935    23.679538 
    9200    238.13493   -369.64235    216156.16    -20067.91    1508.3994   -21576.309   -867.12095    84.831319    39.411335    39.246496    23.677038 
    9400    234.48268   -372.31556    216156.16   -20138.696    1485.2652   -21623.961   -901.47952    85.919533     39.41074    39.246788    23.669301 
    9600    237.18873   -320.72818    216156.16   -20160.887    1502.4059   -21663.293   -692.91821    87.592867    39.411545    39.246771    23.664454 
    9800    234.54876   -362.48511    216156.16   -20128.343    1485.6838   -21614.027   -870.91628     88.96725    39.412392    39.247523    23.674361 
   10000     230.9482   -492.54974    216156.16   -20154.842     1462.877   -21617.719   -1390.1633    90.674913    39.412051    39.246981    23.706039 
   10200    238.24822    -209.4475    216156.16   -20046.054     1509.117   -21555.171   -225.17745     93.24989    39.414274    39.247544     23.66436 
   10400    232.02806    -504.5763    216156.16   -20083.892    1469.7171   -21553.609   -1510.0492    95.681187    39.414595    39.248241    23.674328 
   10600    238.87003   -386.83385    216156.16   -20182.061    1513.0557   -21695.117   -1008.7424    95.921837    39.416744     39.24618    23.666022 
   10800    225.72796   -382.58924    216156.16   -20231.685    1429.8108   -21661.496   -976.60636    97.013411    39.419022    39.246468    23.681491 
   11000    235.68647   -185.28865    216156.16   -20203.693    1492.8903   -21696.583   -97.330305    98.753789    39.418867    39.244697    23.662398 
   11200    233.29384   -172.07186    216156.16    -20199.31    1477.7348   -21677.045   -134.95975    99.826714    39.418576    39.244544    23.686269 
   11400    231.58905   -324.39109    216156.16   -20166.808    1466.9363   -21633.744   -712.84751     100.0046    39.418791    39.245295    23.694015 
   11600    237.57991   -532.59776    216156.16   -20098.953    1504.8837   -21603.837   -1564.9109    101.41787    39.416445    39.244704    23.698107 
   11800    234.88933   -455.56603    216156.16   -20138.942     1487.841   -21626.783   -1287.8199    102.14683    39.415697    39.242425    23.724506 
   12000    229.54307   -281.89454    216156.16   -20105.294    1453.9766    -21559.27   -551.80844      103.516    39.412209    39.241057    23.745267 
   12200    235.11255   -249.63282    216156.16   -20086.608     1489.255   -21575.863   -398.64292    106.30479    39.412886     39.24258    23.752696 
   12400    238.01503   -485.40302    216156.16   -20128.606    1507.6399   -21636.246   -1404.4246    106.13555    39.415989    39.244384    23.763409 
   12600    241.36598   -378.22686    216156.16   -20075.822    1528.8655   -21604.688   -934.96906    105.81097    39.415076    39.243344    23.751483 
   12800    238.05038   -329.02963    216156.16   -20158.459    1507.8638   -21666.323   -726.45764     106.7481    39.413793    39.243202    23.741386 
   13000    230.54775   -418.31656    216156.16   -20222.787    1460.3405   -21683.128   -1079.6096    107.53188    39.413606    39.242087    23.743151 
   13200    234.73368   -412.32167    216156.16   -20234.054    1486.8551   -21720.909    -1090.531    107.53491     39.41401    39.240365    23.778212 
   13400    228.61075   -358.02532    216156.16   -20312.963    1448.0711   -21761.034   -817.30057      108.606    39.412026    39.240533    23.800553 
   13600    238.68002   -425.28977    216156.16   -20254.822    1511.8521   -21766.674   -1167.0896     110.0697    39.410156    39.239325    23.786656 
   13800    233.69206   -203.84569    216156.16   -20169.134    1480.2572   -21649.391   -222.54155    109.19987    39.409246    39.238055    23.780483 
   14000    243.28962   -388.64346    216156.16   -20128.678    1541.0503   -21669.729   -1020.8433    110.43834    39.407796    39.237727    23.768346 
   14200    237.64537   -405.10931    216156.16   -20200.339    1505.2984   -21705.637   -1023.6137    110.99832    39.408107     39.23747    23.783773 
   14400    231.66129   -291.40549    216156.16   -20270.997    1467.3939   -21738.391   -581.57188    112.33148    39.407783    39.233418    23.776908 
   14600    226.46942   -367.91735    216156.16   -20243.929    1434.5074   -21678.437   -902.85545    114.34357    39.408274     39.23062    23.775269 
   14800    246.72685   -295.42636    216156.16   -20212.791    1562.8225   -21775.614   -590.78785    114.93926    39.413125    39.228688    23.762686 
   15000    233.58491   -411.93307    216156.16    -20253.25    1479.5785   -21732.829   -1119.8542    115.30182    39.413712    39.231136    23.740778 
   15200     236.7429   -257.58068    216156.16   -20196.475     1499.582   -21696.057    -445.8359    117.61347     39.41431    39.233144    23.749336 
   15400     235.4921   -396.36745    216156.16   -20272.985    1491.6591   -21764.645   -1034.0931    117.85217    39.414693     39.23627    23.766295 
   15600     239.8987   -246.19616    216156.16   -20148.518    1519.5714   -21668.089   -421.79565    118.76409    39.415838    39.237758    23.770285 
   15800    235.90645    -372.9075    216156.16   -20166.814    1494.2837   -21661.098   -930.28718     118.2677    39.417297    39.236144    23.769595 
   16000     232.4332   -320.26011    216156.16   -20182.426    1472.2833    -21654.71   -727.73639    120.09433    39.417737    39.235311    23.779946 
   16200    238.56453   -434.61664    216156.16   -20157.298    1511.1206   -21668.418   -1183.1621    120.52297    39.418478    39.233243    23.766787 
   16400    237.73201   -263.10448    216156.16   -20174.876    1505.8472   -21680.723   -465.45313    120.71475    39.417606    39.232985    23.759161 
   16600    243.17546    -368.5036    216156.16   -20112.407    1540.3272   -21652.734   -920.73855    121.82724    39.419802    39.236059    23.748054 
   16800    233.69303   -350.92877    216156.16   -20153.222    1480.2634   -21633.486   -869.79758     121.7638    39.419933    39.236936    23.728681 
   17000    231.17909   -484.62407    216156.16   -20213.756    1464.3395   -21678.096   -1414.7413    122.46266    39.416744    39.238044    23.736186 
   17200    237.57833   -457.89627    216156.16   -20216.465    1504.8737   -21721.339   -1296.9813    123.26688    39.416618    39.240246    23.758534 
   17400    228.79571   -452.50707    216156.16   -20310.817    1449.2427    -21760.06   -1263.1685    124.40879    39.415135    39.238043    23.760095 
   17600    230.60294   -393.97983    216156.16   -20245.978    1460.6901   -21706.668   -993.11513    125.65579    39.414624    39.238876    23.751231 
   17800    228.88442   -449.50509    216156.16   -20255.077    1449.8046   -21704.881   -1230.0165    125.64392    39.414974    39.241492    23.757258 
   18000    234.58048   -456.64024    216156.16   -20215.454    1485.8847   -21701.338   -1296.0328    125.96704    39.416592     39.24173    23.766471 
   18200    234.47962     -341.728    216156.16   -20209.968    1485.2458   -21695.214   -770.10897    127.33438    39.419535    39.243844    23.760199 
   18400    236.77272   -387.09537    216156.16   -20167.676    1499.7708   -21667.447   -997.63215    128.92646    39.420784    39.244811    23.747241 
   18600    235.12738   -509.85471    216156.16   -20124.538    1489.3489   -21613.886   -1502.1975    130.49897    39.420738    39.246704    23.757662 
   18800    232.69908   -453.62572    216156.16   -20197.594    1473.9675   -21671.561   -1285.6391     130.8379    39.422958    39.246512    23.745762 
   19000    235.10686     -402.622    216156.16   -20153.281    1489.2189     -21642.5   -1039.5179      130.911    39.424563    39.248486    23.764695 
   19200    234.89062   -443.02731    216156.16   -20191.245    1487.8492   -21679.094   -1219.3827    132.65409    39.424737    39.248097    23.752571 
   19400     238.5655   -463.32666    216156.16   -20119.521    1511.1267   -21630.647   -1315.6847    133.86528    39.422791    39.248864    23.723694 
   19600    240.99265   -525.16547    216156.16   -20125.194    1526.5008   -21651.694   -1567.6331    136.55225    39.422976    39.249358     23.74691 
   19800    238.39709   -368.88308    216156.16   -20145.449    1510.0599   -21655.509   -909.38672    138.40055    39.420777    39.248465    23.739123 
   20000    231.13067   -422.62972    216156.16    -20173.05    1464.0328   -21637.083   -1141.4293     138.4816    39.420016    39.247106    23.749376 
   20200     235.9927   -346.08912    216156.16    -20225.29      1494.83    -21720.12   -852.02318    140.11822    39.422856    39.246526    23.722256 
   20400    232.01633   -271.16628    216156.16   -20134.548    1469.6428   -21604.191   -503.70065    141.08459    39.423433    39.244938    23.754684 
   20600    229.69832   -380.92718    216156.16   -20209.447      1454.96   -21664.407   -979.45599    143.14542     39.42129    39.247175    23.746079 
   20800    238.22529   -384.22358    216156.16    -20156.24    1508.9717   -21665.212   -963.47957    144.24708    39.423141    39.249252    23.754441 
   21000    231.44114   -564.84062    216156.16   -20174.144    1465.9994   -21640.143   -1711.2892    145.27612    39.424068    39.251557      23.7837 
   21200    234.33702   -585.03538    216156.16    -20122.05    1484.3426   -21606.393   -1847.3927    146.71227    39.425681    39.251803     23.78394 
   21400      234.658   -372.29906    216156.16    -20174.02    1486.3757   -21660.396   -915.94664    147.18742    39.424641     39.25412    23.789517 
   21600    240.27836   -325.65246    216156.16   -20062.287    1521.9763   -21584.263   -716.35088    147.21143    39.424435    39.254846    23.802581 
   21800    235.30594   -398.23171    216156.16   -20133.043    1490.4799   -21623.523   -1051.6503    149.24542    39.424638    39.254275    23.827638 
   22000       233.13   -554.57934    216156.16   -20210.463     1476.697    -21687.16   -1695.0793    149.92324    39.426734    39.254875    23.845825 
   22200    227.37148   -334.57676    216156.16   -20258.149    1440.2213    -21698.37    -758.3553    150.63074    39.425905    39.255015    23.854524 
   22400    235.42476   -515.26243    216156.16   -20129.958    1491.2326   -21621.191   -1535.5018    152.76105    39.426824    39.253359    23.856165 
   22600     230.8649   -356.41504    216156.16   -20130.156    1462.3494   -21592.506   -865.73353    153.94855    39.426226    39.254135    23.885657 
   22800    238.32471    -418.1912    216156.16   -20083.573    1509.6015   -21593.174   -1142.4941    155.65359    39.426141    39.252134    23.913201 
   23000    232.01395   -602.49105    216156.16    -20159.26    1469.6277   -21628.888   -1932.3123     156.6743     39.42513    39.250333    23.930419 
   23200    233.69937   -327.82765    216156.16   -20055.127    1480.3035   -21535.431   -725.55031    157.27258     39.42447    39.249947    23.927131 
   23400    232.51254    -334.5472    216156.16   -20092.867    1472.7859   -21565.653   -786.33344    158.96918     39.42378    39.248751    23.932169 
   23600    241.10732   -251.55445    216156.16   -20053.953    1527.2271    -21581.18   -376.26467    160.97505    39.424561    39.247961    23.930499 
   23800    239.33922   -353.46562    216156.16   -20070.509    1516.0276   -21586.536   -859.31199    162.66539    39.425302    39.249181    23.931713 
   24000    235.03036   -443.44379    216156.16   -20122.488    1488.7343   -21611.222   -1238.7132    163.27312    39.425439    39.245743    23.917237 
   24200     240.1464   -295.68171    216156.16   -20154.573    1521.1404   -21675.713   -603.99912    164.82378    39.425153    39.242906     23.88873 
   24400     229.1968   -268.08932    216156.16   -20188.404    1451.7832   -21640.187   -494.32638    166.23827    39.423351    39.243147    23.908847 
   24600    236.06675   -537.56673    216156.16   -20190.973     1495.299   -21686.272   -1663.5305    167.94351    39.425092    39.243659    23.915988 
   24800    231.70535   -465.19487    216156.16   -20198.896     1467.673   -21666.569   -1306.0505    169.55505    39.425779    39.244785    23.923215 
   25000    230.82491   -363.82125    216156.16   -20207.343    1462.0961   -21669.439   -938.02245    170.40727    39.424688    39.245677    23.924998 
   25200     222.2121   -417.91548    216156.16   -20300.444    1407.5406   -21707.984   -1116.5869    170.16862    39.424492    39.247315    23.954964 
   25400    232.69335   -333.94814    216156.16   -20183.173    1473.9312   -21657.104   -774.94041     169.7619    39.426374    39.247406    23.943223 
   25600    244.39004   -402.58422    216156.16    -20028.75    1548.0206   -21576.771   -1088.7628     171.8076    39.426804    39.250388    23.934474 
   25800    240.59939    -311.1484    216156.16   -20072.935    1524.0098   -21596.945   -698.47346    173.08618    39.429061     39.25118    23.937618 
   26000    236.79803    -260.5522    216156.16   -20111.493    1499.9311   -21611.425   -425.63968    174.07708    39.430602    39.252001    23.938969 
   26200    233.34361   -364.62652    216156.16   -20107.483    1478.0501   -21585.533   -857.45278    176.48504    39.431541    39.250891    23.971681 
   26400    232.04928   -519.94371    216156.16   -20141.511    1469.8515   -21611.362   -1563.4829    179.10045    39.431341    39.252121    23.976543 
   26600    237.83995   -541.47513    216156.16   -20073.966    1506.5309   -21580.497   -1680.2014    178.68427    39.432695    39.251731    23.957874 
   26800    234.44707   -339.91232    216156.16   -20098.232    1485.0396   -21583.271    -820.2323    178.80502     39.43578    39.251229    23.952559 
   27000    236.77938   -507.82823    216156.16   -20035.385     1499.813   -21535.198   -1510.8441    181.34879    39.435685    39.250538    23.938324 
   27200     240.7271   -533.18907    216156.16   -20071.385    1524.8187   -21596.204   -1604.0529    182.84991    39.435444    39.251456    23.932516 
   27400    235.19417   -434.69753    216156.16    -20056.85    1489.7719   -21546.622   -1203.4424    183.48989    39.436067    39.251735     23.92581 
   27600    227.76661   -321.91106    216156.16   -20150.022    1442.7242   -21592.746   -710.42859    185.05671     39.43393    39.250764    23.907943 
   27800    237.26967   -276.71849    216156.16   -20048.555    1502.9186   -21551.474   -554.15569    188.10529      39.4357    39.249867    23.905135 
   28000    228.76986   -376.19192    216156.16   -20143.571    1449.0789    -21592.65     -970.725    189.48443    39.437496    39.247546    23.905872 
   28200    232.70033   -451.63865    216156.16   -20091.168    1473.9754   -21565.144   -1308.0625    189.31502    39.435907    39.247425    23.905668 
   28400    237.06616   -375.60527    216156.16   -20116.875    1501.6295   -21618.505   -968.50198    192.13211     39.43429    39.247719    23.911405 
   28600    236.99352   -499.32739    216156.16   -20141.286    1501.1694   -21642.456   -1474.0421    193.59923     39.43408     39.24884    23.910557 
   28800    235.38507   -499.32316    216156.16   -20140.996    1490.9811   -21631.977   -1438.6891    194.82689    39.434606     39.24725    23.913096 
   29000    232.53835   -328.02272    216156.16    -20159.54    1472.9494   -21632.489   -729.22301    196.08215    39.433384    39.248711    23.907513 
   29200    234.05057   -266.17426    216156.16   -20116.635    1482.5281   -21599.163   -468.03908    197.84789    39.433876    39.246631    23.889384 
   29400    238.17489   -489.93083    216156.16    -20140.11    1508.6525   -21648.762   -1447.3146    200.97695    39.435802    39.245968    23.884795 
   29600    234.58195   -425.05701    216156.16   -20147.439     1485.894   -21633.333   -1178.2271    201.69257    39.435798    39.247396    23.874617 
   29800    233.82727   -211.65159    216156.16   -20211.416    1481.1137    -21692.53   -239.60462    203.72688    39.436042    39.245664    23.863159 
   30000    232.36791   -270.16224    216156.16   -20240.173    1471.8698   -21712.043   -506.76386    205.14996    39.436019    39.247486    23.833123 
   30200    230.61195   -279.73043    216156.16    -20190.64    1460.7472   -21651.387   -502.65428    206.58977    39.435654    39.245463     23.80965 
   30400    230.97692   -417.21205    216156.16   -20180.274    1463.0589   -21643.333   -1147.6625    207.97288    39.433373    39.244278     23.82499 
   30600    229.09206   -457.70927    216156.16    -20242.56    1451.1198    -21693.68   -1284.5332    209.34967     39.43242    39.244126    23.811463 
   30800    229.10678   -343.66683    216156.16   -20188.676     1451.213   -21639.889   -793.24662     211.4099    39.434434    39.243408    23.826873 
   31000    232.93208   -369.12739    216156.16    -20171.52    1475.4434   -21646.963    -927.5565    211.66809    39.436804    39.244272     23.83048 
   31200    235.33245   -468.29524    216156.16   -20137.633    1490.6478   -21628.281   -1289.7985    215.49783     39.43612    39.242843    23.821536 
   31400    232.69451   -455.49669    216156.16   -20137.016    1473.9385   -21610.954   -1267.5739    217.67816    39.437247    39.244271    23.818673 
   31600    231.92106   -516.92527    216156.16   -20138.495    1469.0393   -21607.534   -1553.4781    217.66409    39.437826    39.245767    23.817928 
   31800    237.59384   -250.14445    216156.16    -20070.28     1504.972   -21575.252   -405.22908    219.42497    39.439095    39.247407    23.838208 
   32000    232.56896   -409.93028    216156.16    -20190.36    1473.1433   -21663.503    -1063.145     222.0818    39.440705    39.248007    23.829423 
   32200    229.15551   -443.80741    216156.16   -20202.795    1451.5217   -21654.317   -1200.0989    224.24353    39.442043     39.24727     23.83928 
   32400     227.2291   -330.73452    216156.16   -20197.576    1439.3194   -21636.896   -765.27549    224.91592    39.442562    39.246669    23.858158 
   32600    238.84498   -403.55936    216156.16   -20104.732    1512.8969   -21617.629   -1036.9318    224.90868     39.44215    39.245031    23.862391 
   32800    240.10649   -450.69153    216156.16   -20130.362    1520.8876    -21651.25   -1226.3365    226.34691    39.441804    39.241798     23.86892 
   33000    233.98565   -417.05071    216156.16   -20149.354    1482.1169   -21631.471   -1096.6656    226.33463    39.442051     39.24148      23.8818 
   33200    229.24297   -389.13874    216156.16   -20183.874    1452.0757   -21635.949    -986.3329    227.39648    39.440508    39.242531    23.881733 
   33400    232.06117   -438.12469    216156.16   -20226.873    1469.9268     -21696.8   -1172.7659    230.10168    39.440293    39.242648    23.862514 
   33600    230.01231   -209.09341    216156.16   -20234.302    1456.9489   -21691.251   -226.25537    229.73892    39.440445    39.243193    23.850361 
   33800    242.93796   -226.36628    216156.16   -20083.656    1538.8228   -21622.479   -291.78555    232.06984    39.439717    39.245709    23.867594 
   34000    234.97979   -413.45253    216156.16   -20200.997     1488.414   -21689.411   -1068.4223    234.39297    39.439682    39.247289    23.884246 
   34200    230.28125   -342.85208    216156.16   -20190.182    1458.6524   -21648.835   -794.73368    236.77898    39.437299    39.248584    23.879815 
   34400    229.45509   -254.86557    216156.16   -20192.724    1453.4193   -21646.143   -437.54076     237.3859    39.434971    39.249574    23.883795 
   34600    234.68502   -405.93861    216156.16   -20049.432    1486.5469   -21535.979   -1087.1508    239.46371     39.43258    39.252059    23.863823 
   34800    238.61083   -296.46806    216156.16    -20131.74    1511.4138   -21643.153   -591.98219    238.98014    39.432048    39.251769    23.866655 
   35000    233.12367   -232.10183    216156.16   -20186.209    1476.6569   -21662.866   -354.82066    239.18764    39.431648    39.250275    23.861072 
   35200    238.29371   -263.05021    216156.16   -20106.254    1509.4051   -21615.659   -453.19189    243.32453    39.430427    39.248701    23.883674 
   35400    240.12281   -348.94554    216156.16    -20121.26     1520.991   -21642.251    -814.4952     243.4434    39.430592    39.251964     23.87721 
   35600    234.50255   -359.81371    216156.16   -20148.842    1485.3911   -21634.234   -830.98234    243.68861    39.430565    39.252905    23.896815 
   35800     239.1743   -327.63587    216156.16   -20039.916     1514.983   -21554.899   -713.73286    244.76348    39.430285    39.252264    23.888835 
   36000    229.29642   -471.93321    216156.16   -20157.712    1452.4143   -21610.126   -1304.3703    245.53908    39.430996    39.251266    23.873406 
   36200    230.58297   -419.61913    216156.16   -20185.637    1460.5636     -21646.2   -1093.1435    245.85424    39.431039    39.250561    23.871356 
   36400    240.01243   -252.04099    216156.16   -20155.605    1520.2918   -21675.897   -346.99858    246.98523    39.430042      39.2522    23.883682 
   36600    242.39513   -348.11096    216156.16   -20183.689    1535.3844   -21719.074    -861.3622    249.29326    39.429593    39.254182    23.908405 
   36800    229.75416   -283.25629    216156.16   -20234.208    1455.3137   -21689.522   -522.92932    251.63922    39.428804    39.255346    23.905952 
   37000    237.04106    -397.2696    216156.16   -20204.246    1501.4705   -21705.717   -1064.3144    250.62594    39.427071    39.256069    23.900885 
   37200    234.75388   -366.31979    216156.16    -20213.08     1486.983   -21700.063    -862.3798    251.59818     39.42709    39.252698    23.887626 
   37400    231.84148   -514.66992    216156.16   -20238.097    1468.5352   -21706.632   -1527.2145    253.16298    39.426153    39.252127    23.879758 
   37600    225.93254   -419.31218    216156.16    -20244.45    1431.1067   -21675.557   -1144.6864    253.20968    39.424477    39.248957    23.869982 
   37800    226.89972   -337.93804    216156.16   -20283.262     1437.233   -21720.495   -733.78166    256.41508     39.42488    39.250929    23.868617 
   38000    235.83923    -312.7794    216156.16   -20209.753    1493.8579   -21703.611   -673.40341    259.16185    39.423261    39.250369    23.876552 
   38200    237.64347   -278.18622    216156.16   -20196.004    1505.2863    -21701.29   -509.50789    260.73306    39.424528    39.250217    23.862343 
   38400    239.81237   -426.52531    216156.16   -20147.543    1519.0246   -21666.568   -1139.2686    262.50107    39.424936     39.25473    23.863079 
   38600    236.62173   -488.75728    216156.16    -20190.82    1498.8144   -21689.634    -1433.422    263.25533    39.428355    39.255318    23.872031 
   38800    243.89885   -464.98364    216156.16   -20176.309    1544.9093   -21721.218   -1306.8009    265.94275    39.431389    39.255102    23.861881 
   39000    230.86332   -420.48925    216156.16   -20153.066    1462.3394   -21615.406    -1130.275    264.08777    39.433305     39.25416    23.871463 
   39200    228.52659   -428.72296    216156.16   -20230.051     1447.538   -21677.589   -1144.1241    262.22887    39.434745    39.252286    23.890085 
   39400    239.53913   -465.21614    216156.16   -20193.981    1517.2939   -21711.275   -1292.7579    265.07535    39.434979    39.250191    23.905254 
   39600    235.86944   -495.21206    216156.16   -20162.399    1494.0493   -21656.449    -1462.055    266.19483    39.436399    39.251115    23.899377 
   39800    232.83899   -326.66185    216156.16   -20242.646    1474.8537     -21717.5   -706.81965    266.81851    39.437128    39.251357    23.904327 
   40000    236.24861   -283.57863    216156.16   -20188.704     1496.451   -21685.155   -557.97183    268.89203    39.437275      39.2519    23.904615 
   40200    232.62579   -319.33787    216156.16   -20184.615    1473.5032   -21658.118    -700.1076    268.45508    39.437014    39.254168    23.875302 
   40400    228.11996   -344.72277    216156.16   -20211.662    1444.9623   -21656.624   -803.35259    267.88821    39.437785    39.252911    23.855139 
   40600    236.20092   -576.51291    216156.16   -20156.011    1496.1489    -21652.16   -1785.5674    268.21313    39.438276    39.253323    23.835396 
   40800    228.39903   -444.53136    216156.16   -20192.695      1446.73   -21639.425    -1241.032    268.93005    39.438052    39.252737     23.82568 
   41000     230.2813   -397.48457    216156.16   -20183.579    1458.6527   -21642.232   -1057.9719    270.06886    39.439667    39.254877    23.843537 
   41200    238.99405   -426.39992    216156.16   -20132.917    1513.8412   -21646.758   -1133.6995    270.41599    39.439478    39.256221     23.84396 
   41400    229.77788   -545.59306    216156.16   -20209.387     1455.464   -21664.851    -1694.146    269.94493    39.439639    39.255315    23.824993 
   41600    232.50064   -496.41272    216156.16   -20179.745    1472.7105   -21652.456    -1433.301    272.35824      39.4419    39.254919    23.821699 
   41800    235.06918   -338.69603    216156.16   -20165.453    1488.9802   -21654.433   -755.18008     273.7637     39.44166    39.253956    23.803808 
   42000    234.86002   -327.02302    216156.16   -20171.976    1487.6554   -21659.632   -687.63031    274.80575    39.438941    39.253884    23.793308 
   42200    232.41333   -325.45165    216156.16   -20234.101    1472.1575   -21706.258   -693.67205    274.49939    39.439439    39.254914    23.806761 
   42400    235.47562   -427.71366    216156.16    -20181.83    1491.5547   -21673.385   -1208.6306    275.92468    39.439868    39.256222    23.803078 
   42600     230.9366   -464.50184    216156.16   -20199.622    1462.8035   -21662.425     -1307.77    276.20253    39.438343    39.254361    23.819388 
   42800    243.17128   -573.75442    216156.16   -20157.501    1540.3007   -21697.801   -1763.6617    278.91153    39.437997    39.254282    23.817853 
   43000    238.24917   -394.54987    216156.16   -20182.674     1509.123   -21691.797   -994.69618    278.26297    39.437873    39.255051    23.798263 
   43200    233.52028   -347.75981    216156.16    -20179.38    1479.1691   -21658.549   -835.37899    279.56186     39.43659     39.25511    23.794625 
   43400    236.22546   -367.34613    216156.16    -20173.27    1496.3044   -21669.574   -858.51458    280.88287      39.4377    39.255338     23.77441 
   43600    237.41017   -496.60781    216156.16   -20217.048    1503.8086   -21720.857   -1432.0233    280.92655    39.440545    39.252434    23.786726 
   43800    238.05686   -376.05118    216156.16   -20207.402    1507.9049   -21715.307   -906.21305    281.09265    39.437755    39.251248    23.774694 
   44000    228.11689   -475.82719    216156.16    -20218.35    1444.9429   -21663.293   -1341.8799    280.29146    39.439809    39.250507    23.770187 
   44200    226.71009   -392.88371    216156.16   -20136.323    1436.0319   -21572.355   -1001.9955     279.7779    39.441209    39.252287    23.750444 
   44400    232.09388   -436.61844    216156.16   -20162.224     1470.134   -21632.358    -1214.472    282.70453    39.440088    39.250147    23.718795 
   44600    230.34441    -389.2641    216156.16    -20170.28    1459.0525   -21629.332   -981.53669    282.64444    39.437268    39.253265    23.715767 
   44800    228.63276    -552.2145    216156.16   -20182.784    1448.2105   -21630.994   -1704.4437    282.99104    39.436044    39.253905     23.70969 
   45000    237.87645   -365.80953    216156.16   -20198.544    1506.7621   -21705.306   -915.90715    283.01559     39.43589    39.253134    23.721926 
   45200    236.28602   -280.17328    216156.16   -20166.041     1496.688   -21662.729   -491.25171    283.69437    39.434495     39.25541    23.712584 
   45400    226.16782   -414.02508    216156.16   -20247.222     1432.597   -21679.819   -1127.4562    284.13351    39.432982    39.254641     23.72428 
   45600    244.71766   -428.59286    216156.16   -20153.303    1550.0958   -21703.399   -1144.1945    284.64797    39.433373    39.255445    23.729651 
   45800    235.75911   -328.02359    216156.16   -20191.416    1493.3504   -21684.767   -764.61029    284.54499    39.435737    39.254208    23.696221 
   46000    237.09068   -542.58839    216156.16   -20084.991    1501.7848   -21586.776    -1615.107    287.31862    39.437121    39.255578    23.664097 
   46200    236.36561   -484.36753    216156.16   -20095.941    1497.1921   -21593.133   -1405.8205     287.9261    39.437658    39.258008    23.654166 
   46400    234.42576   -316.53985    216156.16   -20164.099    1484.9046   -21649.003    -700.3552    290.03219    39.437342    39.256418    23.666885 
   46600    236.41331   -412.11167    216156.16   -20147.686    1497.4943    -21645.18   -1038.7943      291.624    39.436653    39.255796    23.674931 
   46800    235.07178   -355.14374    216156.16   -20126.762    1488.9967   -21615.759   -784.57855    294.56722    39.436953    39.256775    23.675577 
   47000    234.52001   -428.80623    216156.16   -20127.749    1485.5017   -21613.251   -1193.1706    295.34525    39.438179    39.257672    23.669343 
   47200    233.46863   -426.12056    216156.16   -20221.733     1478.842   -21700.575   -1132.0518    294.28794    39.439773    39.256633    23.673151 
   47400    233.59843   -502.68378    216156.16    -20155.03    1479.6641   -21634.694   -1430.5134    295.80404    39.441487    39.256556    23.674629 
   47600    236.78396   -488.92078    216156.16   -20153.754     1499.842   -21653.596    -1408.164    298.33971    39.442489    39.259193    23.670083 
   47800    234.67103   -410.07172    216156.16   -20191.468    1486.4583   -21677.926   -1040.1488    299.84852    39.441792    39.260234     23.64643 
   48000    230.25666   -320.43448    216156.16   -20180.467    1458.4967   -21638.964   -697.39957    298.76832    39.441714    39.262489    23.678477 
   48200    231.89945   -445.80645    216156.16   -20166.812    1468.9025   -21635.714   -1223.4739    299.14844    39.440589    39.260793    23.645482 
   48400    231.38649    -437.1155    216156.16   -20144.686    1465.6532   -21610.339   -1167.9383    298.98986    39.441349    39.262569    23.681485 
   48600     228.3596   -383.68377    216156.16    -20221.06    1446.4802    -21667.54   -924.65388    301.02216    39.438935    39.262983     23.66816 
   48800    230.87355   -371.89328    216156.16   -20183.628    1462.4041   -21646.032   -874.90711    303.18401    39.440026    39.261651    23.683498 
   49000    234.07118   -499.81104    216156.16   -20213.497    1482.6587   -21696.156   -1467.7187     305.3226     39.43948    39.263374     23.68417 
   49200    238.78601   -444.74104    216156.16   -20152.684    1512.5235   -21665.207   -1188.6382    306.10889    39.440885    39.264567    23.699419 
   49400    227.82773   -389.69187    216156.16   -20204.222    1443.1113   -21647.333   -985.51968    306.89504    39.442415    39.265583    23.704604 
   49600    229.55831   -439.80488    216156.16   -20171.784    1454.0732   -21625.858   -1173.0915    307.48321    39.440586    39.266653    23.726903 
   49800    233.45188   -405.37773    216156.16   -20153.577    1478.7359   -21632.312   -1079.7034    309.70939    39.441107    39.263476     23.72105 
   50000    233.61231   -462.74386    216156.16   -20155.648    1479.7521     -21635.4   -1257.3742    309.32162    39.441311    39.262716    23.694495 
   50200    243.75101   -372.56245    216156.16    -20124.92    1543.9728   -21668.893   -865.43944    308.92206    39.440806    39.262655    23.686905 
   50400    234.92684   -288.42411    216156.16   -20167.307    1488.0786   -21655.385   -540.77177    310.61887    39.441174    39.261204    23.698689 
   50600    249.07444     -400.009    216156.16   -20094.949    1577.6926   -21672.642   -1018.8271      310.437    39.442449    39.261596    23.671396 
   50800    229.41286   -459.04985    216156.16    -20270.11    1453.1518   -21723.262   -1296.1449    310.20684    39.442705    39.262374     23.67082 
   51000    232.58905   -355.64405    216156.16   -20211.327    1473.2706   -21684.598   -863.92319    311.23828    39.443098    39.263989    23.676424 
   51200    234.66928    -430.8451    216156.16   -20229.339    1486.4471   -21715.786   -1115.1303    313.83967     39.44521    39.265057    23.678582 
   51400     234.1345   -437.20931    216156.16   -20216.374    1483.0597   -21699.433   -1182.9961    315.23065    39.449198    39.265842     23.68754 
   51600     229.7795   -466.85618    216156.16   -20205.046    1455.4742    -21660.52    -1285.452    314.85888    39.452198    39.264765    23.659495 
   51800    228.71102   -581.15022    216156.16   -20144.873    1448.7062   -21593.579   -1798.1526    315.01068       39.454    39.266089    23.653158 
   52000    230.01139   -471.23951    216156.16   -20227.754    1456.9431   -21684.697   -1357.3439    316.03981    39.454628    39.264553    23.643739 
   52200    233.91635   -432.32293    216156.16   -20232.687    1481.6779   -21714.365   -1164.3946     316.7581    39.456959    39.264085    23.631196 
   52400     228.1011   -447.42631    216156.16   -20281.594    1444.8429   -21726.436   -1262.8553    318.35561    39.456343    39.260004    23.629647 
   52600    232.13301   -264.11301    216156.16   -20173.682    1470.3819   -21644.064   -446.47066    318.30096    39.455082     39.26106    23.631702 
   52800    241.20777   -527.79794    216156.16   -20146.348    1527.8634   -21674.212   -1555.2311    318.06159    39.455491    39.263448    23.627766 
   53000    237.62142   -366.57348    216156.16   -20133.808    1505.1467   -21638.955   -869.62218    318.35938    39.455132    39.263258    23.635449 
   53200    237.44979   -437.12394    216156.16   -20232.102    1504.0595   -21736.162   -1216.4836     316.7653    39.455774    39.261029    23.630952 
   53400    238.96166   -204.46805    216156.16   -20208.559     1513.636   -21722.195   -240.53186    313.19563    39.454328    39.259934    23.644825 
   53600    229.47191   -389.37982    216156.16   -20249.911    1453.5259   -21703.437   -1005.2052     314.6909    39.454955     39.25975    23.631835 
   53800    229.88446   -319.70675    216156.16   -20190.953    1456.1391   -21647.092    -754.8445    316.61743    39.455245    39.257745    23.625144 
   54000    241.11733   -253.62713    216156.16    -20185.46    1527.2906   -21712.751    -440.5251    315.88565    39.457356    39.257086    23.609749 
   54200    234.67661    -319.9907    216156.16   -20147.068    1486.4936   -21633.562   -731.18604    316.49797    39.456543    39.257741    23.611591 
   54400    238.56289   -356.89874    216156.16   -20117.907    1511.1101   -21629.017   -876.25044    316.10209    39.456811    39.259046    23.601841 
   54600    236.76438   -323.82796    216156.16   -20154.555     1499.718   -21654.273   -695.60167    318.07549    39.455787    39.258979    23.598593 
   54800    237.46962    -240.1761    216156.16   -20145.288    1504.1851   -21649.473   -410.33486    319.03596    39.459724    39.256957    23.615106 
   55000    245.67084   -262.94322    216156.16   -20139.278    1556.1335   -21695.412   -468.89955    319.15557    39.460593    39.256093    23.642203 
   55200    224.91924   -302.97066    216156.16   -20300.665    1424.6883   -21725.353   -611.71653    319.69287    39.461566    39.256933    23.631166 
   55400    231.64475   -233.88002    216156.16   -20222.332    1467.2892   -21689.621   -335.27508    319.82205    39.461997     39.25575    23.606373 
   55600    239.80962   -256.02973    216156.16   -20202.233    1519.0072    -21721.24   -431.83653    320.54687    39.459895    39.252494    23.618548 
   55800    237.66228   -371.35431    216156.16   -20121.936    1505.4055   -21627.342   -923.94907    322.07134    39.461666    39.250446    23.635424 
   56000    236.24034   -292.38921    216156.16   -20148.467    1496.3986   -21644.866   -566.36578    323.02088    39.458448    39.249415    23.632001 
   56200    238.84915   -222.91934    216156.16    -20130.48    1512.9234   -21643.404   -286.37699    323.74361    39.457358    39.247207    23.606366 
   56400    233.37735   -283.24996    216156.16   -20222.861    1478.2638   -21701.125   -547.48904    322.75684    39.457941    39.245303    23.601302 
   56600    226.22976   -365.80122    216156.16   -20298.871    1432.9894   -21731.861   -900.64739    324.83535    39.461318    39.247387    23.608086 
   56800    234.75739   -380.49828    216156.16   -20199.676    1487.0053   -21686.681   -992.07254    323.94735    39.465588    39.247142    23.626795 
   57000    231.91671   -488.26156    216156.16   -20276.707    1469.0118   -21745.718   -1455.0434    325.12375    39.469359    39.244908    23.622278 
   57200    235.19031   -367.35482    216156.16   -20178.956    1489.7475   -21668.704   -896.82532    323.77854    39.468078    39.242421     23.62028 
   57400    230.24647   -334.95448    216156.16   -20237.506    1458.4321   -21695.938   -757.39615    325.76903    39.466331    39.238937    23.633357 
   57600     229.6399   -478.34437    216156.16   -20263.387      1454.59   -21717.977   -1349.3782    325.36348    39.467001    39.237147    23.639641 
   57800     231.8888   -446.09519    216156.16   -20184.118     1468.835   -21652.953   -1259.2031    326.74808    39.466474    39.235043    23.619856 
   58000    237.66507   -339.69232    216156.16    -20193.45    1505.4231   -21698.874   -799.50843    326.98094    39.467162     39.23481    23.606559 
   58200    235.95232   -454.75107    216156.16   -20165.554    1494.5742   -21660.129   -1303.3591    327.38352    39.467921    39.236178    23.625027 
   58400    239.47797   -214.68534    216156.16   -20188.135    1516.9065   -21705.041   -270.72131    328.43986    39.470002    39.236313    23.620053 
   58600    231.10206    -188.5515    216156.16   -20201.375    1463.8516   -21665.227   -159.54302    328.56038    39.467628    39.237143    23.606559 
   58800    231.54584   -415.62825    216156.16   -20214.942    1466.6626   -21681.604     -1090.66    330.65668    39.467228    39.237778    23.606853 
   59000    235.96199   -393.62128    216156.16   -20157.617    1494.6355   -21652.253   -1042.1038     330.1025    39.466235    39.234883    23.590186 
   59200    236.24153   -301.57508    216156.16   -20212.785    1496.4061   -21709.191    -654.9935    329.92358    39.465362    39.236849    23.582557 
   59400    232.85097   -386.80465    216156.16   -20195.378    1474.9296   -21670.308   -989.93106    331.39556    39.465318    39.236243     23.59437 
   59600    227.75704   -431.72414    216156.16   -20216.627    1442.6635   -21659.291   -1228.9077    333.60175    39.466275    39.236481     23.59711 
   59800    232.72535   -349.91206    216156.16   -20177.145    1474.1339   -21651.279   -829.03381    333.73943    39.467271    39.234922    23.614197 
   60000    236.01679   -283.37349    216156.16   -20155.369    1494.9826   -21650.351   -579.34532     333.7092    39.468768      39.2333    23.620637 
   60200    234.33829   -266.34862    216156.16   -20171.689    1484.3506   -21656.039   -504.18046    334.66065    39.469449    39.234053    23.625365 
   60400    238.09941   -388.49051    216156.16   -20154.954    1508.1744   -21663.128   -999.46455    335.95589    39.467107    39.235725    23.642767 
   60600    238.42616   -422.48004    216156.16   -20122.348    1510.2441   -21632.592   -1130.3924    336.01699    39.466993    39.235291    23.660249 
   60800    232.30905   -276.29193    216156.16   -20070.049     1471.497   -21541.546   -556.34468    337.58638    39.466384    39.237163    23.642343 
   61000    236.96427   -271.09239    216156.16   -20157.929    1500.9841   -21658.913   -494.79783    337.44945    39.466699     39.23811    23.647789 
   61200    238.68121   -372.47206    216156.16   -20119.057    1511.8596   -21630.917     -937.216    338.87181    39.467912    39.236763    23.656509 
   61400    235.51503   -391.66441    216156.16   -20118.509    1491.8043   -21610.313   -1039.0455    339.82181    39.467931    39.238058    23.656506 
   61600    233.15728   -353.28938    216156.16    -20159.38    1476.8698    -21636.25   -827.69911    341.08567    39.469406    39.238391    23.679778 
   61800    233.74761   -357.39949    216156.16   -20229.849    1480.6091   -21710.458   -884.62638    341.60015    39.468707    39.237505    23.695037 
   62000    239.63757   -608.51855    216156.16   -20123.728    1517.9174   -21641.645   -1952.1904    343.10074    39.466942     39.23682    23.662086 
   62200      240.403   -358.94377    216156.16   -20118.614    1522.7658    -21641.38   -910.39558    344.58322    39.466216    39.238283    23.664201 
   62400     242.9557   -567.74869    216156.16   -20137.866    1538.9352   -21676.801   -1744.4887    346.39898    39.464761    39.240545    23.655171 
   62600    228.88071   -481.66401    216156.16   -20196.031    1449.7811   -21645.812    -1352.762    347.31215    39.464429    39.242579    23.650588 
   62800    226.74443   -397.24319    216156.16    -20233.85    1436.2494   -21670.099   -1027.1148    347.76493    39.464398     39.24397    23.636876 
   63000    233.24752   -372.40564    216156.16    -20148.23    1477.4414   -21625.671   -954.48877    347.44033    39.463477     39.24176    23.655596 
   63200    231.75615   -336.00511    216156.16   -20183.174    1467.9947   -21651.169    -743.4886    346.94339    39.464341    39.242848     23.67973 
   63400    229.17151   -311.54259    216156.16   -20251.237     1451.623    -21702.86   -613.43123     346.1917    39.463375    39.245555    23.652551 
   63600    228.69416   -407.31448    216156.16   -20221.921    1448.5994   -21670.521   -1055.1835    346.88835    39.462967    39.245194    23.662694 
   63800    230.23151   -378.44641    216156.16   -20247.668    1458.3373   -21706.006   -927.17037    347.65448    39.462755    39.246113    23.662308 
   64000    240.95728   -256.55785    216156.16   -20165.517    1526.2767   -21691.793   -447.99069    347.88238    39.461494    39.246686    23.671271 
   64200    235.53251   -458.24994    216156.16   -20195.975     1491.915    -21687.89   -1294.6259    350.21275    39.461912    39.246151       23.665 
   64400    236.57031   -410.47749    216156.16   -20219.708    1498.4887   -21718.197    -1059.212    349.99286    39.462575    39.244197    23.689533 
   64600    224.87496   -365.50521    216156.16   -20277.668    1424.4078   -21702.076   -861.95293     350.1076    39.464662    39.243136    23.687003 
   64800     235.3352   -404.39254    216156.16    -20282.98    1490.6653   -21773.645    -1070.319    351.26823    39.466659    39.243522    23.681123 
   65000    238.83627   -299.41632    216156.16   -20190.256    1512.8418   -21703.098   -626.71859    352.04436    39.468613    39.242559    23.682262 
   65200    236.79569   -411.25698    216156.16   -20217.522    1499.9163   -21717.438   -1080.9647    351.58987    39.465205    39.239755    23.702999 
   65400    234.90351   -420.31715    216156.16   -20225.772    1487.9308   -21713.703      -1140.8    352.28423    39.462917    39.240254    23.704275 
   65600    236.71933   -479.58866    216156.16   -20168.814    1499.4326   -21668.247   -1423.9413    353.25512    39.464189    39.239587    23.690629 
   65800    232.19732   -322.07874    216156.16   -20216.818    1470.7892   -21687.608   -740.17101     352.3054    39.464399     39.23975    23.687113 
   66000    229.13239   -301.42037    216156.16   -20196.868    1451.3753   -21648.243   -617.87611    352.97428    39.464233    39.242388    23.686672 
   66200       234.01   -300.44306    216156.16   -20234.626    1482.2711   -21716.898   -566.01902    354.41139    39.463564    39.243513    23.683228 
   66400    238.66373   -420.35407    216156.16   -20227.898    1511.7489   -21739.647   -1130.8374    353.99186    39.460678    39.245523    23.692769 
   66600    231.92517   -331.47017    216156.16   -20228.805    1469.0653    -21697.87    -753.2255    354.45749     39.45686    39.245896    23.715084 
   66800    233.51267   -528.06098    216156.16   -20221.918     1479.121   -21701.038   -1621.3509    355.69466    39.455083    39.243071    23.709705 
   67000    230.55916   -488.20278    216156.16     -20305.3    1460.4128   -21765.713   -1433.9963    356.04052    39.454063     39.24132    23.721824 
   67200    233.82886   -430.41155    216156.16   -20261.713    1481.1237   -21742.836   -1168.6864    357.22654    39.451667    39.244492    23.714929 
   67400    232.17471   -248.01589    216156.16   -20265.075     1470.646   -21735.721   -375.55184    356.83021    39.448987    39.246997    23.691941 
   67600    237.57427   -398.16117    216156.16   -20199.774     1504.848   -21704.622    -1010.074    356.61486    39.448437     39.24683    23.689251 
   67800    228.17972   -525.06197    216156.16    -20210.47    1445.3409   -21655.811   -1581.7283    355.78392    39.445134    39.248863    23.686022 
   68000    235.53521   -356.57188    216156.16   -20246.839    1491.9322   -21738.771   -894.45255     356.6831    39.443821    39.248896    23.676507 
   68200    234.74892   -454.38114    216156.16   -20247.997    1486.9516   -21734.949   -1282.8975    357.51727    39.444687    39.246793    23.681319 
   68400    243.05436   -166.93596    216156.16   -20202.169    1539.5601   -21741.729   -38.316416    358.31285    39.441397    39.246987     23.66274 
   68600    235.34185   -417.53599    216156.16   -20211.597    1490.7074   -21702.304   -1117.7961    358.62208    39.441122    39.249583    23.657332 
   68800    236.95991   -371.56853    216156.16   -20193.678    1500.9565   -21694.634   -961.24987    358.36493    39.443142    39.249487    23.669466 
   69000    238.50252   -401.96572    216156.16   -20176.562    1510.7277    -21687.29   -1078.1303    358.00205    39.443202    39.248189    23.682012 
   69200    229.14275   -283.65662    216156.16   -20244.517    1451.4409   -21695.958   -491.60197     358.6426     39.44381    39.249464     23.69118 
   69400    230.27573   -475.48536    216156.16   -20291.842    1458.6175    -21750.46   -1364.6192    359.41826    39.443319    39.250813    23.706989 
   69600    241.20335   -391.05655    216156.16   -20083.876    1527.8354   -21611.711   -1027.3384    359.71732    39.442053    39.252283    23.710421 
   69800    232.56818   -475.00454    216156.16   -20174.069    1473.1383   -21647.207   -1386.0511    361.24187    39.440677     39.25138    23.706743 
   70000    234.92212   -453.29672    216156.16    -20193.88    1488.0487   -21681.928   -1274.7267    360.96593    39.441009    39.251348    23.709515 
   70200    234.81299   -373.96561    216156.16   -20167.017    1487.3574   -21654.374   -886.81728    361.45112    39.442612    39.251707    23.701966 
   70400    242.82015   -336.74414    216156.16   -20121.186    1538.0766   -21659.263   -761.30824    364.26458     39.44086    39.253249    23.684884 
   70600    230.76224    -310.4749    216156.16   -20207.674    1461.6991   -21669.374   -679.22439    367.19927    39.441299    39.253332    23.682995 
   70800     233.8802   -354.25987    216156.16    -20213.89     1481.449   -21695.339   -828.32869    368.89127    39.441497    39.253145    23.696771 
   71000    227.41364   -403.86834    216156.16   -20238.001    1440.4883   -21678.489   -1051.3609    369.86657    39.441211    39.252436    23.710384 
   71200    235.57281   -483.66868    216156.16   -20230.153    1492.1704   -21722.323   -1404.3381    371.94402    39.440623    39.252959    23.703208 
   71400    235.98519   -403.15889    216156.16    -20242.17    1494.7824   -21736.952   -1063.5211    370.82655    39.441174     39.25491      23.6997 
   71600    233.81651   -288.25393    216156.16   -20186.655    1481.0455   -21667.701    -577.7718    369.99996    39.439785    39.259006    23.720505 
   71800    232.92096   -421.45366    216156.16   -20290.741    1475.3729   -21766.114   -1110.9947    370.28472    39.440811    39.256439    23.705782 
   72000    230.79058   -432.57829    216156.16   -20270.231    1461.8786    -21732.11   -1177.2338    371.06746    39.438751    39.260127    23.715693 
   72200    236.48221   -372.98435    216156.16    -20100.59    1497.9307   -21598.521   -942.65962    373.21655    39.439478    39.263012    23.717121 
   72400    230.52293   -354.55316    216156.16   -20207.118    1460.1833   -21667.302   -805.74536    375.63377    39.439526    39.264251    23.727728 
   72600    243.94011   -475.25648    216156.16    -20232.47    1545.1707   -21777.641   -1378.8815     377.0667    39.439512    39.264682     23.73239 
   72800     232.4808   -543.73583    216156.16   -20271.993    1472.5849   -21744.578   -1642.9263    376.47541    39.437192     39.26562    23.727553 
   73000    235.68842    -283.6432    216156.16   -20304.779    1492.9026   -21797.682   -534.20434    378.34373    39.434452    39.265934    23.698828 
   73200    239.13397    -233.7627    216156.16   -20217.882    1514.7275    -21732.61   -274.43096    377.49207      39.4327    39.267418    23.689853 
   73400    231.42626    -313.8199    216156.16   -20210.896    1465.9052   -21676.801   -682.49335    376.95703    39.432088    39.267951    23.696323 
   73600    240.48653    -335.7989    216156.16    -20218.14    1523.2949   -21741.435   -779.25861    377.53545    39.429278    39.268585    23.693633 
   73800    226.29478   -411.60869    216156.16   -20332.547    1433.4012   -21765.948   -1091.6331    378.67427    39.426624    39.267544    23.715092 
   74000    228.73191   -481.21944    216156.16   -20322.709    1448.8386   -21771.548   -1401.1495    379.13139    39.425521    39.269584    23.717723 
   74200    234.27203   -277.62747    216156.16   -20251.491    1483.9309   -21735.422   -516.35218    380.29272    39.425652    39.270026    23.692615 
   74400     235.5525   -292.88956    216156.16   -20231.101    1492.0416   -21723.143   -557.67797    381.93016    39.423784    39.267014    23.691327 
   74600    233.96398    -308.4235    216156.16   -20285.618    1481.9796   -21767.598   -677.60586    382.53233    39.424456    39.269269    23.676681 
   74800     230.3943   -372.92829    216156.16   -20269.473    1459.3685   -21728.842   -914.42529    381.08122    39.424492    39.271093    23.660295 
   75000     229.7116   -405.09641    216156.16   -20279.595    1455.0442   -21734.639   -1080.8966    381.74996    39.424393    39.270912    23.667419 
   75200    235.12743   -370.32052    216156.16   -20191.954    1489.3492   -21681.303   -915.84489    382.34631    39.421658    39.272074    23.664308 
   75400    229.63914   -485.93407    216156.16   -20265.006    1454.5852   -21719.591   -1368.4669    384.93052    39.420289     39.27026    23.700287 
   75600     234.9382   -437.28062    216156.16   -20222.944    1488.1506   -21711.094   -1228.4415    383.42124    39.420461    39.268297    23.692149 
   75800    234.23874   -420.97433    216156.16   -20141.333      1483.72   -21625.053    -1120.639    383.81096    39.419724    39.267411    23.705615 
   76000    238.08733   -328.12315    216156.16    -20130.59    1508.0979   -21638.688   -717.91786    385.22605    39.418577    39.268002    23.707858 
   76200     228.8939   -225.99693    216156.16   -20240.833    1449.8646   -21690.698   -306.30146    384.17199    39.416933    39.269468    23.681755 
   76400     235.4057   -283.76694    216156.16   -20234.457    1491.1118   -21725.568   -548.70074    384.56106    39.419074    39.268039    23.684453 
   76600    237.42827   -371.83129    216156.16   -20216.407    1503.9232    -21720.33   -930.60064    385.59436     39.41973    39.268665    23.707134 
   76800    234.00856    -480.1895    216156.16   -20253.676     1482.262   -21735.938   -1393.6234    386.40161    39.418701     39.26765    23.711924 
   77000    233.53107   -395.70321    216156.16   -20209.755    1479.2375   -21688.993   -1058.9646    387.90306    39.418992     39.26849    23.679789 
   77200    238.16398    -460.8943    216156.16   -20165.271    1508.5834   -21673.854   -1337.5297    388.91261    39.419618    39.270139    23.690104 
   77400    233.69879   -286.90821    216156.16   -20158.785    1480.2998   -21639.084   -538.78809    389.00667    39.421771    39.270189    23.672004 
   77600    233.71447   -323.06118    216156.16   -20219.706    1480.3992   -21700.105   -728.91516    390.23279    39.422936    39.269941    23.660023 
   77800    239.79824   -463.24289    216156.16     -20174.6    1518.9351   -21693.535   -1299.6703    390.65389    39.421653    39.269931    23.632449 
   78000    231.10741   -421.37311    216156.16   -20219.487    1463.8855   -21683.372   -1148.7079     390.3393    39.420476    39.269029    23.646411 
   78200    237.27227   -544.65931    216156.16    -20128.33    1502.9351   -21631.265   -1629.2189    390.73463    39.420943    39.271645    23.653961 
   78400    227.87308   -309.92426    216156.16   -20135.118    1443.3986   -21578.517   -688.16417    390.69987    39.422221    39.270107     23.66135 
   78600    239.10331   -218.87833    216156.16   -20147.855    1514.5333   -21662.389   -278.69637     391.8288    39.422269     39.27151    23.660551 
   78800     232.6471   -443.40399    216156.16   -20145.431    1473.6383   -21619.069   -1253.7702    393.88457    39.422523    39.271583    23.671217 
   79000     238.4796   -463.59816    216156.16   -20114.922    1510.5826   -21625.504   -1320.0175    393.96971     39.42403    39.268202    23.671485 
   79200    241.18243    -415.0931    216156.16   -20120.735    1527.7029   -21648.437    -1111.715    395.92503    39.423893    39.268596    23.684326 
   79400    245.95598   -443.06905    216156.16   -20118.689    1557.9396   -21676.629   -1175.3843    396.88257    39.423506    39.266814    23.676091 
   79600    232.10972   -181.39078    216156.16   -20224.555    1470.2343   -21694.789   -124.08187    396.70682    39.423307    39.266488    23.679611 
   79800    230.43924   -288.22201    216156.16   -20214.243    1459.6532   -21673.896   -595.42391    398.29926    39.423837    39.262907    23.698891 
   80000    233.28427   -516.81689    216156.16   -20224.581    1477.6742   -21702.255   -1509.4658     399.3463    39.427686    39.262098    23.707667 
   80200    238.42132   -350.90908    216156.16   -20225.153    1510.2134   -21735.367   -839.57566    401.86744    39.428689    39.259395    23.720417 
   80400    236.37445   -363.79233    216156.16   -20239.004    1497.2481   -21736.252   -878.03434    402.10496    39.428731    39.259385    23.716147 
   80600    236.12032   -451.80774    216156.16   -20206.946    1495.6384   -21702.584   -1239.3831    404.45764    39.429544    39.259045     23.72096 
   80800    238.25961   -352.44117    216156.16   -20160.751    1509.1891    -21669.94   -869.39026    405.61275     39.43036    39.259202    23.730187 
   81000    237.47474    -115.5242    216156.16   -20174.746    1504.2176   -21678.963    192.70959    406.92046    39.430531    39.258213    23.720134 
   81200    238.09592   -581.05993    216156.16    -20154.21    1508.1522   -21662.362   -1823.0239    408.24769     39.43136    39.256178    23.721946 
   81400    242.10053   -461.54913    216156.16   -20152.515    1533.5183   -21686.033   -1310.5503    408.46051    39.430902    39.254039    23.741348 
   81600    233.52108   -315.00036    216156.16   -20214.219    1479.1742   -21693.394   -677.57434    408.06481     39.43308      39.2533    23.740959 
   81800    230.62164   -327.42389    216156.16   -20272.066    1460.8085   -21732.874   -769.91297    408.15492    39.433693    39.253379    23.736669 
   82000    237.73285   -361.13774    216156.16    -20192.38    1505.8525   -21698.232   -883.53811    408.32553    39.433623    39.254155    23.763349 
   82200    241.15041   -370.52111    216156.16   -20129.279    1527.5001   -21656.779   -898.45477    408.08116    39.432409    39.253299    23.773412 
   82400    238.78229   -176.64021    216156.16   -20195.244    1512.4999   -21707.744   -28.913889    409.30085    39.432038    39.253316    23.799155 
   82600     241.4519   -370.20454    216156.16   -20127.559    1529.4098   -21656.969   -894.27655    410.73994    39.432503     39.25238    23.814451 
   82800    238.00134   -374.62912    216156.16   -20191.849    1507.5532   -21699.402   -948.90788    410.56365    39.434893    39.253837    23.814228 
   83000     244.0019   -377.57657    216156.16   -20134.366     1545.562   -21679.928   -940.92429    412.46043    39.433194     39.25755    23.812043 
   83200    232.38522   -459.20385    216156.16   -20155.796    1471.9794   -21627.775   -1304.9184    414.61422    39.435006    39.258041    23.818781 
   83400    233.90305   -459.68919    216156.16   -20195.982    1481.5937   -21677.576   -1287.8255    413.10817    39.435753    39.257637    23.816693 
   83600    231.09028   -443.53531    216156.16   -20298.808     1463.777   -21762.585   -1246.9669     414.7055    39.433657    39.258286    23.795216 
   83800    233.86547   -460.87085    216156.16   -20268.293    1481.3557   -21749.648    -1336.372    416.14236     39.43323    39.259407    23.804372 
   84000    228.10618   -422.89531    216156.16   -20244.145     1444.875   -21689.021   -1155.6939    416.26632    39.432737    39.259082    23.803221 
   84200    230.73002   -296.35613    216156.16   -20217.214     1461.495   -21678.709   -590.26619    416.11803    39.434028    39.257409    23.798664 
   84400    228.50646   -453.74665    216156.16   -20227.308    1447.4105   -21674.718   -1268.5569    417.56452    39.434494    39.259015    23.830151 
   84600    236.18901   -279.04654    216156.16   -20197.703    1496.0735   -21693.777   -562.11402    418.82595    39.434966    39.259197    23.836832 
   84800    235.96642   -364.47681    216156.16   -20242.259    1494.6635   -21736.922   -869.71017    420.73286    39.434838    39.260943    23.851521 
   85000    233.52686   -377.64383    216156.16    -20206.05    1479.2108   -21685.261   -927.97755     421.3133    39.434099    39.261749    23.859392 
   85200    228.51431   -469.16875    216156.16   -20220.661    1447.4602   -21668.121   -1317.0133    420.90337    39.431931    39.263256    23.872526 
   85400    224.09251   -439.08588    216156.16   -20271.282    1419.4515   -21690.734    -1193.612    423.36193    39.430194    39.263979    23.877632 
   85600    236.78497   -326.78187    216156.16    -20265.22    1499.8484   -21765.068   -681.48339    423.78148    39.428799    39.266758    23.873066 
   85800    238.84351    -441.2698    216156.16   -20150.085    1512.8877   -21662.972   -1216.1438    424.52421    39.428537    39.267216    23.861791 
   86000    236.77341   -362.34871    216156.16   -20189.032    1499.7752   -21688.807   -915.91721    426.64197    39.428616    39.266818    23.839859 
   86200    233.46748   -425.69854    216156.16   -20199.865    1478.8347     -21678.7   -1142.8757    427.16076    39.426911      39.2674    23.820653 
   86400    226.58207   -581.75285    216156.16   -20266.313     1435.221   -21701.534   -1749.8687    428.33296    39.425884    39.268464    23.804469 
   86600    236.89861   -361.37222    216156.16   -20204.426    1500.5682   -21704.995   -904.24079    429.86523     39.42445     39.26847    23.805501 
   86800    232.34654    -276.2335    216156.16   -20265.901    1471.7344   -21737.635   -485.89817    428.98284    39.423833    39.267856    23.828948 
   87000    236.00939   -331.45536    216156.16   -20225.187    1494.9357   -21720.123   -737.41954     431.2093    39.422307    39.267526     23.84125 
   87200    236.06145   -465.42011    216156.16   -20191.376    1495.2655   -21686.642   -1359.4648    432.28569    39.421846     39.27082    23.825268 
   87400    229.91294   -566.28674    216156.16   -20283.556    1456.3194   -21739.876    -1721.092    433.46416    39.420908    39.271858    23.822478 
   87600    236.04835   -366.71494    216156.16   -20172.265    1495.1825   -21667.448   -901.71584    434.31945    39.420694    39.273122    23.829645 
   87800     232.1755    -320.3312    216156.16   -20204.615     1470.651   -21675.267   -708.08405     434.7982    39.421547    39.272931    23.843742 
   88000    233.65016   -399.65198    216156.16   -20208.224    1479.9918   -21688.216   -1039.8202    435.42268     39.42256    39.272598    23.839865 
   88200    229.65876   -514.24306    216156.16   -20275.384    1454.7094   -21730.094   -1494.4515    437.11918    39.421627    39.272173    23.828881 
   88400    238.71287   -482.67811    216156.16   -20209.168    1512.0601   -21721.228   -1392.1194    437.15795    39.420583    39.271531    23.813982 
   88600    236.42502   -641.35459    216156.16   -20214.357    1497.5684   -21711.925    -2044.782    437.26521    39.419464    39.271028    23.776782 
   88800    233.86404   -426.09959    216156.16   -20218.899    1481.3466   -21700.246   -1156.3529    437.92236     39.41931    39.268894    23.759057 
   89000    232.17129   -458.91669    216156.16   -20206.307    1470.6244   -21676.932   -1301.9392     439.5422    39.418743    39.269278    23.799215 
   89200    236.13142   -367.34372    216156.16   -20194.098    1495.7087   -21689.807   -888.90151    440.23993    39.419159    39.270518     23.78042 
   89400    234.35904   -405.70349    216156.16   -20220.274    1484.4821   -21704.756   -1089.1147    439.89602    39.420225    39.271071    23.778193 
   89600    229.17046   -315.44912    216156.16   -20321.747    1451.6164   -21773.363   -738.83713    442.20297    39.419668    39.271031    23.793104 
   89800    233.44766   -469.27727    216156.16   -20213.445    1478.7092   -21692.154   -1338.5372    443.99322     39.42068    39.272364    23.809431 
   90000    234.07512   -330.54235    216156.16   -20221.489    1482.6836   -21704.173   -742.16779    443.23105    39.422031    39.271136    23.808299 
   90200    233.70893   -426.31432    216156.16   -20244.051    1480.3641   -21724.415   -1167.7644    444.78286    39.422169     39.27183    23.811794 
   90400    234.10495   -532.86226    216156.16    -20160.87    1482.8726   -21643.743   -1600.3531    444.76424    39.421099    39.274239    23.813757 
   90600    236.51297   -344.03346    216156.16   -20149.697    1498.1255   -21647.823   -833.48256    444.07174    39.419972    39.273415    23.815095 
   90800    237.42989   -446.74972    216156.16   -20145.749    1503.9335   -21649.683   -1240.4619    447.29655    39.419129    39.272885    23.824552 
   91000    234.86601   -416.59647    216156.16   -20214.445    1487.6933   -21702.138   -1119.0593    446.28171    39.418751    39.274292    23.830244 
   91200     220.6813   -501.55421    216156.16   -20297.912    1397.8442   -21695.756   -1527.8614    447.65005     39.41978    39.275755     23.82312 
   91400    230.19819   -331.80568    216156.16   -20206.016    1458.1263   -21664.143   -762.54517    446.62847    39.418387    39.275239     23.80516 
   91600    237.01199    -311.3134    216156.16   -20090.622    1501.2864   -21591.908   -683.50714    446.68251    39.418324    39.274472    23.785616 
   91800    234.42745    -304.6629    216156.16   -20123.323    1484.9154   -21608.239   -646.35314    447.56822    39.418774     39.27362    23.792235 
   92000    233.60973    -303.1203    216156.16   -20135.637    1479.7357   -21615.372    -667.2469    449.97008    39.419026     39.27125     23.80005 
   92200    232.39667   -232.02986    216156.16   -20150.995     1472.052   -21623.047   -362.91312     449.3647    39.420113    39.269894    23.787898 
   92400     231.8453   -413.47682    216156.16   -20127.632    1468.5595   -21596.192    -1090.859    450.85498    39.417928     39.26872    23.805677 
   92600    236.32481   -509.87278    216156.16   -20093.491    1496.9337   -21590.425   -1542.0097    454.55003    39.418719    39.269145    23.836324 
   92800    229.56368   -366.03905    216156.16   -20177.149    1454.1072   -21631.257   -943.36189    453.54829    39.418369    39.271576    23.816705 
   93000    230.88957   -395.87569    216156.16   -20180.604    1462.5056    -21643.11   -1030.3225    452.77193    39.416763    39.269725    23.809883 
   93200    232.21322   -402.60984    216156.16   -20157.396    1470.8899   -21628.286   -1045.4557    452.85548    39.417777    39.270837    23.818287 
   93400     227.9668   -387.06678    216156.16   -20226.779    1443.9922   -21670.772   -986.66966    454.06818    39.418201    39.268849    23.784847 
   93600    234.51305   -359.94924    216156.16   -20172.388    1485.4576   -21657.845   -893.59897    454.85627    39.417962    39.269476    23.789296 
   93800    226.57496    -371.2428    216156.16   -20224.276    1435.1759   -21659.452   -953.78626    455.69369    39.417907    39.270137    23.793316 
   94000     232.9816   -399.86608    216156.16   -20220.572     1475.757   -21696.329   -1096.4889    457.06577    39.418173    39.271227    23.804673 
   94200    241.09463   -324.45735    216156.16   -20130.112    1527.1468   -21657.259   -698.15933    458.86156    39.418958    39.272703    23.797626 
   94400      229.444   -466.96251    216156.16   -20180.891    1453.3491    -21634.24   -1305.6742    457.24896    39.418859    39.273145     23.78129 
   94600    235.36254   -494.41533    216156.16   -20212.569    1490.8384   -21703.407   -1475.7679    459.25983    39.419613    39.271942    23.790364 
   94800    231.04658   -331.11069    216156.16   -20220.694    1463.5002   -21684.194   -769.04866    460.77996    39.420375    39.271821    23.794049 
   95000    233.01655   -496.67227    216156.16   -20253.028    1475.9784   -21729.007   -1463.1219    462.76148    39.418547    39.273315     23.78325 
   95200    230.74746   -324.89843    216156.16   -20247.313    1461.6055   -21708.918   -708.53465    464.18721    39.418477    39.271921    23.774186 
   95400    235.27526   -463.78848    216156.16   -20232.972    1490.2856   -21723.258     -1310.32    464.36266    39.417108    39.274508    23.755996 
   95600      242.208   -372.68716    216156.16   -20216.514    1534.1991   -21750.713   -892.75784    465.87853    39.416228    39.276217    23.749276 
   95800    234.18073   -358.97363    216156.16   -20195.821    1483.3525   -21679.174   -889.12148     466.6815    39.416322    39.276065    23.742135 
   96000    240.15188   -436.79179    216156.16     -20162.6    1521.1751   -21683.775    -1190.391    468.66943    39.418021     39.27555    23.739368 
   96200    240.28055   -506.50245    216156.16   -20107.561    1521.9902   -21629.551   -1505.5204    467.85238    39.419401    39.277094     23.72804 
   96400     234.7063   -498.88234    216156.16   -20177.976    1486.6816   -21664.658   -1452.5603    466.31122    39.419437    39.279485    23.699801 
   96600    229.08181   -310.69909    216156.16   -20191.853    1451.0549   -21642.908   -682.81511    467.19522    39.419803    39.281171    23.698751 
   96800    236.57166   -398.13327    216156.16   -20128.848    1498.4973   -21627.345   -1070.6585    467.23757    39.420686    39.280874     23.70208 
   97000      231.262   -497.03072    216156.16   -20176.495    1464.8647    -21641.36   -1459.3691    468.13783    39.419807    39.279778    23.695059 
   97200      229.433   -446.46476    216156.16   -20145.635    1453.2794   -21598.914   -1280.5763    466.39378    39.420079     39.27998    23.669691 
   97400    232.73742   -371.19792    216156.16   -20120.324    1474.2104   -21594.534    -956.3682     466.9207    39.423136    39.279869    23.652616 
   97600    234.86065   -387.78606    216156.16   -20095.575    1487.6593   -21583.235    -1044.994    466.53444    39.424565    39.280161    23.626673 
   97800    238.21917   -324.75326    216156.16   -20118.791    1508.9329   -21627.724   -744.73641    467.46048    39.423394    39.280559    23.645586 
   98000    229.97725   -363.04173    216156.16   -20153.006    1456.7268   -21609.733   -891.05651    468.28229    39.425455    39.282929    23.656589 
   98200    231.53808   -463.20992    216156.16   -20140.149    1466.6135   -21606.763   -1383.4404     468.9673    39.423908    39.283657    23.653744 
   98400    227.67925   -461.10812    216156.16   -20108.525    1442.1708   -21550.696   -1295.5795    471.98844    39.422805     39.28377    23.664268 
   98600    241.08941   -303.85528    216156.16   -20114.047    1527.1137    -21641.16   -643.04651    475.88592    39.423228      39.2832    23.675761 
   98800    239.87944    -447.8774    216156.16   -20124.867    1519.4495   -21644.316   -1268.4105    477.39274    39.425663    39.284572    23.684052 
   99000    229.41746   -548.84735    216156.16   -20174.116     1453.181   -21627.297   -1683.6782    478.36531    39.427278    39.282865    23.664783 
   99200    238.91545   -561.68151    216156.16   -20161.378    1513.3434   -21674.721    -1749.867    479.21859    39.426566      39.2815    23.674091 
   99400    235.16367   -446.96983    216156.16   -20125.901    1489.5787   -21615.479   -1258.2974    478.11776    39.428002    39.281414    23.675892 
   99600    232.91091   -378.25127    216156.16   -20142.127    1475.3093   -21617.437   -977.98181    481.91543     39.42924    39.282272    23.671377 
   99800    239.01749   -291.72786    216156.16    -20150.45    1513.9897    -21664.44      -595.65    483.29063    39.429177    39.282063    23.673176 
  100000    235.40188   -415.93107    216156.16   -20150.085    1491.0876   -21641.173   -1122.2733    484.24944    39.430012    39.283521    23.671893 
  100200     229.6914   -431.86025    216156.16   -20213.835    1454.9162   -21668.751    -1204.556    484.48394    39.432846    39.284958     23.68721 
  100400    239.39662   -365.09049    216156.16   -20119.334    1516.3912   -21635.725   -924.31722    485.57301    39.432383     39.28532    23.697128 
  100600    236.28436   -447.08004    216156.16   -20161.512    1496.6774   -21658.189   -1241.5261    486.33718     39.43031    39.284195     23.69444 
  100800    236.68696   -390.68905    216156.16    -20205.23    1499.2276   -21704.458    -972.5345    486.98346    39.429552     39.28452    23.714998 
[...]
 3975800    226.81798   -271.63934    216156.16   -22096.841    1436.7153   -23533.556   -475.17544     6271.525    39.587732    40.032824    23.610419 
 3976000    221.58572   -99.218489    216156.16    -22126.54     1403.573   -23530.113    288.77339    6271.2066    39.588389    40.033098    23.608632 
 3976200    222.15671   -240.62775    216156.16   -22135.548    1407.1898   -23542.738   -315.98012    6271.5333    39.588217    40.033405    23.613354 
 3976400     220.9655   -245.86323    216156.16    -22141.58    1399.6444   -23541.224   -379.17572    6271.0733    39.588713    40.034184    23.605852 
 3976600    223.09445   -169.93747    216156.16   -22139.586    1413.1296   -23552.715   -78.936726    6272.2643    39.588798    40.034065    23.608662 
 3976800    229.06902    -156.3841    216156.16   -22083.553    1450.9739   -23534.527     7.521064     6273.604    39.587663    40.035089    23.609288 
 3977000    221.50434   -235.37657    216156.16   -22174.049    1403.0575   -23577.106    -320.7919    6271.6728    39.588007    40.035244    23.608257 
 3977200    225.56699   -181.15537    216156.16   -22089.601    1428.7912   -23518.392   -74.074734     6271.174    39.587478    40.036126    23.613089 
 3977400    222.96941   -170.85014    216156.16   -22097.221    1412.3376   -23509.558   -24.637884    6269.5514     39.58769    40.036997    23.603121 
 3977600    222.04571   -256.16335    216156.16   -22130.134    1406.4867   -23536.621   -438.84189    6271.9214    39.587499    40.037354     23.59449 
 3977800    223.93619   -203.32116    216156.16   -22130.796    1418.4614   -23549.257    -210.4105    6271.7931    39.588603    40.036131    23.594161 
 3978000    223.37563   -206.19202    216156.16   -22157.231    1414.9107   -23572.142   -226.97711    6269.8915    39.587495    40.036227    23.597848 
 3978200    224.94441   -137.35035    216156.16   -22090.225    1424.8477   -23515.072    131.12299    6269.8976    39.586823      40.0373     23.59515 
 3978400    220.77054    -226.2685    216156.16   -22157.259    1398.4095   -23555.668   -283.35215    6271.9015    39.586723    40.037602    23.594801 
 3978600    222.99301   -297.90234    216156.16   -22116.977    1412.4871   -23529.464   -603.35934    6271.7927     39.58588    40.038137     23.58797 
 3978800     228.5342   -264.67517    216156.16   -22088.183    1447.5862   -23535.769   -450.13864    6272.9103    39.585546    40.040022     23.58909 
 3979000    217.70543    -181.1506    216156.16   -22101.875    1378.9944   -23480.869   -66.786119    6272.2525    39.585245    40.040966    23.589976 
 3979200    227.90045   -126.46397    216156.16   -22138.692    1443.5719   -23582.264    157.03215    6273.6491    39.584416    40.041316      23.5899 
 3979400    222.58367    -194.9201    216156.16   -22104.369    1409.8942   -23514.264   -162.42985    6272.0072    39.583495     40.04169    23.591464 
 3979600    220.82841   -303.84158    216156.16   -22130.582    1398.7761   -23529.358   -685.75077    6273.7215    39.583413    40.042488    23.596628 
 3979800    221.15109   -252.58839    216156.16   -22125.171    1400.8199   -23525.991   -393.85809    6273.7243    39.582459    40.042215    23.598856 
 3980000    228.29953   -228.26129    216156.16   -22131.276    1446.0997   -23577.375     -299.131    6271.5537     39.58215    40.042794    23.593423 
 3980200     228.0947   -159.82128    216156.16   -22135.355    1444.8023   -23580.157    13.586527     6271.562    39.582513    40.043511    23.594299 
 3980400    226.73972   -144.32382    216156.16   -22104.813    1436.2196   -23541.033    28.657805    6271.9381    39.581855    40.044399     23.59214 
 3980600     225.4708   -243.31789    216156.16   -22050.568     1428.182    -23478.75   -358.84719    6272.8683    39.581442    40.044366    23.595074 
 3980800    226.23574   -241.44401    216156.16   -22091.111    1433.0273   -23524.138   -343.08994    6273.0714    39.580598    40.044958    23.595918 
 3981000    224.34361   -153.54027    216156.16    -22109.63    1421.0421   -23530.672    70.229565    6272.2448    39.580644    40.045743    23.597876 
 3981200    230.04287   -115.39159    216156.16   -22108.493    1457.1425   -23565.635    228.05317    6272.5555    39.579992    40.046109    23.610178 
 3981400    225.88957   -303.48218    216156.16   -22082.831    1430.8345   -23513.665   -573.76353    6272.2251    39.579981     40.04649    23.606128 
 3981600    221.84186   -243.42796    216156.16   -22135.603    1405.1954   -23540.799   -340.92071    6274.3582    39.579717    40.046459    23.613019 
 3981800    227.48665    -280.1272    216156.16   -22113.516    1440.9508   -23554.467   -535.66574    6275.9478    39.579893    40.046656    23.611019 
 3982000    219.66362   -177.61036    216156.16   -22156.662     1391.398    -23548.06    -70.27517    6275.7745     39.57975    40.046462    23.609143 
 3982200    224.59625   -128.49806    216156.16   -22206.587    1422.6424    -23629.23    102.50732    6273.0282    39.580553    40.046694    23.603718 
 3982400     225.1609   -153.75733    216156.16   -22129.938    1426.2189   -23556.157   -4.6412507    6273.7751     39.58156    40.047439    23.610614 
 3982600    220.74149   -120.21127    216156.16   -22128.818    1398.2254   -23527.043    158.62084    6274.7687    39.582422    40.047693    23.612909 
 3982800     222.9276   -211.19695    216156.16   -22072.222    1412.0727   -23484.295   -204.66198    6274.3525      39.5822    40.047065    23.603924 
 3983000    231.98146     -305.024    216156.16    -22050.87    1469.4219   -23520.292   -652.93278    6274.1579    39.581139     40.04708    23.605324 
 3983200    226.15686   -187.98087    216156.16   -22076.806    1432.5276   -23509.334   -112.61237    6274.3434    39.581709    40.047174    23.607687 
 3983400    230.08698    -124.5262    216156.16     -22046.1    1457.4219   -23503.522     158.2382    6274.7322    39.581596    40.046722    23.605247 
 3983600    226.82232   -178.80068    216156.16   -22121.462    1436.7428   -23558.205   -120.07977    6277.2764    39.583392     40.04679    23.606653 
 3983800    223.30226   -255.78486    216156.16   -22110.966    1414.4459   -23525.412    -389.7592    6276.4864    39.584479    40.047434    23.604141 
 3984000    224.90784   -279.64057    216156.16   -22107.809    1424.6161   -23532.425   -504.19077    6276.1088    39.583689    40.047339    23.602856 
 3984200     232.1179    -136.4711    216156.16    -22088.85    1470.2862   -23559.136    75.997752    6273.7102    39.583929    40.046818    23.602433 
 3984400    220.86001   -161.03491    216156.16   -22137.162    1398.9762   -23536.138    31.275165    6273.4001    39.583462    40.046914    23.608335 
 3984600    216.20974   -247.26845    216156.16   -22135.856    1369.5203   -23505.376   -373.85197    6275.5918    39.582811    40.046686    23.610145 
 3984800    226.79408   -201.73691    216156.16   -22109.407    1436.5639   -23545.971   -170.32744    6275.1432    39.582822    40.047338    23.609869 
 3985000    215.91246   -143.18413    216156.16    -22152.81    1367.6373   -23520.447    88.479742    6274.9988    39.582846    40.048106    23.607915 
 3985200     230.0157   -97.612903    216156.16   -22115.403    1456.9703   -23572.373    297.23119    6272.8229    39.583478     40.04791    23.610918 
 3985400    221.42308   -180.36099    216156.16   -22125.853    1402.5428   -23528.396   -91.758457    6274.5697     39.58367    40.047634    23.619276 
 3985600    223.08075   -185.50474    216156.16   -22082.601    1413.0428   -23495.644   -128.90219    6275.1816    39.583288    40.047698    23.616259 
 3985800    220.12528   -258.37351    216156.16   -22103.156    1394.3222   -23497.478   -403.31573    6275.3863    39.584398    40.047904    23.614725 
 3986000    236.39301   -157.77407    216156.16   -22028.187    1497.3657   -23525.553    15.348414    6275.1739    39.585445    40.048233    23.614124 
 3986200    228.33336   -178.60983    216156.16   -22059.767    1446.3141   -23506.081   -122.32263     6275.122    39.585167    40.048418    23.610097 
 3986400     226.1131   -145.44544    216156.16   -22152.607    1432.2505   -23584.857    42.763007    6273.7957    39.586621    40.048364    23.611607 
 3986600    228.08541   -216.21786    216156.16   -22120.681    1444.7435   -23565.425   -231.45248      6276.13    39.586975    40.047735    23.608646 
 3986800    223.51566   -205.65284    216156.16   -22125.068    1415.7977   -23540.865   -173.90959    6275.8361    39.587049    40.048273    23.609487 
 3987000    227.48828   -176.46794    216156.16   -22098.172    1440.9611   -23539.134    8.4883514    6273.9685    39.587231    40.048985    23.608328 
 3987200    218.65101   -185.04443    216156.16   -22190.858    1384.9839   -23575.841   -70.696412    6272.7868    39.587367     40.04884    23.614297 
 3987400    223.92701    -120.7118    216156.16   -22147.956    1418.4032   -23566.359    204.32675    6273.8737    39.588276    40.049003    23.616459 
 3987600     228.7657   -98.965697    216156.16   -22085.342    1449.0526   -23534.394    258.44311    6274.5269    39.588537     40.04912    23.614497 
 3987800    220.10398   -239.26213    216156.16   -22133.083    1394.1874   -23527.271    -363.7817    6275.5874    39.588454    40.048277    23.614428 
 3988000    229.49628   -124.23392    216156.16   -22085.234    1453.6803   -23538.914    148.28987    6275.0953    39.588387      40.0493    23.614525 
 3988200    225.54841   -189.22085    216156.16   -22121.722    1428.6736   -23550.396   -123.85161    6275.3101    39.589215    40.049349    23.615037 
 3988400    226.91494   -243.32788    216156.16   -22103.751    1437.3294    -23541.08   -304.61442    6275.5298    39.589847    40.050308    23.621312 
 3988600    224.85203   -224.96693    216156.16   -22150.508    1424.2625   -23574.771   -281.51821    6275.4882    39.591137    40.050827    23.618464 
 3988800    218.51982   -206.71477    216156.16   -22152.813    1384.1529   -23536.966   -171.69193    6274.6148    39.591438    40.050588    23.621202 
 3989000    226.96156   -140.26535    216156.16   -22079.172    1437.6247   -23516.796    88.518487    6275.7909    39.591146    40.050434     23.61945 
 3989200    226.14244   -165.33424    216156.16    -22110.86    1432.4363   -23543.296   -39.318931    6275.7698    39.591096    40.051193      23.6213 
 3989400    222.33659   -243.46107    216156.16   -22142.606    1408.3291   -23550.935   -364.63228    6272.7593    39.590295    40.052424    23.622779 
 3989600    228.76604    -213.4583    216156.16   -22056.459    1449.0547   -23505.514   -239.75535    6274.2799    39.590679    40.053484    23.620109 
 3989800    227.98297   -121.89827    216156.16   -22092.899    1444.0946   -23536.994    218.25025    6275.0626    39.590268     40.05422    23.619854 
 3990000    224.75948   -169.60076    216156.16    -22144.61    1423.6763   -23568.287   -90.296792    6275.7138     39.59192    40.055141    23.623164 
 3990200    224.72586   -170.87168    216156.16   -22134.652    1423.4633   -23558.115   -50.826519    6274.2666    39.591795    40.055955    23.614803 
 3990400    223.06344   -285.97195    216156.16   -22095.062    1412.9332   -23507.995   -553.17092    6273.9054    39.591794    40.056758    23.609695 
 3990600    218.22521   -137.03614    216156.16   -22139.232    1382.2868   -23521.519    55.787244    6273.5709    39.591673    40.057949     23.61157 
 3990800    221.57509   -213.72464    216156.16   -22121.592    1403.5056   -23525.098   -240.15766    6273.2404    39.592244    40.059234    23.613199 
 3991000    228.33033   -213.58197    216156.16    -22087.24    1446.2948   -23533.535   -248.00671    6273.2735    39.592524    40.059369    23.612762 
 3991200    223.25853    -138.9611    216156.16   -22065.042    1414.1689    -23479.21    70.848254    6273.9666    39.592534    40.059269    23.616951 
 3991400    227.02011   -133.44912    216156.16   -22062.482    1437.9956   -23500.478    110.76126    6273.6197    39.592451    40.060381    23.613019 
 3991600    226.92977   -269.65862    216156.16   -22110.097    1437.4234   -23547.521   -494.01823    6274.8492    39.593734     40.06155    23.612255 
 3991800    217.22776   -186.26006    216156.16   -22183.478    1375.9687   -23559.447   -97.467679     6274.164     39.59364    40.062002    23.616017 
 3992000    220.76031   -238.22452    216156.16   -22132.315    1398.3447    -23530.66    -334.7388    6274.8661    39.593399    40.062745    23.613875 
 3992200     223.4865   -177.64991    216156.16   -22116.687     1415.613     -23532.3    -56.79855    6274.2202    39.593951    40.063523     23.61581 
 3992400    230.81365   -190.35953    216156.16   -22114.075    1462.0247     -23576.1   -112.57859    6276.5891    39.593382     40.06411    23.607958 
 3992600    228.32014   -192.04301    216156.16    -22116.68    1446.2303   -23562.911   -121.74349    6273.3162    39.592794     40.06386    23.613036 
 3992800    227.62142   -190.81569    216156.16   -22105.083    1441.8045   -23546.888   -112.16793    6273.5909    39.592947    40.062874    23.619494 
 3993000    222.04974   -118.45767    216156.16   -22187.449    1406.5122   -23593.961    181.50594    6274.2313    39.592705    40.063457    23.617134 
 3993200    218.78134   -243.13705    216156.16   -22099.758    1385.8094   -23485.567   -347.62224     6272.442     39.59247    40.063854    23.623833 
 3993400    224.81374   -196.42089    216156.16   -22073.708      1424.02   -23497.728   -153.69332    6273.1021    39.592677    40.064875    23.617376 
 3993600    229.07963   -154.51215    216156.16   -22093.925    1451.0411   -23544.966    12.226501    6275.2444    39.592878    40.064985    23.611126 
 3993800    226.82674    -152.0886    216156.16   -22111.083    1436.7708   -23547.854    20.605045     6274.474     39.59412    40.065905    23.616028 
 3994000    223.15647    -111.4043    216156.16   -22121.194    1413.5225   -23534.716    215.50505    6273.0718    39.594567      40.0676    23.614906 
 3994200    222.19438   -211.58979    216156.16   -22140.115    1407.4284   -23547.544    -184.1283    6274.9859    39.594045    40.068872    23.622458 
 3994400    225.77416    -154.7742    216156.16   -22119.874    1430.1035   -23549.978    40.228958    6274.8341    39.594191    40.070312    23.615531 
 3994600    222.96781   -74.539535    216156.16   -22187.333    1412.3274    -23599.66    370.09335    6274.1987    39.594424     40.07086    23.613523 
 3994800    226.71033   -213.21087    216156.16   -22089.792    1436.0334   -23525.825    -237.4869     6273.561    39.593862    40.071569    23.610741 
 3995000    225.55982   -213.11839    216156.16   -22090.315    1428.7458   -23519.061   -183.22841     6275.557    39.593687    40.072585    23.609719 
 3995200    223.68245   -142.39273    216156.16   -22143.486    1416.8541    -23560.34    114.67479    6273.8453    39.593601    40.073341    23.609848 
 3995400    220.94775   -176.72518    216156.16    -22087.76    1399.5319   -23487.292   -68.842751    6275.5007    39.593609    40.073108    23.614108 
 3995600    235.21611   -87.580262    216156.16   -22025.042    1489.9109   -23514.953    308.14279    6274.4097    39.593533    40.072742    23.613931 
 3995800    229.95145     -229.565    216156.16   -22057.278    1456.5634   -23513.841   -246.35029    6275.2847    39.593081    40.073287    23.616515 
 3996000    229.96419   -177.21331    216156.16   -22006.581    1456.6441   -23463.225   -39.234433    6275.5648    39.593616    40.073475    23.610876 
 3996200    228.82159   -155.20452    216156.16   -22079.066    1449.4066   -23528.472    50.133444    6274.9667    39.593967    40.073813    23.615667 
 3996400     227.8011   -116.64707    216156.16   -22109.987    1442.9426    -23552.93    220.92555    6274.7646    39.593081    40.073928    23.607961 
 3996600    227.35078   -195.69166    216156.16   -22077.517    1440.0902   -23517.607   -167.07765    6274.6898    39.593164    40.072868     23.61673 
 3996800    230.73802   -134.04076    216156.16   -22118.385    1461.5457    -23579.93    145.08633    6275.4154    39.593303     40.07341      23.6161 
 3997000    231.97749   -204.97938    216156.16   -22017.616    1469.3968   -23487.013   -189.44196    6276.3657    39.593656    40.073454    23.618824 
 3997200     226.4504   -185.43723    216156.16   -22067.615     1434.387   -23502.002   -105.52642    6274.6504    39.594036    40.074634    23.621934 
 3997400    228.46263   -189.30457    216156.16   -22132.445    1447.1329   -23579.578   -139.18732    6274.8508    39.594776    40.074972    23.617149 
 3997600    226.41937   -199.48639    216156.16   -22061.995    1434.1904   -23496.186   -157.67215    6273.6691    39.595287    40.075328    23.624521 
 3997800    221.58893   -246.99927    216156.16   -22192.136    1403.5933    -23595.73    -330.1528    6275.6248    39.595305    40.075619    23.622552 
 3998000    223.53209   -255.49662    216156.16   -22113.437    1415.9017   -23529.338   -364.97603     6275.316    39.596582    40.075628     23.62002 
 3998200    221.34507   -161.27731    216156.16   -22159.241    1402.0487    -23561.29   -7.5014508     6272.183    39.597099    40.075517    23.614532 
 3998400    229.49003   -125.81493    216156.16   -22027.386    1453.6407   -23481.027    137.14336    6275.3452    39.598171    40.076383    23.621991 
 3998600    219.10701    -254.3741    216156.16   -22111.428    1387.8723     -23499.3   -434.06654    6274.5915    39.598358    40.076684    23.628299 
 3998800     222.7452   -130.89064    216156.16   -22104.142    1410.9174    -23515.06     143.1941    6275.2567    39.598447     40.07732    23.615784 
 3999000    227.93499    -122.2601    216156.16   -22058.235    1443.7907   -23502.026     166.2537    6273.8754     39.60025     40.07741    23.616383 
 3999200    227.63084   -169.04672    216156.16   -22118.042    1441.8641   -23559.906   -24.075295    6275.0172    39.600898    40.077186    23.630026 
 3999400    219.95001   -214.58424    216156.16   -22150.824     1393.212   -23544.036   -266.23551    6275.6108    39.602083    40.078332     23.62827 
 3999600    218.85763   -201.89621    216156.16   -22163.136    1386.2927   -23549.429   -192.66921    6274.3878    39.603264    40.078777    23.631951 
 3999800    227.50904   -251.93568    216156.16   -22083.934    1441.0926   -23525.027   -440.03385    6273.7573    39.603968    40.079407    23.629844 
 4000000    230.19358   -174.31703    216156.16   -22081.234    1458.0971   -23539.331   -94.359711    6274.6747    39.604982    40.079609    23.626786 
Loop time of 6286.22 on 120 procs for 4000000 steps with 9422 atoms

Performance: 549.774 ns/day, 0.044 hours/ns, 636.313 timesteps/s
98.1% CPU use with 120 MPI tasks x no OpenMP threads

MPI task timing breakdown:
Section |  min time  |  avg time  |  max time  |%varavg| %total
---------------------------------------------------------------
Pair    | 0.35211    | 1637.3     | 4795.1     |3884.4 | 26.05
Neigh   | 2.7701     | 98.363     | 322.21     |1045.4 |  1.56
Comm    | 398.42     | 2393.5     | 4924       |3067.1 | 38.07
Output  | 70.61      | 70.672     | 72.139     |   1.6 |  1.12
Modify  | 344.85     | 2041.9     | 5768.6     |4923.2 | 32.48
Other   |            | 44.54      |            |       |  0.71

Nlocal:    78.5167 ave 206 max 0 min
Histogram: 34 27 18 1 0 0 0 2 14 24
Nghost:    693.55 ave 915 max 528 min
Histogram: 32 1 13 3 21 10 12 11 8 9
Neighs:    0 ave 0 max 0 min
Histogram: 120 0 0 0 0 0 0 0 0 0
FullNghs:  7945.63 ave 25056 max 0 min
Histogram: 69 11 0 0 0 0 0 8 16 16

Total # of neighbors = 953476
Ave neighs/atom = 101.197
Neighbor list builds = 427490
Dangerous builds = 0
write_data 		${DIR}/data.${NAME}_run
write_data 		run_12/data.${NAME}_run
write_data 		run_12/data.ibeam_cooling_12_run
Total wall time: 1:45:02
