
### Dimensions ###


### IMPORT ATOMS ###
read_data ../Box_Setup/data.Ibeam_240K
  orthogonal box = (0 0 0) to (157.504 36.4877 39.8503)
  10 by 4 by 4 MPI processor grid
  reading atoms ...
  8943 atoms
  reading velocities ...
  8943 velocities
group water type 2
2223 atoms in group water
group graphite type 1
6720 atoms in group graphite


# Define potential
#
pair_style          sw
pair_coeff * * MLC_e.sw C mW

# Add velocity/set timestep
#

fix		1 graphite setforce 0.0 0.0 0.0
velocity 	graphite set 0.0 0.0 0.0
velocity            water create ${START_TEMP} ${SEED} rot yes dist gaussian
velocity            water create 240 ${SEED} rot yes dist gaussian
velocity            water create 240 16750 rot yes dist gaussian
timestep            5.0

# Define output
#
compute 1 water msd
compute 2 water temp


thermo	            100
thermo_style custom step c_2 press vol etotal ke pe c_1[4] density

# Neighbor lists
#
neigh_modify        delay 0 every 1 check yes


# Set fixes
#
fix                 2 water momentum 10 linear 1 1 1 rescale
fix                 3 all nve
fix                 4 water temp/csvr ${START_TEMP} ${START_TEMP} 500.0 928347
fix                 4 water temp/csvr 240 ${START_TEMP} 500.0 928347
fix                 4 water temp/csvr 240 240 500.0 928347

# Run 0.05 ns equilibration
#
dump                1 all custom 100 ${DIR}/eq.${NAME}.dump id type x y z vx vy vz
dump                1 all custom 100 run_22/eq.${NAME}.dump id type x y z vx vy vz
dump                1 all custom 100 run_22/eq.ibeam_cooling_22.dump id type x y z vx vy vz
run                 10000
Neighbor list info ...
  update every 1 steps, delay 0 steps, check yes
  max neighbors/atom: 2000, page size: 100000
  master list distance cutoff = 6.67472
  ghost atom cutoff = 6.67472
  binsize = 3.33736, bins = 48 11 12
  1 neighbor lists, perpetual/occasional/extra = 1 0 0
  (1) pair sw, perpetual
      attributes: full, newton on
      pair build: full/bin/atomonly
      stencil: full/bin/3d
      bin: standard
Per MPI rank memory allocation (min/avg/max) = 0.463 | 3.758 | 4.742 Mbytes
Step c_2 Press Volume TotEng KinEng PotEng c_1[4] Density 
       0          240   -163.35224    229018.04   -21211.582    1589.6064   -22801.188            0   0.87555383 
     100    239.88352    -218.3968    229018.04   -21176.066    1588.8349   -22764.901   0.85663604   0.87555383 
     200     240.6275   -369.88723    229018.04   -21209.938    1593.7625     -22803.7    1.2941999   0.87555383 
     300    239.68581   -454.90146    229018.04   -21195.302    1587.5254   -22782.828    1.7237701   0.87555383 
     400    239.41855   -259.18244    229018.04   -21195.803    1585.7553   -22781.558    2.0446536   0.87555383 
     500    233.27688   -221.50084    229018.04   -21207.413    1545.0768    -22752.49    2.3302944   0.87555383 
     600    231.17407   -185.23439    229018.04   -21315.029    1531.1491   -22846.178    2.5157371   0.87555383 
     700    234.41097   -239.83925    229018.04   -21274.943    1552.5882   -22827.531    2.6858989   0.87555383 
     800    234.63241   -331.63198    229018.04   -21331.625    1554.0549    -22885.68    2.9410448   0.87555383 
     900    237.35401    -325.7469    229018.04    -21288.01    1572.0811   -22860.091    3.2019003   0.87555383 
    1000    237.13665   -457.25747    229018.04   -21227.618    1570.6414    -22798.26    3.6489878   0.87555383 
    1100    234.96477   -249.68085    229018.04   -21243.005    1556.2562   -22799.261    3.9982237   0.87555383 
    1200     230.2477   -146.19844    229018.04   -21283.695    1525.0134   -22808.708    4.2844679   0.87555383 
    1300    233.95121   -336.85223    229018.04   -21237.227    1549.5431    -22786.77    4.5512872   0.87555383 
    1400     242.3687   -331.06235    229018.04   -21158.865    1605.2951    -22764.16    4.8568241   0.87555383 
    1500    245.49428    -191.9312    229018.04   -21173.795     1625.997   -22799.792    5.2645862   0.87555383 
    1600    247.19175   -382.25668    229018.04   -21161.281    1637.2399   -22798.521    5.5466993   0.87555383 
    1700    239.34799   -370.80541    229018.04   -21183.831    1585.2879   -22769.119    5.8649525   0.87555383 
    1800    235.64687   -320.41687    229018.04   -21177.884     1560.774   -22738.658    6.1157664   0.87555383 
    1900    248.60252   -157.12053    229018.04   -21101.298     1646.584   -22747.882     6.585956   0.87555383 
    2000    249.02797     -291.562    229018.04   -21089.726    1649.4019   -22739.128    6.9683999   0.87555383 
    2100    245.80301   -271.70948    229018.04   -21110.226    1628.0418   -22738.268    7.3489832   0.87555383 
    2200    243.78785   -315.61375    229018.04   -21103.932    1614.6947   -22718.626    7.7312849   0.87555383 
    2300    239.45377    -330.1799    229018.04   -21155.619    1585.9885   -22741.608    8.1149533   0.87555383 
    2400    251.49675   -283.86627    229018.04   -21161.765    1665.7535   -22827.518    8.3038361   0.87555383 
    2500    242.05674   -382.31589    229018.04   -21150.351    1603.2289    -22753.58    8.6470508   0.87555383 
    2600    241.74953   -313.91245    229018.04   -21188.205    1601.1941   -22789.399    8.9444152   0.87555383 
    2700    242.57943   -367.63718    229018.04   -21163.957    1606.6909   -22770.648     9.343264   0.87555383 
    2800    238.07746   -387.29681    229018.04   -21176.897    1576.8727    -22753.77    9.6727367   0.87555383 
    2900    241.50179   -259.01802    229018.04   -21237.135    1599.5533   -22836.689    10.062375   0.87555383 
    3000    237.09228   -155.31411    229018.04   -21236.276    1570.3475   -22806.624    10.375089   0.87555383 
    3100    238.49596   -238.73255    229018.04   -21223.375    1579.6446   -22803.019    10.669467   0.87555383 
    3200    234.89669   -242.34729    229018.04   -21255.014    1555.8053   -22810.819    11.125866   0.87555383 
    3300     238.9658   -296.17947    229018.04   -21215.652    1582.7565   -22798.408    11.770682   0.87555383 
    3400     242.3651   -270.66382    229018.04   -21224.813    1605.2713   -22830.085     11.99585   0.87555383 
    3500    239.01785   -195.55639    229018.04   -21228.179    1583.1013   -22811.281     12.40893   0.87555383 
    3600    240.49955   -366.91505    229018.04   -21210.132    1592.9151   -22803.047    12.671046   0.87555383 
    3700    238.76675   -244.29544    229018.04   -21240.193    1581.4381   -22821.631    12.925026   0.87555383 
    3800     239.0298   -352.58423    229018.04    -21236.74    1583.1804    -22819.92     13.12321   0.87555383 
    3900    238.66205   -404.14642    229018.04   -21230.266    1580.7446    -22811.01    13.462656   0.87555383 
    4000    242.29414   -217.51312    229018.04   -21268.429    1604.8013    -22873.23    13.778557   0.87555383 
    4100    237.40107   -250.30606    229018.04   -21234.007    1572.3928     -22806.4    14.055743   0.87555383 
    4200    239.34089   -279.94925    229018.04   -21213.973    1585.2408   -22799.214    14.113973   0.87555383 
    4300    248.72059   -277.57024    229018.04    -21128.63     1647.366   -22775.996    14.211782   0.87555383 
    4400    243.41797   -225.52516    229018.04   -21126.691    1612.2449   -22738.936    14.676616   0.87555383 
    4500    244.54846    -282.0022    229018.04   -21176.977    1619.7325    -22796.71    14.986815   0.87555383 
    4600      238.291   -270.60014    229018.04   -21208.156    1578.2871   -22786.443    15.304451   0.87555383 
    4700    238.10147   -209.88414    229018.04   -21240.755    1577.0317   -22817.786    15.464298   0.87555383 
    4800    237.53092   -325.84691    229018.04   -21192.462    1573.2528   -22765.715    15.819561   0.87555383 
    4900    245.65699   -333.58552    229018.04    -21203.27    1627.0746   -22830.344    16.318726   0.87555383 
    5000    236.44613   -296.54125    229018.04    -21219.34    1566.0678   -22785.408     16.57598   0.87555383 
    5100    236.82022   -131.18028    229018.04   -21218.801    1568.5456   -22787.347    16.874549   0.87555383 
    5200    239.20964   -362.32517    229018.04   -21185.944    1584.3716   -22770.316    17.409459   0.87555383 
    5300    240.17291   -312.38231    229018.04   -21244.606    1590.7516   -22835.358    17.812632   0.87555383 
    5400    231.62027   -336.20924    229018.04   -21208.636    1534.1044    -22742.74    18.323031   0.87555383 
    5500    234.39023   -423.67694    229018.04    -21239.21    1552.4509   -22791.661    18.708699   0.87555383 
    5600     240.7819   -316.85091    229018.04   -21263.274    1594.7852   -22858.059    19.106151   0.87555383 
    5700    232.57497   -360.33112    229018.04   -21235.161    1540.4278   -22775.589    19.283381   0.87555383 
    5800    245.59206   -110.07945    229018.04   -21139.131    1626.6446   -22765.776     19.61332   0.87555383 
    5900    244.42191   -90.633779    229018.04   -21161.492    1618.8943   -22780.386    19.959034   0.87555383 
    6000    229.64607   -427.42273    229018.04   -21249.309    1521.0286   -22770.337    20.079681   0.87555383 
    6100    236.42438   -329.81256    229018.04    -21229.59    1565.9237   -22795.514     20.31177   0.87555383 
    6200    234.40017   -324.38302    229018.04   -21197.795    1552.5167   -22750.312    20.762059   0.87555383 
    6300    244.55367   -209.35847    229018.04   -21157.277     1619.767   -22777.044    21.111558   0.87555383 
    6400    242.67677   -221.42516    229018.04   -21156.471    1607.3356   -22763.807    21.807099   0.87555383 
    6500    239.27075   -338.75227    229018.04   -21178.789    1584.7763   -22763.565     22.07534   0.87555383 
    6600    241.39663   -287.33087    229018.04   -21231.423    1598.8567   -22830.279    22.377922   0.87555383 
    6700    234.55298   -221.84538    229018.04   -21283.345    1553.5288   -22836.874    22.687613   0.87555383 
    6800    239.84907   -244.21523    229018.04   -21245.077    1588.6067   -22833.684    22.957112   0.87555383 
    6900    232.04908   -384.42515    229018.04     -21291.1    1536.9446   -22828.044     23.43223   0.87555383 
    7000     235.0006   -221.76833    229018.04   -21305.409    1556.4936   -22861.903    23.692957   0.87555383 
    7100    239.36789   -262.09652    229018.04   -21200.345    1585.4197   -22785.765    23.943451   0.87555383 
    7200     241.1106    -265.1294    229018.04   -21183.982    1596.9623   -22780.944    24.197041   0.87555383 
    7300    236.62815   -183.86838    229018.04   -21261.035    1567.2734   -22828.308     24.32291   0.87555383 
    7400    230.62486   -282.02279    229018.04   -21259.337    1527.5115   -22786.848    24.771644   0.87555383 
    7500     230.8496   -460.39515    229018.04   -21282.064         1529   -22811.064    25.166536   0.87555383 
    7600    233.28688    -264.8596    229018.04   -21287.116    1545.1429   -22832.259    25.260078   0.87555383 
    7700    242.99908   -208.00664    229018.04   -21250.686    1609.4703   -22860.156    25.649066   0.87555383 
    7800    238.56868   -180.72344    229018.04   -21211.498    1580.1262   -22791.625    26.193918   0.87555383 
    7900    239.40477   -262.48292    229018.04   -21193.104     1585.664   -22778.768    26.615874   0.87555383 
    8000    243.58221   -210.43887    229018.04    -21190.15    1613.3326   -22803.482    27.013313   0.87555383 
    8100     238.0771   -307.11957    229018.04   -21212.557    1576.8703   -22789.428    27.427418   0.87555383 
    8200     232.7645   -422.96575    229018.04   -21236.314    1541.6831   -22777.997    27.938483   0.87555383 
    8300    237.06772    -352.3577    229018.04   -21250.834    1570.1849   -22821.018    28.191701   0.87555383 
    8400    235.39341   -318.21147    229018.04   -21254.379    1559.0953   -22813.474    28.482425   0.87555383 
    8500    240.36067   -151.87185    229018.04   -21249.362    1591.9953   -22841.357    28.646931   0.87555383 
    8600    235.96562   -124.74366    229018.04   -21191.184    1562.8852    -22754.07    28.709486   0.87555383 
    8700    235.65624   -188.98829    229018.04    -21253.78    1560.8361   -22814.616    29.161416   0.87555383 
    8800    237.78339   -306.27182    229018.04   -21194.479     1574.925   -22769.404    29.261446   0.87555383 
    8900    239.75712   -330.69509    229018.04   -21233.169    1587.9977   -22821.167    29.674642   0.87555383 
    9000    239.79007   -48.634213    229018.04   -21191.865     1588.216   -22780.081     30.24212   0.87555383 
    9100    240.29073   -327.20802    229018.04   -21180.293     1591.532   -22771.825     30.48684   0.87555383 
    9200    237.68132   -106.68579    229018.04   -21216.914     1574.249   -22791.163    30.821847   0.87555383 
    9300    235.40877   -279.74139    229018.04   -21242.747     1559.197   -22801.944    31.015682   0.87555383 
    9400    232.54939   -349.53112    229018.04   -21296.048    1540.2583   -22836.306    31.520022   0.87555383 
    9500    238.99252   -253.65921    229018.04   -21267.184    1582.9335   -22850.118    31.883821   0.87555383 
    9600    229.31997   -372.04624    229018.04   -21324.531    1518.8687     -22843.4    31.981326   0.87555383 
    9700    235.13502   -328.84557    229018.04   -21265.184    1557.3839   -22822.568    32.089631   0.87555383 
    9800    236.11069   -363.23177    229018.04   -21268.158    1563.8461   -22832.004    32.386801   0.87555383 
    9900    236.40809   -207.90826    229018.04    -21226.13    1565.8159   -22791.946    32.579674   0.87555383 
   10000    244.53152   -138.89697    229018.04   -21154.563    1619.6203   -22774.183    32.647789   0.87555383 
Loop time of 14.8997 on 160 procs for 10000 steps with 8943 atoms

Performance: 289.939 ns/day, 0.083 hours/ns, 671.154 timesteps/s
97.8% CPU use with 160 MPI tasks x no OpenMP threads

MPI task timing breakdown:
Section |  min time  |  avg time  |  max time  |%varavg| %total
---------------------------------------------------------------
Pair    | 0.00044084 | 3.0611     | 12.113     | 236.9 | 20.54
Neigh   | 0.0003798  | 0.10068    | 0.38384    |  39.1 |  0.68
Comm    | 0.013908   | 4.2042     | 12.012     | 221.3 | 28.22
Output  | 0.17478    | 0.17493    | 0.18192    |   0.1 |  1.17
Modify  | 0.36807    | 7.2036     | 14.56      | 230.9 | 48.35
Other   |            | 0.1552     |            |       |  1.04

Nlocal:    55.8937 ave 177 max 0 min
Histogram: 72 4 43 1 0 0 0 0 4 36
Nghost:    540.344 ave 965 max 0 min
Histogram: 24 0 0 8 6 53 19 18 22 10
Neighs:    0 ave 0 max 0 min
Histogram: 160 0 0 0 0 0 0 0 0 0
FullNghs:  5641.2 ave 22240 max 0 min
Histogram: 89 31 0 0 0 0 0 2 21 17

Total # of neighbors = 902592
Ave neighs/atom = 100.927
Neighbor list builds = 572
Dangerous builds = 0
write_data 	    ${DIR}/data.${NAME}_eq
write_data 	    run_22/data.${NAME}_eq
write_data 	    run_22/data.ibeam_cooling_22_eq

undump              1
unfix               4



################################################
#######         Run Simulation         #########
################################################

reset_timestep      0
timestep	    10.0
log                 ${DIR}/log.run_${NAME}
log                 run_22/log.run_${NAME}
log                 run_22/log.run_ibeam_cooling_22
