
### Dimensions ###


### IMPORT ATOMS ###
read_data ../Box_Setup/data.Ibeam_240K
Reading data file ...
  orthogonal box = (0.0000000 0.0000000 0.0000000) to (68.908000 85.848302 27.975384)
  8 by 8 by 2 MPI processor grid
  reading atoms ...
  8493 atoms
  reading velocities ...
  8493 velocities
  read_data CPU = 0.023 seconds
group water type 2
1689 atoms in group water
group graphite type 1
6804 atoms in group graphite


# Define potential
#
pair_style          sw
pair_coeff * * MLC_e.sw C mW

# Add velocity/set timestep
#

fix		1 graphite setforce 0.0 0.0 0.0
velocity 	graphite set 0.0 0.0 0.0
velocity            water create ${START_TEMP} ${SEED} rot yes dist gaussian
velocity            water create 240 ${SEED} rot yes dist gaussian
velocity            water create 240 5774 rot yes dist gaussian
timestep            5.0

# Define output
#
compute 1 water msd
compute 2 water temp


thermo	            100
thermo_style custom step c_2 press vol etotal ke pe c_1[4] density

# Neighbor lists
#
neigh_modify        delay 0 every 1 check yes


# Set fixes
#
fix                 2 water momentum 10 linear 1 1 1 rescale
fix                 3 all nve
fix                 4 water temp/csvr ${START_TEMP} ${START_TEMP} 500.0 928347
fix                 4 water temp/csvr 240 ${START_TEMP} 500.0 928347
fix                 4 water temp/csvr 240 240 500.0 928347

# Run 0.05 ns equilibration
#
dump                1 all custom 100 ${DIR}/eq.${NAME}.dump id type x y z vx vy vz
dump                1 all custom 100 run_4/eq.${NAME}.dump id type x y z vx vy vz
dump                1 all custom 100 run_4/eq.ibeam_cooling_4.dump id type x y z vx vy vz
run                 10000
Neighbor list info ...
  update every 1 steps, delay 0 steps, check yes
  max neighbors/atom: 2000, page size: 100000
  master list distance cutoff = 6.6747184
  ghost atom cutoff = 6.6747184
  binsize = 3.3373592, bins = 21 26 9
  1 neighbor lists, perpetual/occasional/extra = 1 0 0
  (1) pair sw, perpetual
      attributes: full, newton on
      pair build: full/bin/atomonly
      stencil: full/bin/3d
      bin: standard
Per MPI rank memory allocation (min/avg/max) = 3.603 | 4.507 | 4.728 Mbytes
Step c_2 Press Volume TotEng KinEng PotEng c_1[4] Density 
       0          240   -298.97748    165492.15   -16025.669    1207.5858   -17233.255            0    1.1252403 
     100    241.69318   -461.73847    165492.15   -16003.588    1216.1052   -17219.693   0.86381496    1.1252403 
     200    240.51662   -460.86589    165492.15   -16052.017    1210.1852   -17262.202    1.3047881    1.1252403 
     300    237.07142   -484.86626    165492.15   -16037.272    1192.8503   -17230.122    1.7090871    1.1252403 
     400    240.69111   -464.49632    165492.15   -16051.245    1211.0632   -17262.308    2.1617983    1.1252403 
     500    243.25564   -411.43873    165492.15   -16061.928    1223.9669   -17285.895    2.5518948    1.1252403 
     600    234.56765   -461.19998    165492.15   -16148.627    1180.2523    -17328.88    3.0897003    1.1252403 
     700    239.83167   -488.34141    165492.15    -16130.35    1206.7388   -17337.089    3.5987168    1.1252403 
     800    231.74087   -552.71423    165492.15   -16162.353    1166.0291   -17328.382    3.8124037    1.1252403 
     900    239.92167   -357.12133    165492.15   -16135.987    1207.1916   -17343.178     4.213615    1.1252403 
    1000    236.13803   -274.33616    165492.15   -16087.392    1188.1538   -17275.546    4.5440577    1.1252403 
    1100    242.02089   -603.53085    165492.15   -16103.285    1217.7541   -17321.039    5.0058747    1.1252403 
    1200    234.52418   -434.70176    165492.15   -16152.482    1180.0336   -17332.515     5.378191    1.1252403 
    1300    243.16077   -378.36372    165492.15    -16120.01    1223.4895   -17343.499    5.6655282    1.1252403 
    1400    233.29591   -591.06602    165492.15   -16058.216    1173.8534    -17232.07     6.153906    1.1252403 
    1500    244.96544   -299.78842    165492.15   -16073.293    1232.5699   -17305.863    6.6725796    1.1252403 
    1600    243.44104   -631.20971    165492.15    -16065.61    1224.8997    -17290.51    7.1486968    1.1252403 
    1700    239.85869   -607.07847    165492.15   -16081.603    1206.8747   -17288.478    7.4036136    1.1252403 
    1800    234.81049   -598.41253    165492.15   -16071.346    1181.4742    -17252.82    8.0289411    1.1252403 
    1900     250.8729   -697.48317    165492.15   -15988.312    1262.2939   -17250.606    8.4717428    1.1252403 
    2000    246.08542   -569.65648    165492.15   -15961.103    1238.2052   -17199.309    8.8911685    1.1252403 
    2100    243.42168   -527.79807    165492.15   -15988.831    1224.8023   -17213.633    9.3887343    1.1252403 
    2200    249.40222   -323.72619    165492.15    -15995.34    1254.8941   -17250.234    10.056053    1.1252403 
    2300    243.60171   -479.15867    165492.15   -16042.719    1225.7081   -17268.427    10.645231    1.1252403 
    2400    242.84519   -486.75867    165492.15   -16043.794    1221.9017   -17265.696    11.158467    1.1252403 
    2500    252.01132   -441.16354    165492.15   -16050.013     1268.022   -17318.036    11.457598    1.1252403 
    2600     232.5347   -618.34256    165492.15   -16088.161    1170.0233   -17258.185    11.897792    1.1252403 
    2700    236.45471   -472.55582    165492.15   -16057.715    1189.7473   -17247.462    11.857121    1.1252403 
    2800    240.95096    -502.9715    165492.15   -16061.646    1212.3706   -17274.017    12.116991    1.1252403 
    2900    232.96428    -453.3122    165492.15   -16117.138    1172.1848   -17289.323    12.414833    1.1252403 
    3000    236.51121   -591.96443    165492.15   -16133.103    1190.0316   -17323.135    12.642494    1.1252403 
    3100    236.92128   -410.05493    165492.15   -16122.696    1192.0949   -17314.791    12.666118    1.1252403 
    3200    243.48445   -548.14027    165492.15   -16141.408    1225.1182   -17366.527    12.499887    1.1252403 
    3300    239.39023   -471.98807    165492.15   -16105.881    1204.5176   -17310.399    12.747488    1.1252403 
    3400    237.47018   -188.79405    165492.15   -16099.046    1194.8567   -17293.903    13.263593    1.1252403 
    3500    234.92942   -465.06272    165492.15   -16098.791    1182.0726   -17280.864    13.888091    1.1252403 
    3600    238.57495   -449.81147    165492.15   -16083.851    1200.4155   -17284.267    14.305282    1.1252403 
    3700    238.94483   -183.89689    165492.15     -16120.9    1202.2766   -17323.176     14.53195    1.1252403 
    3800    247.67471   -488.97501    165492.15   -16104.753    1246.2019   -17350.955    14.760686    1.1252403 
    3900    238.83713   -610.85237    165492.15   -16115.272    1201.7347   -17317.006    15.000415    1.1252403 
    4000     238.5264   -360.83464    165492.15   -16143.401    1200.1712   -17343.573     15.26246    1.1252403 
    4100    231.57964   -626.59508    165492.15   -16099.857    1165.2178   -17265.075    15.779779    1.1252403 
    4200    241.13647   -687.74458    165492.15   -16067.311     1213.304   -17280.616    16.139481    1.1252403 
    4300    246.30267   -564.69627    165492.15   -15993.222    1239.2983   -17232.521      16.3793    1.1252403 
    4400    236.52957   -463.61234    165492.15   -16007.032    1190.1239   -17197.156    16.798075    1.1252403 
    4500    239.85402   -562.30584    165492.15   -16052.157    1206.8513   -17259.008    17.089449    1.1252403 
    4600    241.53149   -413.05795    165492.15   -16075.692    1215.2916   -17290.984    16.932201    1.1252403 
    4700    238.55694     -568.712    165492.15   -16088.585    1200.3249    -17288.91    17.071953    1.1252403 
    4800    239.04369   -436.65306    165492.15   -16051.917     1202.774   -17254.691    17.582579    1.1252403 
    4900    243.71743   -394.74267    165492.15    -16067.75    1226.2904   -17294.041     17.72032    1.1252403 
    5000    239.18031   -544.73231    165492.15   -16110.497    1203.4614   -17313.958    17.773455    1.1252403 
    5100    238.07651   -450.34916    165492.15   -16130.013    1197.9075   -17327.921     18.25358    1.1252403 
    5200    232.00098   -473.26944    165492.15   -16106.316    1167.3378   -17273.654    18.754892    1.1252403 
    5300    236.71147   -599.58513    165492.15   -16150.942    1191.0392   -17341.981    19.147373    1.1252403 
    5400    234.77718   -452.66641    165492.15   -16127.258    1181.3066   -17308.564    19.854665    1.1252403 
    5500    239.99619   -390.85093    165492.15    -16158.83    1207.5666   -17366.396    19.981655    1.1252403 
    5600    232.91594   -513.95761    165492.15   -16162.172    1171.9416   -17334.114    20.175474    1.1252403 
    5700    234.52675   -419.18293    165492.15   -16119.566    1180.0465   -17299.612    20.319572    1.1252403 
    5800    242.96191   -307.02112    165492.15   -16036.613    1222.4889   -17259.102    20.503467    1.1252403 
    5900    244.03624    -451.2903    165492.15   -16057.797    1227.8945   -17285.691    20.918267    1.1252403 
    6000    239.03172   -454.14255    165492.15   -16139.788    1202.7138   -17342.502    21.026171    1.1252403 
    6100    233.40837   -446.68858    165492.15   -16132.866    1174.4193   -17307.286    21.235013    1.1252403 
    6200    239.59851   -402.36113    165492.15   -16098.683    1205.5656   -17304.249    21.518995    1.1252403 
    6300    237.78357   -509.99181    165492.15   -16064.314    1196.4336   -17260.748    21.622979    1.1252403 
    6400    238.63492   -467.77762    165492.15   -16047.153    1200.7172    -17247.87    21.976129    1.1252403 
    6500     243.5099   -541.11265    165492.15   -16067.898    1225.2462   -17293.144    22.012164    1.1252403 
    6600    236.74701   -483.48751    165492.15   -16111.295     1191.218   -17302.513    22.441918    1.1252403 
    6700    233.76149   -494.80513    165492.15   -16154.196    1176.1961   -17330.392    22.425185    1.1252403 
    6800    237.86447   -541.64027    165492.15   -16127.993    1196.8406   -17324.834    22.462547    1.1252403 
    6900    232.89032   -462.32418    165492.15   -16159.024    1171.8127   -17330.836    22.796646    1.1252403 
    7000    232.11644   -443.90211    165492.15   -16169.061    1167.9188    -17336.98    23.143953    1.1252403 
    7100    242.30604    -589.7078    165492.15   -16110.987    1219.1889   -17330.176     22.94542    1.1252403 
    7200     239.9255   -405.86293    165492.15   -16118.806    1207.2109   -17326.017    23.095403    1.1252403 
    7300    233.96849   -410.32959    165492.15   -16166.041    1177.2376   -17343.279    23.775515    1.1252403 
    7400      235.158   -455.33656    165492.15   -16163.309    1183.2227   -17346.532    24.119927    1.1252403 
    7500    226.83331   -470.93992    165492.15   -16189.026    1141.3361   -17330.362    24.053051    1.1252403 
    7600    228.37124   -593.65277    165492.15   -16212.252    1149.0744   -17361.327    24.143201    1.1252403 
    7700    237.60316   -493.57051    165492.15    -16191.37    1195.5258   -17386.896    24.100021    1.1252403 
    7800     241.7291    -182.1942    165492.15   -16142.364    1216.2859    -17358.65    24.657932    1.1252403 
    7900    234.25974   -550.77715    165492.15   -16130.977     1178.703    -17309.68    24.880582    1.1252403 
    8000    236.88767   -655.87949    165492.15   -16108.719    1191.9258   -17300.645    25.149581    1.1252403 
    8100    232.57501   -345.33976    165492.15   -16124.608    1170.2262   -17294.834    25.466582    1.1252403 
    8200    235.00767   -398.45648    165492.15   -16161.842    1182.4663   -17344.308    25.828228    1.1252403 
    8300    232.48869   -400.17639    165492.15   -16173.937    1169.7918   -17343.729    25.775227    1.1252403 
    8400    230.00595   -415.71762    165492.15   -16162.544    1157.2996   -17319.844    26.138301    1.1252403 
    8500    239.13833   -261.42508    165492.15   -16197.591    1203.2502   -17400.842    26.567044    1.1252403 
    8600    238.88577   -464.56024    165492.15   -16144.181    1201.9794    -17346.16    26.851579    1.1252403 
    8700    238.97515    -243.7955    165492.15   -16200.818    1202.4291   -17403.247    27.026746    1.1252403 
    8800    243.72027   -468.85341    165492.15   -16151.269    1226.3047   -17377.574    27.620907    1.1252403 
    8900     231.3482   -458.04014    165492.15   -16170.016    1164.0533    -17334.07     27.96871    1.1252403 
    9000    243.88484   -528.92367    165492.15   -16114.398    1227.1328   -17341.531    28.046283    1.1252403 
    9100    243.97244   -433.84759    165492.15   -16100.094    1227.5735   -17327.667    28.298754    1.1252403 
    9200    241.59077   -516.33537    165492.15   -16140.772    1215.5899   -17356.362    28.526292    1.1252403 
    9300    231.50653   -735.49226    165492.15   -16165.097    1164.8499   -17329.947    28.791119    1.1252403 
    9400    235.02435   -612.72154    165492.15    -16199.46    1182.5503    -17382.01    28.943334    1.1252403 
    9500    233.58168   -524.24846    165492.15   -16162.005    1175.2913   -17337.297    29.012556    1.1252403 
    9600    234.56483   -696.73076    165492.15   -16220.347    1180.2381   -17400.585    29.387502    1.1252403 
    9700    241.78451   -417.46251    165492.15   -16182.594    1216.5647   -17399.159    29.645683    1.1252403 
    9800    236.55765   -550.56366    165492.15   -16190.667    1190.2652   -17380.932    30.249102    1.1252403 
    9900    241.49682   -577.81866    165492.15   -16148.104    1215.1172   -17363.221    30.258801    1.1252403 
   10000    241.30939   -462.56048    165492.15   -16076.617    1214.1741   -17290.791    30.321053    1.1252403 
Loop time of 6.03048 on 128 procs for 10000 steps with 8493 atoms

Performance: 716.360 ns/day, 0.034 hours/ns, 1658.242 timesteps/s
96.8% CPU use with 128 MPI tasks x no OpenMP threads

MPI task timing breakdown:
Section |  min time  |  avg time  |  max time  |%varavg| %total
---------------------------------------------------------------
Pair    | 0.00074506 | 1.8488     | 4.5976     | 116.7 | 30.66
Neigh   | 0.0042291  | 0.13202    | 0.31156    |  27.7 |  2.19
Comm    | 0.20926    | 1.7447     | 4.2813     |  83.1 | 28.93
Output  | 0.15501    | 0.15511    | 0.15603    |   0.0 |  2.57
Modify  | 0.21201    | 2.0739     | 5.5862     | 132.3 | 34.39
Other   |            | 0.07598    |            |       |  1.26

Nlocal:        66.3516 ave         140 max           0 min
Histogram: 33 1 14 16 0 0 2 29 23 10
Nghost:        698.711 ave         915 max         491 min
Histogram: 18 3 17 15 10 17 11 21 3 13
Neighs:         0.00000 ave           0 max           0 min
Histogram: 128 0 0 0 0 0 0 0 0 0
FullNghs:      6953.89 ave       16608 max           0 min
Histogram: 40 24 0 0 0 0 14 29 13 8

Total # of neighbors = 890098
Ave neighs/atom = 104.80372
Neighbor list builds = 565
Dangerous builds = 0
write_data 	    ${DIR}/data.${NAME}_eq
write_data 	    run_4/data.${NAME}_eq
write_data 	    run_4/data.ibeam_cooling_4_eq
System init for write_data ...

undump              1
unfix               4



################################################
#######         Run Simulation         #########
################################################

reset_timestep      0
timestep	    10.0
log                 ${DIR}/log.run_${NAME}
log                 run_4/log.run_${NAME}
log                 run_4/log.run_ibeam_cooling_4
