
### Dimensions ###


### IMPORT ATOMS ###
read_data ../Box_Setup/data.Ibeam_240K
  orthogonal box = (0 0 0) to (68.908 85.8483 27.9754)
  4 by 8 by 2 MPI processor grid
  reading atoms ...
  8493 atoms
  reading velocities ...
  8493 velocities
group water type 2
1689 atoms in group water
group graphite type 1
6804 atoms in group graphite


# Define potential
#
pair_style          sw
pair_coeff * * MLC_e.sw C mW

# Add velocity/set timestep
#

fix		1 graphite setforce 0.0 0.0 0.0
velocity 	graphite set 0.0 0.0 0.0
velocity            water create ${START_TEMP} ${SEED} rot yes dist gaussian
velocity            water create 240 ${SEED} rot yes dist gaussian
velocity            water create 240 6951 rot yes dist gaussian
timestep            5.0

# Define output
#
compute 1 water msd
compute 2 water temp


thermo	            100
thermo_style custom step c_2 press vol etotal ke pe c_1[4] density

# Neighbor lists
#
neigh_modify        delay 0 every 1 check yes


# Set fixes
#
fix                 2 water momentum 10 linear 1 1 1 rescale
fix                 3 all nve
fix                 4 water temp/csvr ${START_TEMP} ${START_TEMP} 500.0 928347
fix                 4 water temp/csvr 240 ${START_TEMP} 500.0 928347
fix                 4 water temp/csvr 240 240 500.0 928347

# Run 0.05 ns equilibration
#
dump                1 all custom 100 ${DIR}/eq.${NAME}.dump id type x y z vx vy vz
dump                1 all custom 100 run_18/eq.${NAME}.dump id type x y z vx vy vz
dump                1 all custom 100 run_18/eq.ibeam_cooling_18.dump id type x y z vx vy vz
run                 10000
Neighbor list info ...
  update every 1 steps, delay 0 steps, check yes
  max neighbors/atom: 2000, page size: 100000
  master list distance cutoff = 6.67472
  ghost atom cutoff = 6.67472
  binsize = 3.33736, bins = 21 26 9
  1 neighbor lists, perpetual/occasional/extra = 1 0 0
  (1) pair sw, perpetual
      attributes: full, newton on
      pair build: full/bin/atomonly
      stencil: full/bin/3d
      bin: standard
Per MPI rank memory allocation (min/avg/max) = 3.384 | 4.425 | 4.753 Mbytes
Step c_2 Press Volume TotEng KinEng PotEng c_1[4] Density 
       0          240   -298.97748    165492.15   -16025.669    1207.5858   -17233.255            0    1.1252403 
     100    247.51786   -777.12365    165492.15   -15993.679    1245.4127   -17239.092   0.86845349    1.1252403 
     200    242.72446   -361.78974    165492.15    -16040.18    1221.2942   -17261.474    1.4983285    1.1252403 
     300    238.86613   -595.11658    165492.15   -16029.206    1201.8806   -17231.087    2.0576911    1.1252403 
     400    242.74189   -298.45779    165492.15   -16045.369    1221.3819   -17266.751    2.5581391    1.1252403 
     500    242.14322    -499.2598    165492.15    -16047.59    1218.3696    -17265.96    3.0124489    1.1252403 
     600    231.03294   -406.44399    165492.15   -16133.567     1162.467   -17296.034    3.4098888    1.1252403 
     700    244.17962   -473.73945    165492.15    -16119.56     1228.616   -17348.176    3.6030595    1.1252403 
     800    230.15307   -505.39362    165492.15   -16164.164    1158.0399   -17322.204    3.8758648    1.1252403 
     900     237.0135   -434.72599    165492.15   -16115.169    1192.5588   -17307.728    4.1246499    1.1252403 
    1000    235.24526   -500.53214    165492.15   -16077.845    1183.6618   -17261.506    4.4217752    1.1252403 
    1100    243.90096   -414.86995    165492.15    -16094.16    1227.2139   -17321.374    4.7837496    1.1252403 
    1200    235.43568   -336.73027    165492.15   -16129.533    1184.6199   -17314.153    5.3529895    1.1252403 
    1300    235.53475   -573.71573    165492.15   -16090.036    1185.1184   -17275.155    5.8097909    1.1252403 
    1400    240.50529   -399.90105    165492.15   -16020.911    1210.1282   -17231.039    6.2640767    1.1252403 
    1500    247.98349   -514.86042    165492.15   -16022.758    1247.7555   -17270.513    6.6126025    1.1252403 
    1600    240.48812   -340.22896    165492.15   -16013.249    1210.0418   -17223.291    7.0781812    1.1252403 
    1700    242.70941   -568.03491    165492.15   -16032.439    1221.2184   -17253.658    7.4494184    1.1252403 
    1800    242.58079   -442.51296    165492.15   -16040.088    1220.5713   -17260.659    8.0643696    1.1252403 
    1900    248.57658   -240.23459    165492.15   -15972.822    1250.7398   -17223.562    8.5922075    1.1252403 
    2000    245.70824   -624.83383    165492.15    -15961.67    1236.3074   -17197.978    9.1825779    1.1252403 
    2100    252.35029   -344.16917    165492.15   -15981.002    1269.7276   -17250.729     9.534177    1.1252403 
    2200     248.2562   -406.84776    165492.15   -15991.264    1249.1277   -17240.392    9.9910417    1.1252403 
    2300    242.01366   -570.33088    165492.15   -16042.197    1217.7177   -17259.915    10.209802    1.1252403 
    2400    243.59728    -312.8137    165492.15     -16048.3    1225.6859   -17273.986    10.842562    1.1252403 
    2500     239.2498   -482.58241    165492.15   -16048.004    1203.8111   -17251.815    11.219902    1.1252403 
    2600    240.85943   -376.80372    165492.15   -16081.961    1211.9101   -17293.871    11.565418    1.1252403 
    2700    243.39583   -404.99513    165492.15   -16061.275    1224.6723   -17285.948     11.74949    1.1252403 
    2800    238.51651   -587.12082    165492.15   -16068.676    1200.1214   -17268.798    11.899193    1.1252403 
    2900    234.47735   -446.14135    165492.15   -16118.346     1179.798   -17298.144    12.222256    1.1252403 
    3000     235.8612   -523.23019    165492.15    -16135.41     1186.761   -17322.171    12.616297    1.1252403 
    3100    236.85689   -466.72375    165492.15   -16124.736    1191.7709   -17316.507    12.888149    1.1252403 
    3200    232.30212   -480.65407    165492.15   -16140.894    1168.8531   -17309.747    13.088527    1.1252403 
    3300    231.81946    -643.7001    165492.15   -16088.777    1166.4245   -17255.202    13.257251    1.1252403 
    3400    241.01888     -424.856    165492.15     -16076.8    1212.7124   -17289.512    13.740085    1.1252403 
    3500    241.75376   -484.55808    165492.15   -16063.959      1216.41   -17280.369     13.85937    1.1252403 
    3600    237.15713   -634.48986    165492.15   -16051.107    1193.2816   -17244.388    14.190689    1.1252403 
    3700    237.49187     -496.997    165492.15   -16085.871    1194.9658   -17280.837     14.44961    1.1252403 
    3800    243.82091   -359.85726    165492.15   -16069.012    1226.8111   -17295.824    14.914045    1.1252403 
    3900    246.69522   -560.40193    165492.15   -16083.817    1241.2735    -17325.09    15.251413    1.1252403 
    4000    233.95437   -542.07963    165492.15   -16107.008    1177.1665   -17284.174    15.457789    1.1252403 
    4100    234.82844   -493.42296    165492.15   -16081.053    1181.5645   -17262.618    15.450036    1.1252403 
    4200    249.25979   -474.35987    165492.15   -16054.132    1254.1774   -17308.309    16.108914    1.1252403 
    4300    249.17614   -547.49106    165492.15   -15982.857    1253.7565   -17236.614    16.553391    1.1252403 
    4400    247.18492   -656.70321    165492.15   -15996.135    1243.7374   -17239.872    17.033826    1.1252403 
    4500    244.78847   -516.72396    165492.15   -16041.948    1231.6795   -17273.628    17.547508    1.1252403 
    4600    236.19954   -400.82591    165492.15   -16076.013    1188.4633   -17264.477    18.042441    1.1252403 
    4700    238.27453   -465.09835    165492.15   -16100.395    1198.9039   -17299.299    18.723713    1.1252403 
    4800     241.9693   -490.14778    165492.15   -16068.021    1217.4945   -17285.515    19.240908    1.1252403 
    4900    244.52255   -507.62108    165492.15   -16077.135    1230.3414   -17307.477    19.417815    1.1252403 
    5000    236.92811    -419.0054    165492.15   -16104.655    1192.1292   -17296.784    19.873374    1.1252403 
    5100    239.37107   -350.59343    165492.15   -16139.193    1204.4213   -17343.614    20.277256    1.1252403 
    5200     241.4846   -407.68456    165492.15   -16116.108    1215.0557   -17331.164    20.746432    1.1252403 
    5300    238.59204   -533.17729    165492.15     -16165.7    1200.5015   -17366.201    21.046018    1.1252403 
    5400    237.52897    -210.5761    165492.15   -16117.955    1195.1525   -17313.108    21.120706    1.1252403 
    5500    233.41952   -435.49435    165492.15   -16143.889    1174.4754   -17318.364    21.113466    1.1252403 
    5600    235.09028   -579.23903    165492.15   -16156.337     1182.882   -17339.219    21.266378    1.1252403 
    5700    237.83298   -571.54666    165492.15   -16121.076    1196.6822   -17317.759    21.448943    1.1252403 
    5800    243.93818   -509.28555    165492.15   -16039.401    1227.4012   -17266.802    21.663381    1.1252403 
    5900    240.03916   -326.50562    165492.15   -16075.145    1207.7828   -17282.927    21.689102    1.1252403 
    6000    227.98814   -529.89955    165492.15   -16140.331    1147.1468   -17287.478    21.972015    1.1252403 
    6100    234.37775   -433.08279    165492.15   -16131.504    1179.2968   -17310.801    22.484468    1.1252403 
    6200    239.29427   -348.87413    165492.15   -16096.855    1204.0348    -17300.89    22.859502    1.1252403 
    6300    236.39025   -498.34857    165492.15    -16062.78    1189.4229   -17252.203    23.478698    1.1252403 
    6400    244.36224   -543.31137    165492.15   -16052.206    1229.5349   -17281.741    23.626386    1.1252403 
    6500    240.35447   -418.23523    165492.15   -16071.268    1209.3693   -17280.637    24.055578    1.1252403 
    6600    234.77297   -458.58381    165492.15   -16102.746    1181.2854   -17284.031     24.17667    1.1252403 
    6700    226.93043   -427.14937    165492.15   -16139.311    1141.8248   -17281.136    24.058392    1.1252403 
    6800    235.53418    -551.0442    165492.15   -16096.724    1185.1155    -17281.84    24.689157    1.1252403 
    6900    238.86787   -495.33987    165492.15   -16115.451    1201.8894   -17317.341    25.293648    1.1252403 
    7000    231.86849   -569.48343    165492.15   -16120.866    1166.6712   -17287.537    25.491849    1.1252403 
    7100    240.71355   -464.34923    165492.15    -16056.13    1211.1761   -17267.306    25.445854    1.1252403 
    7200     241.4447   -366.69442    165492.15   -16065.714    1214.8549   -17280.569    25.738296    1.1252403 
    7300    233.19983   -364.87274    165492.15   -16113.883      1173.37   -17287.253    26.155477    1.1252403 
    7400    226.85554   -550.11836    165492.15   -16105.794     1141.448   -17247.242    26.447004    1.1252403 
    7500    235.72651   -572.65063    165492.15    -16115.12    1186.0832   -17301.203    26.572155    1.1252403 
    7600    233.94546   -383.78113    165492.15   -16129.314    1177.1217   -17306.436    26.883656    1.1252403 
    7700    234.13568   -411.16931    165492.15    -16115.62    1178.0788   -17293.699    27.272909    1.1252403 
    7800    244.08446   -416.26483    165492.15   -16072.081    1228.1372   -17300.218    27.540021    1.1252403 
    7900     239.3911   -487.48996    165492.15   -16073.589     1204.522   -17278.111    28.135584    1.1252403 
    8000    238.55404   -321.31599    165492.15   -16058.897    1200.3103   -17259.207    28.602172    1.1252403 
    8100    234.38842   -398.36223    165492.15   -16076.329    1179.3505   -17255.679    28.595869    1.1252403 
    8200     237.1742   -485.44601    165492.15   -16105.836    1193.3675   -17299.203    28.954307    1.1252403 
    8300    235.87365    -458.9959    165492.15   -16112.842    1186.8236   -17299.665    29.388086    1.1252403 
    8400    235.42429   -481.57427    165492.15   -16094.665    1184.5626   -17279.227    29.444254    1.1252403 
    8500    234.06807   -387.66745    165492.15   -16118.526    1177.7386   -17296.265    29.878903    1.1252403 
    8600    242.33925   -479.55138    165492.15   -16061.602     1219.356   -17280.958     30.23011    1.1252403 
    8700    238.02545   -467.46394    165492.15   -16121.569    1197.6506    -17319.22    31.246353    1.1252403 
    8800    238.27409   -447.33838    165492.15   -16066.564    1198.9017   -17265.465    31.914388    1.1252403 
    8900    241.20961   -403.77134    165492.15   -16086.011     1213.672   -17299.683     32.23068    1.1252403 
    9000    243.97278   -368.32631    165492.15   -16044.753    1227.5752   -17272.329    32.531615    1.1252403 
    9100     250.2623   -393.14371    165492.15   -16040.703    1259.2216   -17299.925    32.878661    1.1252403 
    9200    241.39191   -573.77272    165492.15   -16076.587    1214.5893   -17291.177    33.335415    1.1252403 
    9300    243.12036   -379.46094    165492.15   -16102.842    1223.2862   -17326.128    33.824242    1.1252403 
    9400    225.48819   -219.00149    165492.15   -16134.556     1134.568   -17269.124    34.262844    1.1252403 
    9500    234.24031   -425.57005    165492.15   -16094.257    1178.6053   -17272.862    35.093128    1.1252403 
    9600    240.63175   -561.19138    165492.15   -16153.557    1210.7645   -17364.322    35.621456    1.1252403 
    9700    237.87932   -306.61688    165492.15   -16119.223    1196.9154   -17316.138    36.005409    1.1252403 
    9800    240.32189   -609.71402    165492.15   -16118.226    1209.2054   -17327.431    36.520538    1.1252403 
    9900    238.66129   -492.18753    165492.15   -16081.932    1200.8499   -17282.782    36.686859    1.1252403 
   10000    250.34863    -379.1512    165492.15   -16018.056     1259.656   -17277.712    36.747078    1.1252403 
Loop time of 10.2161 on 64 procs for 10000 steps with 8493 atoms

Performance: 422.860 ns/day, 0.057 hours/ns, 978.843 timesteps/s
100.0% CPU use with 64 MPI tasks x no OpenMP threads

MPI task timing breakdown:
Section |  min time  |  avg time  |  max time  |%varavg| %total
---------------------------------------------------------------
Pair    | 0.0016704  | 3.6215     | 7.8304     | 154.9 | 35.45
Neigh   | 0.0079886  | 0.23854    | 0.49796    |  36.9 |  2.33
Comm    | 1.1594     | 4.1748     | 8.8688     | 111.2 | 40.86
Output  | 0.1537     | 0.15377    | 0.1545     |   0.0 |  1.51
Modify  | 0.37104    | 1.9341     | 7.5965     | 164.8 | 18.93
Other   |            | 0.09338    |            |       |  0.91

Nlocal:    132.703 ave 256 max 0 min
Histogram: 16 0 5 11 0 0 0 1 19 12
Nghost:    924.156 ave 1153 max 641 min
Histogram: 6 8 2 0 5 14 13 0 4 12
Neighs:    0 ave 0 max 0 min
Histogram: 64 0 0 0 0 0 0 0 0 0
FullNghs:  13917.9 ave 29844 max 0 min
Histogram: 17 15 0 0 0 0 0 7 14 11

Total # of neighbors = 890744
Ave neighs/atom = 104.88
Neighbor list builds = 566
Dangerous builds = 0
write_data 	    ${DIR}/data.${NAME}_eq
write_data 	    run_18/data.${NAME}_eq
write_data 	    run_18/data.ibeam_cooling_18_eq

undump              1
unfix               4



################################################
#######         Run Simulation         #########
################################################

reset_timestep      0
timestep	    10.0
log                 ${DIR}/log.run_${NAME}
log                 run_18/log.run_${NAME}
log                 run_18/log.run_ibeam_cooling_18
