
# Set production fixes - Nose/Hoover
#
fix                 4 water temp/csvr ${START_TEMP} ${END_TEMP} 500.0 928347
fix                 4 water temp/csvr 240 ${END_TEMP} 500.0 928347
fix                 4 water temp/csvr 240 227 500.0 928347


## divide "droplet" into core and surface
#region		core_reg cylinder z 135 135 44.6 20 INF units box
#region		surface_reg cylinder z 135 135 44.6 20 INF units box side out
#group		core dynamic all region core_reg
#group		surface dynamic all region surface_reg

## compute pressure core
#compute        peratom_core core stress/atom NULL
#compute        p_core core reduce sum c_peratom_core[1] c_peratom_core[2] c_peratom_core[3]
#variable       press_core equal -(c_p_core[1]+c_p_core[2]+c_p_core[3])/(3*1249982.5)


## compute pressure surface
#compute        peratom_surf surface stress/atom NULL
#compute        p_surf surface reduce sum c_peratom_surf[1] c_peratom_surf[2] #c_peratom_surf[3]
#variable       press_surf equal -(c_p_surf[1]+c_p_surf[2]+c_p_surf[3])/(3*42395)

## compute total pressure of drop
compute        peratom water stress/atom NULL
compute        p water reduce sum c_peratom[1] c_peratom[2] c_peratom[3]
variable       press equal -(c_p[1]+c_p[2]+c_p[3])/(3*58301)


# compute order parameter
compute        3 all orientorder/atom nnn NULL cutoff 3.5

# compute center of mass of bridge
compute 	4 water com

# Run simulation
thermo_style        custom step c_2 press vol etotal ke pe v_press c_1[4] c_4[*]
thermo              200
dump		     1 water custom 400 ${DIR}/prod.${NAME}.dump id type x y z vx vy vz c_3[*] c_peratom[*]
dump		     1 water custom 400 run_25/prod.${NAME}.dump id type x y z vx vy vz c_3[*] c_peratom[*]
dump		     1 water custom 400 run_25/prod.ibeam_cooling_25.dump id type x y z vx vy vz c_3[*] c_peratom[*]
run                 ${STEPS}
run                 5200000
Neighbor list info ...
  update every 1 steps, delay 0 steps, check yes
  max neighbors/atom: 2000, page size: 100000
  master list distance cutoff = 6.67472
  ghost atom cutoff = 6.67472
  binsize = 3.33736, bins = 57 9 12
  2 neighbor lists, perpetual/occasional/extra = 1 1 0
  (1) pair sw, perpetual
      attributes: full, newton on
      pair build: full/bin/atomonly
      stencil: full/bin/3d
      bin: standard
  (2) compute orientorder/atom, occasional, copy from (1)
      attributes: full, newton on
      pair build: copy
      stencil: none
      bin: none
Per MPI rank memory allocation (min/avg/max) = 0.8623 | 6.063 | 7.152 Mbytes
Step c_2 Press Volume TotEng KinEng PotEng v_press c_1[4] c_4[1] c_4[2] c_4[3] 
       0    241.83443   -197.51432    204420.41   -23328.634    1755.3002   -25083.934   -121.04976    37.666683    95.094571    14.535418    27.911393 
     200    237.61589   -224.12395    204420.41   -23357.082    1724.6809   -25081.763    -218.5748    39.247215    95.095726    14.536139    27.908823 
     400     244.2916   -335.70945    204420.41   -23317.732     1773.135   -25090.867   -649.95127    41.251614    95.096541    14.533017    27.905305 
     600    244.51049   -574.24249    204420.41   -23203.778    1774.7238   -24978.502   -1484.5558    43.188038    95.095746    14.533658    27.916066 
     800    239.47283   -163.45362    204420.41   -23224.311    1738.1591    -24962.47   -7.5103794    44.553257    95.093481    14.536375    27.918299 
    1000    241.73424   -398.52939    204420.41   -23316.203     1754.573   -25070.776   -895.89624    46.143796     95.09272    14.536478    27.944262 
    1200     240.7428   -445.08881    204420.41    -23290.99    1747.3769   -25038.367   -1053.7436    48.120426    95.093526    14.536857    27.941197 
    1400    241.70622   -302.71477    204420.41   -23285.664    1754.3696   -25040.034   -523.66961    49.766086    95.092953    14.537047     27.94906 
    1600    234.36239   -482.03259    204420.41   -23263.953    1701.0661   -24965.019   -1139.8504    51.412251    95.093933      14.5389     27.94401 
    1800    244.38735   -358.85645    204420.41   -23232.147      1773.83   -25005.977   -737.53462    52.575862    95.093822    14.539116    27.942009 
    2000    244.08213   -320.62525    204420.41   -23170.086    1771.6146     -24941.7   -608.17771    54.989031    95.093752    14.539252    27.953831 
    2200    232.82727   -480.90894    204420.41    -23252.77    1689.9237   -24942.694   -1201.3955    56.853133    95.093147    14.539809    27.934149 
    2400    237.92483   -213.67705    204420.41   -23229.569    1726.9232   -24956.493     -236.447    58.537115    95.093011    14.540059    27.942944 
    2600    239.91289   -262.78364    204420.41   -23285.063    1741.3531   -25026.416   -428.38355    59.202128    95.090331    14.536308    27.920735 
    2800    239.30813   -224.59166    204420.41   -23199.044    1736.9636   -24936.008   -255.59796    60.285718    95.090375    14.533518    27.909669 
    3000    245.58204    -507.8477    204420.41   -23199.699    1782.5014   -24982.201   -1244.7613    62.220059    95.089642     14.53299    27.913331 
    3200    240.97876   -333.17059    204420.41   -23268.427    1749.0895   -25017.516   -626.69616    63.178755    95.089101    14.532219    27.907858 
    3400    243.07133   -306.34972    204420.41   -23261.932    1764.2779    -25026.21    -559.5632    64.916466    95.089402    14.530369    27.868571 
    3600    234.69581   -296.29256    204420.41   -23229.386    1703.4861   -24932.872   -510.31126    67.777446    95.091548    14.528667    27.881013 
    3800    243.89141   -229.36644    204420.41   -23209.972    1770.2303   -24980.203   -313.29299    69.359519     95.09227    14.527335    27.890965 
    4000    244.13143   -417.36417    204420.41   -23278.279    1771.9724   -25050.251   -967.92893    71.120265    95.092462     14.52732    27.910214 
    4200    241.84698   -467.99095    204420.41   -23221.963    1755.3913   -24977.354   -1073.6885     72.48598    95.092055    14.527733    27.894732 
    4400    241.15146   -380.27582    204420.41   -23236.958     1750.343   -24987.301   -795.03128    74.221876    95.089675    14.531707    27.882615 
    4600    238.11542   -353.33512    204420.41   -23319.547    1728.3066   -25047.853   -710.84711    76.827643    95.087678    14.532135    27.896396 
    4800    241.26782    -332.7905    204420.41   -23207.604    1751.1876   -24958.792   -647.13469    78.773575    95.086495    14.531804    27.913309 
    5000    234.96796   -449.18859    204420.41   -23258.933    1705.4615   -24964.394   -1043.7121    81.160066    95.086569    14.532353    27.912863 
    5200    241.37338   -424.67363    204420.41   -23237.593    1751.9538   -24989.547   -986.85741    84.816493    95.086327    14.532438    27.935336 
    5400    242.79555   -224.43891    204420.41   -23240.051    1762.2763   -25002.327   -272.83277    86.563231    95.085615    14.532164    27.951913 
    5600     240.4416   -249.59384    204420.41   -23263.756    1745.1907   -25008.947   -331.21429    87.580525    95.085314    14.530351    27.947541 
    5800    242.02881   -280.69898    204420.41   -23198.604    1756.7111   -24955.315    -438.9564    88.646736    95.086887    14.530088    27.952452 
    6000    235.99012   -216.16385    204420.41   -23210.848    1712.8806   -24923.729   -199.19318    88.495538    95.086945     14.53025    27.961531 
    6200    236.71472   -375.86121    204420.41   -23260.156    1718.1399   -24978.296   -771.23444    88.808943    95.088362    14.529144       27.962 
    6400    237.73019   -467.66945    204420.41   -23236.066    1725.5105   -24961.576   -1092.9833    90.522372     95.08994    14.528658    27.964031 
    6600    233.65371   -207.90678    204420.41   -23230.867    1695.9223    -24926.79   -231.89824    91.630984    95.089901    14.529707    27.945951 
    6800    240.53082   -248.00602    204420.41   -23231.294    1745.8383   -24977.132   -325.50678    92.524303    95.091745    14.531329    27.953271 
    7000    245.32669    -331.1653    204420.41   -23171.887    1780.6479   -24952.535   -623.90685    93.737491    95.091701    14.532963    27.949439 
    7200      233.937   -509.88803    204420.41   -23281.448    1697.9785   -24979.427   -1229.5487    95.175686    95.092048    14.531813    27.932543 
    7400    235.89127   -238.20948    204420.41   -23238.093    1712.1631   -24950.256   -313.18964    97.551863    95.091081    14.530132    27.944926 
    7600    244.76112   -345.22707    204420.41   -23145.648    1776.5429   -24922.191   -643.44716    100.82576    95.089544    14.532959    27.956683 
    7800    231.47942   -431.93331    204420.41   -23255.119    1680.1407    -24935.26   -956.09401    102.80768    95.088961    14.530767    27.955284 
    8000    245.74936   -248.45632    204420.41   -23104.726    1783.7159   -24888.442   -351.35973    105.02188    95.089261    14.531119    27.959595 
    8200    244.83637   -241.35242    204420.41   -23132.502    1777.0891   -24909.591   -327.88359    106.89425    95.089656    14.532298    27.948288 
    8400    244.77736   -440.34163    204420.41   -23104.244    1776.6608   -24880.905   -1020.9244    109.38104    95.089297    14.531857    27.938772 
    8600     246.7401   -463.10755    204420.41   -23166.188    1790.9069   -24957.095   -1120.3427    111.73938    95.090463      14.5345    27.953529 
    8800    243.54922   -239.09655    204420.41   -23200.584    1767.7466   -24968.331   -303.34051     114.7159    95.090537    14.537083    27.959464 
    9000     241.5156   -479.48088    204420.41   -23191.267     1752.986   -24944.253    -1116.544    115.90509    95.091728    14.536503    27.966283 
    9200    241.55345   -263.67932    204420.41   -23122.479    1753.2608    -24875.74    -450.6394    116.72379    95.091486     14.53417    27.974548 
    9400    238.82929   -756.80872    204420.41   -23202.441     1733.488   -24935.929   -2136.2196    119.25226    95.090748     14.53497     27.98397 
    9600    233.87492   -249.22827    204420.41   -23245.932    1697.5279    -24943.46   -343.72104    119.37359    95.090166    14.533707    27.996579 
    9800    245.65445   -146.64407    204420.41    -23115.64    1783.0269   -24898.667    8.2263765    121.08998    95.090048    14.533894    27.994878 
   10000    239.60281    -457.3593    204420.41   -23192.256    1739.1024   -24931.358   -1046.1361    123.23763     95.09128    14.533682    28.003194 
   10200    244.10417    -271.4597    204420.41   -23137.257    1771.7746   -24909.032   -392.82366    125.33918    95.090756    14.531041     28.00417 
   10400    237.32634   -286.17794    204420.41   -23141.247    1722.5792   -24863.827   -492.61121     128.9582    95.091542    14.530707    27.994264 
   10600    234.01362     -563.442    204420.41   -23191.522    1698.5346   -24890.056   -1422.5205    131.49062    95.091872    14.531145    28.016896 
   10800    231.46223   -391.88284    204420.41   -23263.283     1680.016   -24943.299    -796.6907    134.22677    95.091935    14.533865    28.019067 
   11000     235.8247   -222.74157    204420.41   -23285.081    1711.6799   -24996.761   -254.97446    135.45247    95.091857    14.533412     28.01892 
   11200    236.06126   -312.35842    204420.41   -23289.422    1713.3969   -25002.819   -542.40529    138.56442    95.090764    14.532995    28.022776 
   11400    237.18412   -393.44154    204420.41   -23272.378     1721.547   -24993.925   -868.46232    139.81237    95.090062    14.535471    28.002357 
   11600     244.3543   -368.80144    204420.41   -23188.074    1773.5901   -24961.665   -721.44594    141.96852    95.088728    14.534206    27.982568 
   11800    245.28274   -147.40143    204420.41   -23197.634     1780.329   -24977.963   -17.415601     143.5813    95.087767    14.534543    27.958214 
   12000    241.10081   -381.97832    204420.41   -23154.855    1749.9754   -24904.831   -846.82497    145.19001    95.087908    14.532324    27.949719 
   12200     250.8673   -246.20472    204420.41   -23149.512    1820.8632   -24970.375   -353.09499    146.56374    95.087838    14.532751    27.935694 
   12400    236.60758   -416.57486    204420.41   -23203.783    1717.3623   -24921.146   -896.97307    147.66154    95.086925    14.535176    27.921905 
   12600    243.80252   -287.81521    204420.41   -23150.852    1769.5851   -24920.437   -515.48364    149.16217    95.086939    14.536035    27.947644 
   12800    239.75671   -410.59526    204420.41   -23193.377    1740.2195   -24933.596    -921.8188    148.44682    95.086274    14.537668    27.936492 
   13000    240.39317   -108.88307    204420.41   -23227.353    1744.8391   -24972.192    104.49842    149.17846    95.086511    14.540274    27.938174 
   13200    236.51939   -444.67851    204420.41   -23265.526    1716.7222   -24982.249   -1026.6907    150.17315    95.086232    14.544211    27.950006 
   13400    239.36989   -270.21408    204420.41   -23284.739    1737.4119   -25022.151   -455.78823    150.76994    95.087158    14.546232    27.938458 
   13600    236.28688   -277.23717    204420.41   -23255.571    1715.0346   -24970.606   -447.14873     152.0768    95.087469    14.547455     27.93566 
   13800    235.15125   -255.49929    204420.41   -23227.072    1706.7918   -24933.864   -388.67805    153.40034    95.086489    14.547113    27.918346 
   14000     252.8935   -405.16897    204420.41   -23166.791    1835.5699   -25002.361   -913.66926    156.03261    95.087151    14.548496    27.921729 
   14200    236.71866   -183.64768    204420.41   -23250.982    1718.1685    -24969.15   -128.84936    156.76006    95.086534    14.547346      27.9027 
   14400    233.41968   -429.89275    204420.41   -23280.263    1694.2236   -24974.487    -948.6528    159.55993    95.088477    14.543942    27.905205 
   14600     237.2423   -520.14401    204420.41   -23243.244    1721.9693   -24965.213    -1286.821    161.41832    95.087108    14.543292    27.894095 
   14800    240.32559   -219.72294    204420.41   -23208.668    1744.3486   -24953.017   -251.62319    161.10431    95.085079    14.540572     27.89807 
   15000    239.37663   -422.29123    204420.41   -23254.289    1737.4608    -24991.75   -983.00796    163.19243    95.083327    14.537436    27.890688 
   15200    240.30101    -487.7969    204420.41   -23227.703    1744.1702   -24971.873   -1182.8905    165.00207    95.083613    14.536343    27.897799 
   15400    237.14379    -336.4985    204420.41   -23286.533    1721.2543   -25007.787   -648.08684    168.21023    95.082639    14.534249    27.909011 
   15600    242.85252   -282.75507    204420.41   -23135.016    1762.6897   -24897.706    -494.9607    168.95992    95.082114    14.532408    27.892755 
   15800    242.08204   -401.06134    204420.41   -23178.905    1757.0974   -24936.003   -901.41683     170.9225    95.081866     14.53581    27.892913 
   16000    243.92278   -237.93519    204420.41   -23248.508     1770.458   -25018.966   -297.87705    173.24063    95.081384    14.538682    27.894775 
   16200    239.05306   -392.11639    204420.41   -23190.651    1735.1122   -24925.763   -878.40404    174.58852    95.080732    14.538717    27.909066 
   16400     236.9758   -400.90301    204420.41   -23227.842    1720.0349   -24947.877   -872.14687    177.47683    95.078387    14.539552    27.910114 
   16600    241.85868   -182.01642    204420.41   -23161.077    1755.4762   -24916.553   -85.892765    179.94723    95.078892    14.538354    27.927274 
   16800    241.97435   -197.55529    204420.41    -23200.97    1756.3158   -24957.286   -184.76902    184.45209    95.079806    14.537881    27.932129 
   17000    234.14795   -325.56308    204420.41   -23239.473    1699.5096   -24938.982   -582.05234    185.60395    95.080879    14.535107    27.911003 
   17200    240.14669   -394.69531    204420.41   -23232.222    1743.0501   -24975.273   -831.67263    185.56645    95.081271    14.538163     27.89709 
   17400    238.45697   -221.82739    204420.41   -23301.119    1730.7856   -25031.905   -243.37504    186.22561     95.08219    14.539362    27.888426 
   17600    237.74873   -160.31495    204420.41   -23225.674    1725.6451   -24951.319   -51.206279    187.10865    95.082198    14.540778    27.881125 
   17800    239.06154   -462.91627    204420.41   -23229.971    1735.1738   -24965.145    -1093.998    189.20055     95.08159    14.542374    27.870181 
   18000    236.17884   -352.14847    204420.41   -23178.059    1714.2504   -24892.309   -688.31712    190.16113    95.081832    14.540637    27.881013 
   18200     242.2372   -297.01515    204420.41   -23203.349    1758.2236   -24961.573    -550.2062     191.5673    95.081758    14.539601    27.876189 
   18400    241.44053   -302.22168    204420.41   -23190.185    1752.4412   -24942.626   -497.80398    193.51496    95.080698    14.536058    27.884615 
   18600     236.7911   -410.80629    204420.41   -23198.963    1718.6943   -24917.657   -920.02502    193.77683    95.081512    14.532544    27.887654 
   18800     227.7658   -324.82176    204420.41   -23238.806    1653.1862   -24891.992   -559.43079    196.15848    95.080379    14.531008    27.889914 
   19000    240.47371   -328.79516    204420.41   -23155.283    1745.4237   -24900.706    -629.5082    196.91045    95.080572    14.530979    27.888198 
   19200    245.18507   -422.71344    204420.41   -23214.656    1779.6201   -24994.276    -941.9445    196.63464    95.081917     14.53218    27.871001 
   19400    243.38411   -311.72758    204420.41   -23151.945    1766.5482   -24918.494   -560.98622    198.97961    95.082649    14.533987    27.879446 
   19600    238.42347   -406.16192    204420.41   -23148.273    1730.5425   -24878.816   -897.57651    200.57275    95.083172    14.534396    27.881264 
   19800    244.00075   -281.56658    204420.41   -23147.578    1771.0239   -24918.602    -413.8369    201.74502    95.083447    14.532494    27.882731 
   20000    240.54591   -423.47301    204420.41   -23138.051    1745.9478   -24883.999   -978.18127    203.52957    95.082911    14.536212    27.903683 
   20200    239.60194   -429.60248    204420.41   -23210.655    1739.0962   -24949.751   -947.79083    207.00885    95.080855    14.537596    27.897028 
   20400    242.82568   -54.152243    204420.41   -23131.078     1762.495   -24893.573    365.93623    206.63627    95.079894    14.539091    27.902431 
   20600    237.79707     -478.804    204420.41   -23190.979    1725.9959   -24916.975   -1161.1248    206.13973    95.079548    14.539446    27.870115 
   20800    243.54609    -213.2433    204420.41   -23132.002    1767.7239   -24899.726   -209.47768    209.49435    95.080321    14.541521    27.884189 
   21000    243.00986   -299.14315    204420.41   -23173.714    1763.8318   -24937.546   -524.66666    212.72004     95.08196    14.540399     27.85789 
   21200     245.3948   -385.32843    204420.41   -23134.111    1781.1423   -24915.254    -793.1756    215.48448    95.080737    14.541878     27.85437 
   21400    242.14106   -378.63783    204420.41   -23181.597    1757.5258   -24939.123   -808.17955    214.46969     95.08047    14.539588    27.876561 
   21600     246.1549   -325.58409    204420.41   -23090.785    1786.6594   -24877.444   -625.11058     215.2314    95.079283    14.540563    27.900932 
   21800    237.51705   -245.94946    204420.41   -23231.496    1723.9634   -24955.459   -351.38813    216.67026    95.079581    14.541895    27.901671 
   22000    240.50609   -292.48239    204420.41   -23289.617    1745.6588   -25035.276    -534.7287    216.47946    95.077852    14.542627    27.898415 
   22200     232.4085   -429.80196    204420.41   -23328.737    1686.8842   -25015.621   -956.73261    219.68178    95.076989    14.542187    27.905636 
   22400    238.72432   -197.81874    204420.41   -23174.351    1732.7261   -24907.077   -178.01298    221.82705     95.07817    14.543532    27.926759 
   22600    242.41727   -322.55509    204420.41     -23203.5    1759.5306   -24963.031   -570.31489    224.17429    95.077959    14.541085    27.911718 
   22800    244.73594   -544.27387    204420.41   -23201.859    1776.3601   -24978.219   -1371.4328    225.23716    95.077893     14.54145    27.919541 
   23000    238.21832   -309.50483    204420.41    -23276.22    1729.0535   -25005.273   -539.63658    223.44781    95.078335    14.541561    27.918938 
   23200    242.23491   -279.12338    204420.41   -23226.788     1758.207   -24984.995   -457.11218    222.84509    95.078998    14.542993       27.933 
   23400    238.76417   -452.82552    204420.41   -23215.269    1733.0154   -24948.284   -1053.3837    224.64023     95.07714    14.544868     27.94332 
   23600    243.46264   -321.11526    204420.41   -23113.133    1767.1182   -24880.251   -630.24609    227.29158    95.078392    14.546167    27.949591 
   23800    248.06698   -218.53548    204420.41   -23134.709    1800.5377   -24935.247   -235.76163     228.9254    95.079235    14.545693     27.96392 
   24000    239.06516    -434.0464    204420.41   -23173.145    1735.2001   -24908.345   -980.15934    230.19978    95.079242    14.548638    27.980362 
   24200    240.23187   -369.50266    204420.41   -23139.723    1743.6684   -24883.391     -780.357    231.47123    95.079606    14.551717    27.954592 
   24400    243.17336   -516.64901    204420.41   -23191.961    1765.0185   -24956.979   -1231.0664    232.82432    95.079077    14.554412    27.957983 
   24600    232.32503     -230.652    204420.41    -23238.33    1686.2783   -24924.609   -279.98466    233.73127    95.080912    14.554583    27.967169 
   24800     236.7956     -177.502    204420.41   -23195.254     1718.727   -24913.981   -90.042577    233.63368    95.082034    14.555661    27.982446 
   25000    235.53182   -353.12952    204420.41   -23169.217    1709.5541   -24878.772   -693.06196    235.39983    95.079406    14.556202    27.985583 
   25200    233.75799   -138.27297    204420.41   -23327.762    1696.6792   -25024.441    37.051222    237.41848    95.078464    14.558172    27.985165 
   25400    243.77233   -444.00124    204420.41    -23241.99     1769.366   -25011.356   -1016.8871    241.03529    95.077107    14.556371    27.987461 
   25600    250.40063   -448.48878    204420.41   -23112.041     1817.476   -24929.517   -1077.6697    243.46451    95.074949    14.558223     27.98818 
   25800    240.97824   -446.09969    204420.41   -23150.559    1749.0857   -24899.645   -1030.5682    247.15366     95.07459    14.559949     27.99545 
   26000    235.13645   -480.23418    204420.41   -23212.348    1706.6844   -24919.033   -1162.4727    247.93794    95.074492    14.560567    28.008896 
   26200    238.86201   -638.54762    204420.41   -23209.645    1733.7255    -24943.37   -1677.8987    250.61875    95.074135    14.561359    28.002415 
   26400    238.97658   -53.964861    204420.41   -23282.645    1734.5571   -25017.202    357.63419    252.17422       95.075    14.558061    27.975465 
   26600    243.06279   -260.10092    204420.41   -23237.483     1764.216   -25001.699   -342.36843    255.80254    95.075011     14.55701    27.991422 
   26800    241.29014   -277.71144    204420.41   -23262.861    1751.3496   -25014.211    -443.0401    259.28594    95.073522     14.55689    27.993651 
   27000    245.09453   -503.90706    204420.41   -23210.653    1778.9629   -24989.616   -1219.0591    262.46715    95.073908    14.557481    28.007277 
   27200    241.98646   -321.58904    204420.41   -23257.834    1756.4037   -25014.238   -580.16133    263.22553    95.075441    14.558811    28.021829 
   27400    237.73909   -297.28222    204420.41   -23221.153    1725.5751   -24946.728   -509.66158    264.50966    95.077501    14.558704    28.039351 
   27600    228.49462   -452.08123    204420.41   -23341.484    1658.4762    -24999.96   -1033.4636    269.33084    95.076748    14.561734    28.001287 
   27800    248.76389   -449.35812    204420.41   -23213.762    1805.5961   -25019.358   -1061.0156    270.59587    95.076895    14.565573    27.979509 
   28000    238.28362   -364.98214    204420.41   -23303.636    1729.5274   -25033.163   -778.82627    271.82971    95.075814    14.564974    27.977003 
   28200     243.3659   -473.04935    204420.41   -23287.341     1766.416   -25053.757   -1130.6249    273.50887    95.076627    14.563953    27.986178 
   28400    240.30771   -493.28905    204420.41    -23294.46    1744.2188   -25038.679   -1162.6997    275.30729    95.077663    14.564926    27.977069 
   28600    244.37924   -384.59721    204420.41   -23307.949    1773.7711    -25081.72   -782.39129    276.12516    95.077568    14.563968    27.975595 
   28800    237.18855   -351.82715    204420.41   -23292.378    1721.5791   -25013.957   -713.80838    279.41316    95.077465    14.564209    27.959663 
   29000    242.91903   -238.08784    204420.41   -23256.406    1763.1725   -25019.579   -305.81603    280.18276    95.077728    14.565895     27.92332 
   29200    242.99649   -346.15052    204420.41   -23218.895    1763.7347   -24982.629   -684.02117     279.5924    95.075677    14.567665    27.941116 
   29400    237.72727   -377.26431    204420.41   -23219.934    1725.4893   -24945.423   -773.67935    281.31473    95.075249    14.570918    27.942684 
   29600    245.50701   -414.98589    204420.41   -23198.152    1781.9567   -24980.109   -917.20521    282.91535    95.075835    14.576996    27.957261 
   29800     234.5796   -268.52599    204420.41   -23307.024    1702.6426   -25009.667   -429.84199    286.07161    95.074839    14.581683    27.952472 
   30000    236.37182   -334.85525    204420.41   -23360.997    1715.6511   -25076.648   -617.71446    288.27242    95.073483    14.584301    27.957153 
   30200    237.99079   -137.52967    204420.41   -23296.337     1727.402   -25023.739    90.022096    290.19489    95.071401    14.585134    27.940844 
   30400    241.67374   -359.20079    204420.41   -23319.468    1754.1339   -25073.602   -718.31247     290.6982     95.06972    14.585313    27.932675 
   30600    235.01679   -397.88381    204420.41   -23344.556    1705.8159   -25050.372   -823.42035    288.37797    95.067163    14.584712    27.935282 
   30800    233.89774   -475.10522    204420.41   -23258.653    1697.6935   -24956.347   -1117.5989    287.07155     95.06703    14.582533    27.955556 
   31000     248.5259   -308.55811    204420.41    -23233.14    1803.8687   -25037.009   -546.43292    285.96808    95.067358    14.581758    27.946335 
   31200    241.27158   -397.17898    204420.41   -23223.946    1751.2149   -24975.161    -884.5118    285.71141    95.066754    14.582683    27.942896 
   31400    241.47571   -299.94174    204420.41   -23252.508    1752.6965   -25005.205   -524.12946    287.43039    95.066596    14.582607     27.94163 
   31600    239.35734   -299.78436    204420.41   -23339.549    1737.3208    -25076.87    -500.2649    289.85666    95.065653     14.58406    27.943461 
   31800    242.82868   -592.97668    204420.41    -23235.98    1762.5167   -24998.496   -1553.4281    292.97836    95.065195    14.584186    27.949314 
   32000     237.5512   -320.40124    204420.41    -23313.24    1724.2114   -25037.451   -624.99083    292.41848    95.064631     14.58372     27.94731 
   32200     237.2405   -452.75756    204420.41   -23323.361    1721.9562   -25045.317   -1066.8951    293.38323     95.06342    14.584716    27.944601 
   32400    237.45224   -310.71658    204420.41   -23327.735    1723.4931   -25051.228   -541.01369     291.9965    95.062799    14.585892    27.945902 
   32600    241.85873   -235.57193    204420.41   -23236.625    1755.4766   -24992.102   -319.95328    293.74701    95.062677    14.586945    27.951871 
   32800    237.87175   -358.40734    204420.41   -23207.483     1726.538   -24934.021   -688.20558    296.31176    95.064021    14.588651    27.936895 
   33000    243.92695   -283.07663    204420.41   -23239.904    1770.4883   -25010.392   -474.20315    296.14948    95.062937    14.587365    27.919962 
   33200    238.74058   -289.65058    204420.41   -23241.358    1732.8442   -24974.202    -487.7585    295.76346    95.065245    14.589556    27.914848 
   33400    238.87798    -292.7007    204420.41   -23309.425    1733.8414   -25043.266   -461.35678    293.76134    95.063918     14.59146    27.920334 
   33600    237.67492   -571.22443    204420.41   -23328.141    1725.1093    -25053.25   -1438.0712    293.46596    95.063298    14.592892    27.923626 
   33800    246.59813   -381.57203    204420.41    -23170.63    1789.8764   -24960.507   -807.31155    296.97175    95.064212    14.596044    27.918651 
   34000    235.45644   -341.84307    204420.41   -23286.334     1709.007   -24995.341   -631.52036    299.90608    95.064304    14.598485    27.909848 
   34200    241.59805   -87.343807    204420.41   -23284.193    1753.5844   -25037.777    210.06433    301.35388    95.064965    14.599957     27.91492 
   34400    234.30083   -236.90974    204420.41   -23318.993    1700.6193   -25019.612   -291.09309    302.33707    95.063881    14.599631    27.918478 
   34600    240.91463   -316.84109    204420.41   -23157.011     1748.624   -24905.635   -604.49895    303.83382    95.063811     14.59977    27.917917 
   34800    239.65789    -268.4448    204420.41   -23270.831    1739.5023   -25010.333   -368.99928    307.39396    95.062864    14.602614    27.894354 
   35000    238.84171   -593.96326    204420.41   -23312.216    1733.5782   -25045.794   -1538.6595    309.54625    95.061508    14.604626    27.885334 
   35200    240.29337   -154.50834    204420.41   -23205.191    1744.1147   -24949.306   -13.175851    309.08964    95.061444    14.608708    27.880903 
   35400    235.87604   -523.52822    204420.41   -23221.617    1712.0525    -24933.67   -1339.0027    311.37348     95.06047     14.60932    27.868717 
   35600    244.13749   -244.25434    204420.41   -23232.753    1772.0164   -25004.769   -325.50837    312.40144    95.059704    14.610496     27.85789 
   35800    241.93609   -459.77612    204420.41   -23147.313     1756.038   -24903.351   -1079.8317    313.65456    95.057155    14.610241    27.839796 
   36000    234.07979   -384.87148    204420.41   -23277.089    1699.0149   -24976.104    -841.8626    313.10747    95.058835    14.611419    27.831097 
   36200    232.05284   -430.79721    204420.41   -23243.552    1684.3027   -24927.855   -935.01354    314.94078     95.06038    14.611531    27.841398 
   36400     235.7888   -362.91458    204420.41   -23164.269    1711.4194   -24875.688   -740.98979     316.3929    95.059953    14.608829    27.854389 
   36600    241.82342   -422.19252    204420.41   -23177.736    1755.2203   -24932.956   -975.95076    316.68219    95.060683    14.608741    27.871256 
   36800    239.50548   -334.89012    204420.41   -23259.528    1738.3961   -24997.924   -638.83669    318.11333    95.063021    14.610181    27.874604 
   37000    243.52933   -267.53013    204420.41    -23256.06    1767.6023   -25023.663   -401.04508    319.62927    95.064032    14.610694    27.867347 
   37200    241.40545   -371.29257    204420.41   -23292.949    1752.1865   -25045.136   -744.93615    319.34424     95.06646     14.61622      27.8642 
   37400    236.00646   -338.52562    204420.41   -23299.429    1712.9992   -25012.429    -649.6826    319.30471    95.065079    14.618759     27.86937 
   37600    233.11194   -459.37113    204420.41   -23317.311      1691.99   -25009.301   -1120.5786    320.72944    95.064533     14.61928    27.861201 
   37800    232.21536   -240.91014    204420.41   -23327.123    1685.4824   -25012.605    -338.0488    322.77136    95.063288    14.618542     27.86062 
   38000    238.47573   -443.79696    204420.41   -23206.153    1730.9218   -24937.075   -1014.2564    325.25003      95.0624    14.619796    27.879409 
   38200    244.45671   -255.51528    204420.41   -23190.629    1774.3334   -24964.962   -414.15634     325.4361    95.062931    14.621356    27.878009 
   38400    243.52517   -295.59645    204420.41   -23141.564     1767.572   -24909.136   -530.41102    325.84934    95.063422     14.62252    27.862219 
   38600    240.39495   -73.883682    204420.41   -23186.606    1744.8521   -24931.458    280.74026    326.97889    95.063503      14.6279    27.860107 
   38800    240.75451   -450.11171    204420.41   -23159.882    1747.4618   -24907.344   -1088.7347    331.35719    95.064997    14.628282    27.866734 
   39000     241.6286   -354.80705    204420.41   -23125.405    1753.8062   -24879.212   -734.60775     335.6443    95.065507    14.630239    27.877584 
   39200    239.03332   -547.11954    204420.41   -23229.251     1734.969    -24964.22   -1372.1565    337.26923    95.066116    14.632785    27.886042 
   39400    238.97628   -202.50599    204420.41   -23206.517    1734.5549   -24941.072   -195.65296    340.32787    95.065483    14.633628    27.890642 
   39600    240.32039    -389.4175    204420.41   -23165.331    1744.3109   -24909.642    -824.1908    341.69767     95.06435    14.635674    27.894999 
   39800    238.40237   -505.10294    204420.41    -23255.86    1730.3894   -24986.249   -1236.0638     341.3571    95.061228     14.63747    27.895554 
   40000    232.74116   -346.19887    204420.41   -23211.737    1689.2988   -24901.035   -688.84184    338.97486    95.061337    14.639346    27.904068 
   40200    233.63053   -457.47699    204420.41   -23208.049    1695.7541   -24903.803   -1070.0696    339.93921    95.061824    14.637609    27.886956 
   40400     235.0356   -288.70533    204420.41   -23216.752    1705.9524   -24922.705   -540.88154     340.4099    95.059918    14.634572    27.878697 
   40600    239.99781   -423.76174    204420.41   -23102.758    1741.9695   -24844.727   -929.97216    340.43852    95.058627    14.631422    27.882619 
   40800    238.71884   -527.25529    204420.41   -23211.671    1732.6864   -24944.358   -1355.5307    339.42502    95.057772    14.631925    27.885567 
   41000    237.85415   -257.20977    204420.41   -23235.562    1726.4102   -24961.972   -415.78319    341.14632    95.057146    14.631456       27.884 
   41200    248.68919   -250.28463    204420.41   -23156.557    1805.0539   -24961.611   -365.55101    343.84156    95.056604    14.630694    27.877151 
   41400    240.40548   -529.32216    204420.41   -23199.208    1744.9285   -24944.137   -1332.3514    345.49542    95.055265    14.630499    27.891703 
   41600    238.32671   -361.43646    204420.41   -23176.012    1729.8402   -24905.852   -747.16845    346.08192    95.054164    14.631035    27.894521 
   41800    245.00144   -209.99499    204420.41   -23182.991    1778.2872   -24961.279   -237.95293    345.64587    95.054089    14.630223     27.89638 
   42000    237.08897   -336.16386    204420.41   -23237.299    1720.8564   -24958.155   -618.64346    349.33054    95.055001    14.628901    27.898175 
   42200    240.09451   -135.54721    204420.41   -23281.516    1742.6714   -25024.188    30.996665    348.18864    95.055911    14.630728    27.907957 
   42400    237.96267    -443.5221    204420.41   -23229.864    1727.1979   -24957.062   -1031.8919    349.69473    95.056362    14.632372    27.905311 
   42600    242.17874   -160.18167    204420.41   -23224.543    1757.7993   -24982.343   -46.016071    352.09272    95.057158    14.632687    27.886437 
   42800    233.10567   -262.92648    204420.41   -23192.318    1691.9445   -24884.263   -388.26365    354.94428    95.057595     14.62891    27.868421 
   43000    242.54763   -416.47844    204420.41   -23243.955    1760.4768   -25004.432   -928.47535    355.86974    95.056799    14.629788    27.863109 
   43200    237.19745    -499.5199    204420.41   -23269.042    1721.6437   -24990.685   -1212.1858    357.34745    95.055444    14.628762    27.871995 
   43400    238.11558   -423.48294    204420.41   -23262.641    1728.3077   -24990.949   -945.06709    358.08382    95.056242    14.629765    27.859211 
   43600    238.50286   -449.26208    204420.41   -23251.687    1731.1187   -24982.806   -983.19302    357.31806    95.056702    14.630519    27.852651 
   43800    238.92257   -470.14423    204420.41   -23279.777    1734.1651   -25013.942   -1090.6301    358.00812    95.057153    14.626215    27.864443 
   44000    234.01574   -410.87802    204420.41   -23299.595      1698.55   -24998.145   -883.73429    358.05015    95.057519    14.624528    27.858613 
   44200     240.1315   -388.17621    204420.41   -23216.263    1742.9399   -24959.202   -802.94224    361.06326    95.057304    14.626153    27.867084 
   44400    239.54533   -472.17985    204420.41    -23207.25    1738.6853   -24945.936   -1103.3686    363.69073    95.055451     14.62569    27.898671 
   44600    235.71631   -315.97462    204420.41   -23243.678    1710.8932   -24954.571   -585.98752    364.60081    95.054879    14.626952    27.898619 
   44800    233.92435   -605.21917    204420.41   -23216.934    1697.8867   -24914.821   -1582.0745    366.29481    95.055828    14.627454    27.919935 
   45000    244.43642   -326.75629    204420.41   -23196.831    1774.1861   -24971.017   -592.76065    367.60002    95.055631    14.628253     27.91223 
   45200    240.60685   -344.00175    204420.41    -23206.78    1746.3901    -24953.17   -642.16222    368.37685    95.054257    14.629247     27.90182 
   45400    236.31815   -308.18558    204420.41   -23266.783    1715.2615   -24982.044   -549.70093     368.5577    95.054261    14.631551     27.86734 
   45600    245.46132   -388.31493    204420.41   -23221.143    1781.6251   -25002.768   -826.96527    369.27816    95.055224    14.633684    27.852055 
   45800    237.12965   -253.75687    204420.41   -23244.883    1721.1516   -24966.035   -360.15818    369.53621    95.054139    14.632204    27.856108 
   46000    241.92402   -432.47714    204420.41   -23144.984    1755.9505   -24900.934   -963.53894    368.85371    95.055053    14.628444    27.863629 
   46200    244.29208   -377.98361    204420.41   -23075.835    1773.1385   -24848.973   -795.42517    369.66154    95.054357    14.627783    27.876368 
   46400    238.12236   -272.71047    204420.41   -23197.105     1728.357   -24925.462   -423.51434    371.23292    95.054646    14.628515    27.887402 
   46600    238.38232   -330.33877    204420.41    -23220.08    1730.2439   -24950.324   -622.98399    373.42764     95.05411     14.62978    27.903425 
   46800    242.01272   -280.60879    204420.41   -23191.022    1756.5943   -24947.616   -469.89191    373.44293     95.05461    14.631419    27.906393 
   47000    245.59563   -202.45219    204420.41   -23189.823       1782.6   -24972.424   -196.94676    375.16716    95.056123    14.632873    27.919183 
   47200    234.94994   -204.45811    204420.41   -23302.799    1705.3307    -25008.13   -219.17251    379.63476    95.054743    14.631972    27.916141 
   47400    242.57224    -431.9954    204420.41   -23231.585    1760.6554    -24992.24   -992.65476    384.85272     95.05328    14.633359    27.910238 
   47600    242.78695   -215.37636    204420.41   -23246.674    1762.2138   -25008.888   -278.27671    386.63488    95.054388     14.63527    27.910845 
   47800    231.87784   -78.666815    204420.41   -23283.005    1683.0326   -24966.037    264.27107    384.37097    95.054024    14.637284    27.883795 
   48000    238.27862   -400.94752    204420.41   -23287.506    1729.4912   -25016.997   -867.59816    385.24918    95.054305    14.636803    27.857643 
   48200    239.19185   -181.43848    204420.41   -23229.072    1736.1196   -24965.192    -98.02062    387.59564    95.055156    14.636677    27.862972 
   48400    234.55311   -208.90861    204420.41   -23235.406    1702.4504   -24937.857   -237.75537    387.68682    95.053443    14.636261    27.857716 
   48600     236.8753   -143.47642    204420.41   -23291.987    1719.3055   -25011.292    58.897634    388.51136    95.055259    14.636119    27.871355 
   48800    234.46592    -354.5155    204420.41   -23238.961    1701.8175   -24940.778    -680.1861    390.15868    95.055796     14.63688    27.871314 
   49000    232.54224   -333.08743    204420.41   -23267.504    1687.8549   -24955.359   -660.37507    390.61767    95.055656    14.640104    27.888498 
   49200    241.10908   -538.99354    204420.41   -23235.001    1750.0354   -24985.036   -1371.3331    389.63327    95.054621    14.644259    27.883156 
   49400    236.31845   -276.64896    204420.41   -23290.871    1715.2637   -25006.135   -468.46715    391.12007    95.054926    14.645897    27.879832 
   49600    236.82753   -419.44971    204420.41    -23277.81    1718.9587   -24996.769   -966.01955    391.81924    95.055137    14.647989    27.889585 
   49800    243.39648   -294.42756    204420.41   -23229.228     1766.638   -24995.866   -511.00889    394.48771    95.055564    14.649338    27.894687 
   50000    238.97807   -190.73818    204420.41   -23267.885     1734.568   -25002.453    -164.9192    395.66343    95.054497    14.652049    27.889073 
   50200    240.41567   -511.87723    204420.41   -23181.188    1745.0024    -24926.19   -1248.3142     400.8792    95.054732    14.653719    27.905909 
   50400    239.23208    -250.9004    204420.41   -23171.194    1736.4116   -24907.605    -376.5801    402.67969    95.051689    14.653401    27.929248 
   50600    246.83316   -260.83983    204420.41   -23043.445    1791.5823   -24835.027   -405.49438    402.11928     95.05053    14.654466    27.925225 
   50800    238.89849   -200.85586    204420.41   -23271.473    1733.9903   -25005.463    -165.8045     403.5122    95.050314    14.653261    27.924393 
   51000    239.92802   -332.25615    204420.41     -23263.8    1741.4629   -25005.263   -662.33836    405.32881     95.05017      14.6535    27.922053 
   51200    238.11206   -361.52866    204420.41   -23257.447    1728.2822   -24985.729   -717.17667    407.78382     95.05024     14.66025    27.919846 
   51400    242.53865   -232.11002    204420.41   -23240.562    1760.4116   -25000.974   -284.69758    408.97294    95.051942    14.661179    27.910207 
   51600     240.5458   -258.28264    204420.41   -23269.622    1745.9469   -25015.569   -367.18165    410.87048    95.051584    14.660366    27.897063 
   51800    237.52857   -313.85519    204420.41   -23239.137    1724.0471   -24963.184   -638.70445    410.42494    95.050544    14.661527    27.900115 
   52000    232.28371   -356.10843    204420.41   -23276.932    1685.9785    -24962.91   -717.61365    409.41118    95.049162     14.66228    27.896812 
   52200    232.75956   -471.26335    204420.41    -23269.69    1689.4323   -24959.123   -1140.0966    411.73636    95.048865    14.661201    27.904514 
   52400    231.37627   -376.38587    204420.41   -23350.239     1679.392   -25029.631   -777.97634    411.49175    95.049392    14.657674    27.917738 
   52600    240.48799   -332.64489    204420.41   -23235.317    1745.5273   -24980.845   -614.39805    413.20219    95.048361    14.657386    27.912399 
   52800    240.94741   -423.74347    204420.41   -23162.181     1748.862   -24911.043   -929.88298    412.85249    95.047242    14.657563    27.897257 
   53000    244.87334   -335.47667    204420.41   -23166.612    1777.3574   -24943.969   -669.60611    414.73056    95.046988    14.656433    27.884659 
   53200    241.37608   -325.41347    204420.41   -23269.762    1751.9733   -25021.735   -596.19295    418.21227    95.048348    14.655106    27.874131 
   53400    239.01198   -257.57792    204420.41   -23238.234    1734.8141   -24973.049   -394.78452    418.27416    95.048784    14.654167    27.874056 
   53600    235.42479   -349.64686    204420.41   -23291.931    1708.7773   -25000.708   -715.14305    418.12858    95.049777    14.650949    27.871553 
   53800    237.93009   -322.51511    204420.41   -23211.094    1726.9614   -24938.056   -607.31719    419.97704    95.048895    14.647372    27.874425 
   54000    238.85504   -350.01908    204420.41   -23189.679     1733.675   -24923.354   -710.43955    422.61039    95.049877    14.646742    27.873906 
   54200    240.36177   -337.77589    204420.41   -23176.899    1744.6112    -24921.51   -638.75231    423.63634    95.049308    14.646187    27.877186 
   54400    245.61686   -556.16168    204420.41    -23118.77    1782.7541   -24901.524   -1407.2433    427.89982    95.048685    14.645973    27.859275 
   54600    247.14792   -121.50766    204420.41   -23203.774    1793.8669   -24997.641    75.594683    427.13588    95.047552    14.646136    27.866888 
   54800    242.73088   -355.20012    204420.41   -23123.298    1761.8068   -24885.104   -716.67284       428.82    95.048028    14.648325    27.870314 
   55000    246.59623   -368.95349    204420.41   -23098.988    1789.8626   -24888.851   -750.52705    429.65354    95.047733    14.651956    27.862579 
   55200    235.11697   -491.23346    204420.41   -23275.864     1706.543   -24982.407   -1212.1676    427.55902    95.048981      14.6565    27.849499 
   55400    231.29701   -435.36376    204420.41   -23242.143    1678.8168    -24920.96   -979.08766    429.09543    95.048266    14.658258    27.849868 
   55600    235.25968   -246.64956    204420.41   -23185.303    1707.5789   -24892.882   -320.31887    429.92171    95.048957    14.656798    27.862041 
   55800    246.89157   -285.68626    204420.41   -23087.738    1792.0063   -24879.744   -499.69012    429.42231    95.050747    14.655119    27.838237 
   56000    248.90333   -149.41754    204420.41   -23112.567    1806.6082   -24919.176    38.240582    428.47473    95.051102    14.656011    27.837372 
   56200    242.67169   -279.05176    204420.41   -23157.747    1761.3773   -24919.125    -450.6166    429.79286    95.049216    14.655144    27.836368 
   56400    233.81762   -310.39615    204420.41   -23255.161     1697.112   -24952.273   -573.29765    431.45683    95.048806     14.65355     27.84196 
   56600     232.5427   -315.19603    204420.41   -23365.792    1687.8583    -25053.65   -566.98914    434.23642    95.052044    14.652397    27.819082 
   56800    242.33521   -297.76243    204420.41   -23273.282     1758.935   -25032.217   -506.68654    435.93314    95.054024    14.651951     27.82754 
   57000    237.85103   -304.74994    204420.41   -23363.923    1726.3876   -25090.311   -527.62764    439.17329    95.052638     14.65239     27.82469 
   57200    244.47659   -467.08455    204420.41   -23249.491    1774.4777   -25023.969   -1098.1155    443.08426    95.051207    14.653462    27.841713 
   57400    234.62659   -319.98031    204420.41   -23256.199    1702.9837   -24959.183   -560.72558    445.18106    95.050807    14.654872    27.847817 
   57600     236.6912   -454.96038    204420.41   -23283.204    1717.9692   -25001.173   -1062.5583    445.41276    95.052611    14.656239    27.856862 
   57800    241.68769    -322.3368    204420.41   -23200.751    1754.2351   -24954.986   -556.92775    448.05783    95.054004    14.654341    27.863157 
   58000    239.17123   -244.55239    204420.41   -23230.461      1735.97   -24966.431   -287.35045    450.16164    95.053717    14.653557     27.83065 
   58200    237.17508   -384.13251    204420.41   -23199.684    1721.4813   -24921.165    -801.7304     453.9556    95.053034     14.65275    27.843377 
   58400    241.91926   -362.24144    204420.41   -23236.825    1755.9159   -24992.741   -743.50721    458.38035    95.053253    14.656537    27.858161 
   58600    237.94056   -134.55998    204420.41   -23261.134    1727.0374   -24988.171    44.839546    460.27542    95.054107     14.66037    27.841705 
   58800     235.2788   -404.46505    204420.41   -23235.614    1707.7177   -24943.331   -883.04525    463.29965    95.054414    14.661499    27.846261 
   59000     243.0569   -257.16957    204420.41   -23200.756    1764.1732   -24964.929   -386.02419    462.15827    95.052591    14.660907    27.843584 
   59200    240.12638   -175.42715    204420.41   -23260.364    1742.9027   -25003.267   -46.048141    458.71356     95.05055    14.658944    27.861496 
   59400    238.27749   -192.69321    204420.41   -23262.925     1729.483   -24992.408   -135.28419    458.84865     95.04927    14.658558    27.861649 
   59600    234.97656   -144.14769    204420.41   -23340.558    1705.5239   -25046.082    37.442768    459.10709     95.04859    14.658558    27.885929 
   59800    238.86775   -426.77295    204420.41   -23267.907    1733.7672   -25001.674    -980.3882      463.601    95.047556    14.658917    27.872728 
   60000    239.31916   -290.57116    204420.41   -23241.545    1737.0437   -24978.589   -468.71988    464.84678    95.048148    14.659127    27.875356 
   60200    240.07456   -265.39244    204420.41   -23308.922    1742.5265   -25051.449   -433.34075    466.82251    95.047651     14.65856    27.890476 
   60400    245.21493   -464.44966    204420.41   -23258.244    1779.8368   -25038.081   -1112.1504    468.70395    95.048557    14.657422    27.903141 
   60600    238.75656   -65.964221    204420.41   -23274.992    1732.9602   -25007.952    252.75098    466.99666    95.050225    14.659401    27.918747 
   60800    241.70693   -332.52756    204420.41   -23144.417    1754.3747   -24898.792   -620.94028    466.34137    95.052061    14.660179    27.919863 
   61000    239.13118    -383.6821    204420.41   -23199.311    1735.6793    -24934.99   -812.05731    470.98303    95.051943    14.659091    27.922854 
   61200    239.92639   -281.32076    204420.41   -23137.296    1741.4511   -24878.747   -437.98353     472.5539    95.051439    14.659065    27.933989 
   61400    237.37448   -229.75393    204420.41   -23174.813    1722.9287   -24897.742   -301.91812    473.17447    95.052039    14.658239    27.935858 
   61600     239.9911   -402.39257    204420.41   -23195.559    1741.9208    -24937.48    -877.6038    473.83509    95.052477    14.657339    27.908384 
   61800    235.74179    -464.8136    204420.41   -23224.251    1711.0782    -24935.33   -1134.3036    474.43421    95.054009    14.655408    27.913998 
   62000    241.87806   -295.58481    204420.41   -23124.743    1755.6168    -24880.36   -523.99517    475.33588    95.053504    14.653117    27.917747 
   62200     240.6431   -151.08811    204420.41   -23152.494    1746.6532   -24899.147   -24.383975    477.62494    95.052887    14.651455     27.91348 
   62400    239.04026   -372.28351    204420.41   -23172.534    1735.0194   -24907.554   -772.86107    479.98184    95.052106    14.651136    27.923886 
   62600    239.24231   -339.18641    204420.41    -23220.24    1736.4858   -24956.726   -661.02611    482.10345    95.050714    14.650039    27.919579 
   62800    238.15111   -434.40609    204420.41   -23288.905    1728.5657   -25017.471   -1039.6921    481.99572    95.050866    14.650433    27.914973 
   63000    236.48598   -343.69447    204420.41   -23181.777    1716.4797   -24898.257   -660.24758    480.47118    95.051695    14.652254    27.923859 
   63200    245.92737   -392.26827    204420.41   -23200.607    1785.0078   -24985.615   -874.89462     481.3908    95.052693    14.649432    27.928014 
   63400     237.5198   -286.85378    204420.41   -23271.141    1723.9834   -24995.124   -484.13859    481.42897    95.053556    14.649378    27.912876 
   63600    229.83494   -508.12437    204420.41   -23284.679    1668.2046   -24952.883   -1253.5983    484.60634    95.052373    14.649818    27.910865 
   63800    239.67032     -433.042    204420.41   -23331.356    1739.5925   -25070.948   -1014.7185    487.53832    95.050772    14.650939    27.916246 
   64000    240.73875   -367.40869    204420.41   -23225.017    1747.3474   -24972.364   -748.06305    489.97876    95.049278    14.652595    27.927355 
   64200     241.8511   -305.36807    204420.41   -23237.148    1755.4212   -24992.569   -496.19458    492.18211    95.049007    14.650876    27.929017 
   64400    235.92373   -315.93201    204420.41    -23259.07    1712.3987   -24971.468   -526.84879    493.27558    95.047483    14.646987    27.940844 
   64600    236.82332   -293.44917    204420.41   -23310.705    1718.9282   -25029.633   -509.34202    493.96974    95.046119    14.644334    27.965834 
   64800    233.88984   -204.73034    204420.41   -23320.942    1697.6362   -25018.578   -180.12996    494.65646    95.045429    14.646197    27.974635 
   65000    240.15693   -286.51744    204420.41   -23219.157    1743.1244   -24962.281   -486.55698    499.36839    95.044832    14.648878    27.980735 
   65200    241.91648   -143.97329    204420.41   -23301.764    1755.8957    -25057.66      4.66355    499.26333    95.044593    14.649357    27.982527 
   65400    239.24825   -168.10092    204420.41   -23341.644     1736.529   -25078.173   -46.418786    500.82518    95.045903    14.648938    27.980545 
   65600    244.53042   -427.00654    204420.41   -23291.279    1774.8684   -25066.147   -977.36254    502.71562    95.045637      14.6535    27.988589 
   65800    237.38944   -362.84381    204420.41   -23298.786    1723.0373   -25021.823   -765.02242    503.94663    95.044501    14.654888    27.964701 
   66000    238.86002   -360.87202    204420.41   -23280.898    1733.7111   -25014.609   -744.53537    504.11563    95.043891    14.655487    27.936161 
   66200    240.49422   -351.07876    204420.41   -23297.824    1745.5726   -25043.397   -681.87993    508.47413    95.043986    14.662109     27.92883 
   66400     241.3381   -269.53328    204420.41   -23311.914    1751.6977   -25063.612   -423.80068    509.99035    95.043912    14.666527    27.918023 
   66600    238.86157   -442.81265    204420.41   -23383.764    1733.7224   -25117.486   -1020.8468    512.73486    95.045336    14.668611     27.92845 
   66800    244.28521    -385.7295    204420.41   -23344.619    1773.0886   -25117.707   -839.48097    516.87357    95.045772    14.669339    27.912625 
   67000    231.38405   -370.61052    204420.41   -23408.071    1679.4484   -25087.519   -804.31246    517.10646    95.044864     14.67032    27.932038 
   67200    237.51656   -179.81053    204420.41   -23350.744    1723.9599   -25074.704   -129.52284    517.00445    95.045179     14.67107    27.941271 
   67400     243.3001   -202.62885    204420.41   -23275.905    1765.9385   -25041.843   -167.25397    517.92466    95.043071    14.667817    27.944729 
   67600     245.1624   -400.56684    204420.41   -23187.701    1779.4555   -24967.156   -878.26828    520.21008      95.0438    14.667135    27.950092 
   67800    245.44573   -379.09511    204420.41    -23210.16     1781.512   -24991.672   -824.66449    524.82963    95.044013    14.667613    27.971826 
   68000    236.19195   -328.05418    204420.41   -23266.402    1714.3455   -24980.748   -638.19744    528.90137    95.044244    14.670016    28.006183 
   68200    242.09971   -150.07782    204420.41   -23204.347    1757.2257   -24961.572   -10.221954    532.81093    95.044394    14.669068    28.012329 
   68400    239.10052   -283.74475    204420.41   -23170.258    1735.4567   -24905.714   -465.82471    535.18978    95.043671    14.668146    27.988486 
   68600    239.00747   -412.79177    204420.41   -23218.245    1734.7813   -24953.026   -891.46376    539.62178     95.04277    14.669424    27.983457 
   68800    241.45986   -401.50841    204420.41   -23151.191    1752.5815   -24903.773   -900.84591    541.11219    95.042651    14.668935    27.974255 
   69000    243.51839   -145.57191    204420.41   -23150.559    1767.5228   -24918.082    42.543078    542.11319    95.041517    14.670168    27.987296 
   69200    243.21978   -437.85091    204420.41   -23277.523    1765.3554   -25042.878   -1017.8555    543.40482    95.040925    14.670954    27.994473 
   69400    229.17647   -142.07766    204420.41     -23340.2    1663.4253   -25003.626    10.523725    542.33304    95.040779     14.66682    27.988644 
   69600      245.459   -391.62824    204420.41   -23203.674    1781.6083   -24985.282   -824.60541    540.41995    95.039797     14.66529    27.970225 
   69800    244.60382   -473.75962    204420.41   -23242.878    1775.4011    -25018.28   -1114.7074    538.81689    95.039701    14.668826    27.946367 
   70000    246.57632   -446.15214    204420.41   -23311.934    1789.7181   -25101.653   -1015.9924    539.22552    95.038115    14.672898    27.953227 
   70200    247.60602   -340.70626    204420.41   -23191.469    1797.1919   -24988.661   -685.11568    543.37166    95.037784    14.673846    27.929368 
   70400     244.6234   -235.73204    204420.41   -23171.105    1775.5433   -24946.648   -340.96893    547.31387     95.03897    14.671592    27.926347 
   70600    243.30711   -552.87776    204420.41   -23215.971    1765.9893    -24981.96   -1377.1262    552.67765    95.037205    14.673141    27.926343 
   70800    241.61794   -449.99465    204420.41   -23239.113    1753.7288   -24992.842   -1050.2899    557.01492    95.037999    14.674606    27.933822 
   71000    243.77606   -166.43036    204420.41   -23316.303    1769.3931   -25085.696   -88.957081    558.92233    95.037472    14.676325    27.935273 
   71200    239.32362     -545.702    204420.41   -23327.722    1737.0761   -25064.798   -1417.9799    562.60311    95.037925    14.676502    27.927936 
   71400    242.89486   -212.21406    204420.41   -23360.842    1762.9971   -25123.839   -164.84969    564.02089    95.039369     14.67797    27.925962 
   71600    243.00532   -117.73465    204420.41   -23272.838    1763.7989   -25036.637    132.55097     565.2756    95.039003    14.677719    27.925804 
   71800    235.56179   -469.29979    204420.41   -23359.738    1709.7716    -25069.51   -1105.6257    566.92451     95.03704    14.677966    27.930977 
   72000    236.14906    -434.7577    204420.41   -23337.797    1714.0342   -25051.831   -1003.8893    567.37222    95.036122    14.676962    27.933712 
   72200    251.77584   -303.54781    204420.41   -23172.823    1827.4577   -25000.281   -537.57889    573.18423    95.037251     14.67586    27.935983 
   72400    234.58958   -329.51953    204420.41   -23188.192    1702.7151   -24890.907    -616.5667    576.27029    95.037889    14.674177    27.933407 
   72600    244.21767   -268.98345    204420.41   -23171.307    1772.5984   -24943.906   -381.04404    573.31775    95.038833    14.672544    27.912121 
   72800    238.83201   -308.90305    204420.41    -23169.76    1733.5078   -24903.268    -576.8408    571.05977    95.038975    14.671764    27.918703 
   73000    241.73562   -480.63177    204420.41   -23197.879     1754.583   -24952.462   -1123.8222    568.84715    95.037593     14.67077    27.914382 
   73200    236.33677   -231.26923    204420.41   -23141.355    1715.3967   -24856.751   -290.76998     564.1152    95.035954     14.67053    27.909083 
   73400    249.83957   -287.81547    204420.41   -23149.888    1813.4037   -24963.292   -483.91237    563.20757    95.034791    14.672557    27.909928 
   73600    235.62673   -609.45696    204420.41   -23159.307     1710.243    -24869.55   -1608.3431    562.67825    95.034827     14.67147    27.927149 
   73800    238.85996   -343.65482    204420.41   -23263.666    1733.7107   -24997.376   -688.80177    561.34513    95.033997    14.674902    27.921473 
   74000    239.20692   -267.15525    204420.41   -23252.247     1736.229   -24988.476   -450.15986    562.08158    95.033591    14.676629    27.903391 
   74200    242.02332   -430.37896    204420.41   -23155.993    1756.6712   -24912.664   -972.60612     565.4725    95.033235    14.675758    27.898599 
   74400    241.36361   -267.26362    204420.41   -23129.857    1751.8828    -24881.74   -411.94182    569.98045    95.032098    14.675356    27.923542 
   74600    242.49431   -384.91985    204420.41   -23166.367    1760.0898   -24926.457   -837.88295    570.41786    95.031561    14.673057    27.930094 
   74800    235.54747   -266.94685    204420.41   -23189.626    1709.6677   -24899.294   -392.17985    571.47126    95.032408    14.671158    27.929541 
   75000    237.93476   -403.89439    204420.41   -23208.046    1726.9953   -24935.041   -936.34354    575.56046    95.033253    14.668464    27.920561 
   75200     236.2313   -310.26052    204420.41   -23155.984    1714.6312   -24870.616   -564.90312    577.61202    95.033507    14.667735    27.902693 
   75400    233.67438    -92.18739    204420.41   -23235.795    1696.0723   -24931.868    182.38726     580.5229    95.032537    14.670147    27.895852 
   75600    237.34089   -423.53879    204420.41   -23238.399    1722.6849   -24961.084   -997.83968    582.49594    95.031847    14.670738    27.888128 
   75800    240.54755    -336.5023    204420.41   -23193.202    1745.9597   -24939.161   -651.43465    585.27955     95.03265    14.672861    27.886955 
   76000    243.63301   -536.59848    204420.41    -23147.63    1768.3548   -24915.985   -1373.3483    588.14582    95.031738    14.671773     27.86125 
   76200    235.67691   -563.41817    204420.41   -23271.459    1710.6072   -24982.067   -1476.5451    590.05073    95.031053    14.672429    27.860741 
   76400    236.97251   -356.08505    204420.41   -23267.278    1720.0111   -24987.289   -710.23273    592.84097    95.031489     14.67034    27.869508 
   76600    239.04813   -272.17763    204420.41   -23231.049    1735.0765   -24966.126   -455.20568    595.04091    95.032258    14.671371    27.883148 
   76800    238.24627   -342.84077    204420.41   -23229.726    1729.2563   -24958.983   -648.20496    595.90019    95.032719    14.670193     27.88153 
   77000    239.53153   -353.93367    204420.41   -23253.321    1738.5851   -24991.906    -695.2055    598.55641    95.032917    14.670302    27.868573 
   77200    246.07031   -310.77546    204420.41   -23224.971    1786.0454   -25011.016   -564.18239    603.51016    95.031184    14.670311    27.847354 
   77400    237.80294   -644.74095    204420.41   -23202.322    1726.0385    -24928.36   -1704.0169    605.24242    95.032401    14.670636      27.8228 
   77600    236.69794   -490.60913    204420.41   -23272.008    1718.0181   -24990.026   -1219.8456    608.69663    95.032836    14.671326    27.810889 
   77800    242.23383   -415.70381    204420.41   -23298.317    1758.1991   -25056.516   -911.24327    615.88602    95.032749    14.670888    27.805117 
   78000    236.54127    -258.9543    204420.41   -23271.359     1716.881    -24988.24   -355.29833    617.32436    95.032988    14.670452    27.805298 
   78200    239.18343   -376.95882    204420.41   -23255.628    1736.0585   -24991.687   -774.63875    618.02425    95.033916    14.671613    27.826251 
   78400    241.22551   -188.75887    204420.41   -23192.648    1750.8804   -24943.529   -154.16412     617.8869    95.031989     14.67061    27.822922 
   78600    236.79192   -152.81436    204420.41   -23201.334    1718.7003   -24920.034   -20.887732     619.4249    95.031284    14.671875    27.841869 
   78800    242.84979   -310.83138    204420.41   -23162.252      1762.67   -24924.921   -599.42465    621.43505    95.031873    14.671704    27.819164 
   79000    241.09991   -252.82241    204420.41   -23183.675    1749.9688   -24933.644   -333.20932     619.3093    95.031244    14.668966     27.84533 
   79200     245.4885   -266.92335    204420.41   -23152.316    1781.8224   -24934.138    -423.1699    620.25532    95.031955    14.666918    27.840996 
   79400    243.75042     -285.833    204420.41   -23175.124     1769.207   -24944.331   -431.74087    622.57971     95.03251    14.666233    27.853317 
   79600    236.10835   -344.36887    204420.41    -23258.44    1713.7387   -24972.179   -672.39726    627.94285    95.032109    14.664768    27.841817 
   79800    240.63041   -393.81336    204420.41   -23250.791    1746.5611   -24997.352   -866.89292    631.01173     95.03208     14.66593    27.828605 
   80000    241.41045   -366.45288    204420.41   -23282.524    1752.2229   -25034.747   -765.81878    629.29644    95.032103    14.666767    27.824826 
   80200    238.37818   -189.39687    204420.41   -23277.765    1730.2138   -25007.979   -111.30624    627.34504    95.034952    14.667107    27.822178 
   80400    239.66356   -260.07466    204420.41   -23295.177    1739.5434    -25034.72   -388.12581    629.73548    95.035612    14.664837    27.811843 
   80600    237.50003   -308.21122    204420.41   -23298.582    1723.8399   -25022.422   -553.24712    631.52076     95.03545    14.662268    27.796029 
   80800    240.15613   -379.83887    204420.41   -23237.537    1743.1186   -24980.655   -835.66814    631.94096     95.03469    14.659941    27.795361 
   81000     233.5143   -137.71798    204420.41   -23264.357    1694.9104   -24959.267     41.10079    632.17887    95.033424    14.659635    27.781198 
   81200    236.27261   -198.17808    204420.41   -23232.111     1714.931   -24947.042   -175.90551    633.20462     95.03141    14.659449    27.784487 
   81400    241.63174   -558.27651    204420.41   -23201.519     1753.829   -24955.348   -1440.6818    638.10852    95.032518    14.659296    27.778251 
   81600    239.01017    -399.9218    204420.41   -23278.958     1734.801   -25013.759   -858.00322    639.46688    95.033773    14.657824    27.788717 
   81800    239.01613   -336.41703    204420.41   -23338.237    1734.8442   -25073.082   -639.82041    639.90694    95.035397    14.659892    27.815512 
   82000    238.83341   -353.86413    204420.41   -23245.194    1733.5179   -24978.712   -727.04183    640.19591    95.035168    14.658912    27.814063 
   82200    247.00588   -433.90535    204420.41    -23145.24     1792.836   -24938.076   -1020.0253    640.55329    95.036063    14.659324    27.829866 
   82400    244.81717   -237.70324    204420.41   -23201.159    1776.9497   -24978.109    -306.7839    642.26939    95.036753    14.657128    27.852586 
   82600    246.79155   -485.40169    204420.41   -23116.584    1791.2803   -24907.864   -1168.6274    644.21819     95.03604    14.656718    27.867381 
   82800    237.03134   -368.77092    204420.41   -23243.026     1720.438   -24963.464   -749.93879    645.77301    95.036357     14.65511    27.855054 
   83000    239.87259    -278.8949    204420.41   -23117.513    1741.0606   -24858.573   -491.42023    644.55288    95.037093    14.655681    27.864449 
   83200    241.86772   -341.46004    204420.41   -23161.831    1755.5418   -24917.373   -693.30957    641.91652     95.03455    14.657426    27.861017 
   83400    243.20892   -267.88716    204420.41   -23162.625    1765.2766   -24927.902   -417.62968    643.82237    95.034205    14.658805    27.850791 
   83600    236.83484   -391.72586    204420.41   -23289.443    1719.0118   -25008.454   -839.58599    648.27461    95.033972    14.661253    27.854613 
   83800    235.33868    -325.7987    204420.41   -23282.577    1708.1523   -24990.729   -603.19973     652.6027    95.032284     14.66364    27.863575 
   84000    246.35906    -420.2316    204420.41   -23249.962    1788.1411   -25038.103   -934.89339    655.86046    95.031846    14.661039    27.880625 
   84200    238.18712   -290.13068    204420.41   -23198.189     1728.827   -24927.016   -486.26941    657.64807    95.033167    14.659876    27.897286 
   84400    232.47121   -355.15071    204420.41       -23266    1687.3394    -24953.34   -748.84871      657.182    95.032455    14.658871    27.892794 
   84600     233.2189   -374.32673    204420.41   -23228.577    1692.7663   -24921.343   -795.74477    656.54772    95.033213    14.657843    27.891953 
   84800    244.63524   -424.78711    204420.41    -23299.68    1775.6292   -25075.309   -1007.3541    655.22476    95.033224    14.655771    27.900006 
   85000    239.46313   -423.36562    204420.41    -23264.45    1738.0887   -25002.538   -950.54309    653.51668    95.035019    14.657611    27.913831 
   85200     244.0559   -188.20632    204420.41   -23263.063    1771.4242   -25034.488   -150.62038    648.57003    95.037133    14.656342    27.932464 
   85400    234.82532   -299.80601    204420.41   -23377.395    1704.4262   -25081.821   -581.67824     642.3837    95.035986    14.657744    27.925009 
   85600    240.00375   -223.97508    204420.41   -23331.882    1742.0126   -25073.894   -213.53289    639.51837    95.035495    14.657801    27.927609 
   85800    236.45228   -354.12906    204420.41   -23338.384    1716.2351   -25054.619   -717.47244     637.2776    95.033993    14.655925    27.924215 
   86000    239.07365   -280.50435    204420.41   -23275.402    1735.2617   -25010.664   -467.94543    639.20077    95.033349    14.656666    27.930325 
   86200    243.88731   -370.02911    204420.41   -23222.945    1770.2005   -24993.146   -750.39442    641.34787     95.03159    14.659147    27.932424 
   86400    236.31631   -159.61838    204420.41   -23324.851    1715.2481   -25040.099   -49.625348     642.6431    95.030931    14.657317     27.95439 
   86600    235.55302   -181.14285    204420.41   -23225.062     1709.708    -24934.77   -120.09575     643.1225    95.032398    14.655057    27.967014 
   86800    240.44608   -464.85955    204420.41   -23276.454    1745.2231   -25021.677   -1107.9727    644.42118    95.031742    14.653139    27.974125 
   87000    239.55551   -178.05307    204420.41   -23202.416    1738.7592   -24941.176   -93.569012    640.71425    95.032521    14.653065    27.981745 
   87200    242.50147   -603.66308    204420.41   -23151.879    1760.1417   -24912.021   -1597.6906    642.55282    95.031321    14.653404    27.976115 
   87400    232.02577   -243.71967    204420.41   -23287.615    1684.1063   -24971.721    -353.7407    640.29003     95.03234    14.655113    27.974975 
   87600    243.04687   -435.59491    204420.41   -23188.775    1764.1004   -24952.875   -1003.2326    642.63944    95.031863    14.656713     27.97128 
   87800    241.19487   -330.67506    204420.41    -23247.39    1750.6581   -24998.049   -648.06394    643.54353    95.030722    14.657975      27.9639 
   88000    237.21285   -340.66554    204420.41   -23266.162    1721.7555   -24987.917    -666.6816    645.22239    95.030434    14.659726    27.989433 
   88200    240.50864   -228.56391    204420.41   -23292.361    1745.6773   -25038.039   -278.71757    645.68242    95.031962    14.662223    27.971844 
   88400    244.00725   -426.32319    204420.41   -23205.186    1771.0711   -24976.258   -948.72396    649.24103    95.031778    14.663282    27.965296 
   88600      236.571   -198.21279    204420.41   -23255.542    1717.0968   -24972.639   -189.95558    652.44227    95.032312    14.664027    27.947743 
   88800    236.99494   -364.75583    204420.41   -23265.891    1720.1739   -24986.065   -750.94037    655.50404    95.030768    14.664136    27.937199 
   89000     239.0341   -326.48252    204420.41   -23213.534    1734.9747   -24948.509   -617.24274    657.73834    95.029224    14.664227    27.952623 
   89200    240.16889   -136.06943    204420.41   -23201.077    1743.2112   -24944.288    14.522441    656.38842    95.027498    14.666003    27.977812 
   89400    242.79629   -485.40044    204420.41   -23171.517    1762.2816   -24933.798   -1169.5131    656.54869    95.027205    14.663382    27.988912 
   89600    231.02984   -297.00968    204420.41   -23298.048    1676.8776   -24974.926   -558.23575    653.68932    95.025626    14.663584    27.972727 
   89800    247.40345   -356.88725    204420.41   -23191.507    1795.7217   -24987.228   -737.72915    654.43198    95.025075    14.661299     27.98249 
   90000     240.1085   -520.68934    204420.41    -23180.51    1742.7729   -24923.283   -1305.3699    657.96319    95.025771    14.662804    27.992319 
   90200    239.66329   -409.66879    204420.41   -23239.618    1739.5415    -24979.16   -903.41002    660.11138     95.02533    14.663308     27.99887 
   90400    235.51356   -403.14624    204420.41   -23210.191    1709.4216   -24919.613     -924.859    662.30057    95.025413    14.659323    27.997015 
   90600    239.42112   -397.35665    204420.41   -23196.318    1737.7837   -24934.102   -841.30856    661.87923    95.025927     14.65673    28.011853 
   90800    235.70336   -324.90866    204420.41   -23196.903    1710.7992   -24907.702   -631.15827    660.42052    95.025457    14.655403    28.036139 
   91000    232.29068   -406.82996    204420.41   -23240.566     1686.029   -24926.595   -889.83249    658.29991    95.027439    14.653277    28.044359 
   91200    237.98974   -391.99712    204420.41   -23242.441    1727.3944   -24969.835   -821.91379    660.10042    95.029152    14.654405    28.063547 
   91400    240.79236   -287.41637    204420.41   -23167.569    1747.7366   -24915.306   -485.89346     661.6482    95.029365    14.653024    28.059118 
   91600    242.41733   -379.09387    204420.41   -23073.105     1759.531   -24832.636   -801.78406    662.89693    95.028389    14.652903    28.032603 
   91800    244.20312   -541.95625    204420.41   -23102.358    1772.4927   -24874.851   -1392.9671    666.84335    95.028211    14.651817    28.028883 
   92000    239.00874   -185.57897    204420.41   -23141.593    1734.7906   -24876.383   -119.07049    666.86929    95.029031    14.650645    28.001747 
   92200    238.17548   -334.39583    204420.41   -23160.758    1728.7425   -24889.501   -623.96158    668.21969    95.030424    14.650464     27.97894 
   92400     241.5109   -349.53568    204420.41   -23162.121    1752.9519   -24915.073   -700.97853    670.23775     95.03017    14.648868    27.975443 
   92600    241.42547   -386.71524    204420.41   -23145.657    1752.3319   -24897.989   -803.96042    671.35242    95.029393    14.653615    27.970742 
   92800    241.36316   -121.95075    204420.41   -23234.469    1751.8796   -24986.349    41.455396    671.21582    95.029065    14.656936    27.983823 
   93000    233.42775   -348.89717    204420.41   -23241.831    1694.2822   -24936.113   -725.77397    674.14558    95.027569     14.66116    27.971579 
   93200    243.17816   -339.99323    204420.41   -23187.354    1765.0533   -24952.408   -664.57167    674.82473    95.026523    14.661178    27.967451 
   93400    231.70258   -201.62556    204420.41   -23264.116    1681.7605   -24945.876   -166.69121    673.27665    95.029428    14.661249    27.954091 
   93600    236.43755   -296.51581    204420.41   -23239.361    1716.1282   -24955.489   -502.69762    672.89638    95.030341    14.658055    27.944327 
   93800    236.54442   -98.630943    204420.41   -23259.312    1716.9038   -24976.216    159.68985    670.61543    95.028455    14.654017    27.958751 
   94000    233.49358   -543.60935    204420.41   -23280.217      1694.76   -24974.977   -1330.9163     671.5378    95.029798    14.656287    27.941131 
   94200    246.79789   -297.60131    204420.41   -23191.968    1791.3263   -24983.294   -508.37418    669.47514    95.030546    14.656695    27.933018 
   94400    241.36236   -323.35522    204420.41   -23249.181    1751.8738   -25001.055   -626.46249    668.86823    95.031529    14.657522    27.938204 
   94600    237.78891   -419.44216    204420.41   -23243.478    1725.9367   -24969.415   -933.79309    668.81106    95.032441    14.657784    27.938713 
   94800    242.25465   -265.25363    204420.41   -23241.616    1758.3503   -24999.967   -408.23206    668.96985    95.032132    14.658663     27.96272 
   95000    244.31753   -296.17421    204420.41   -23316.032    1773.3232   -25089.356   -490.65931    664.44616    95.031471    14.657327    27.958687 
   95200    238.65118   -548.33223    204420.41     -23341.2    1732.1953   -25073.396   -1378.2067    665.95703    95.033156    14.653898    27.957706 
   95400    236.74654   -314.91681    204420.41   -23305.932    1718.3709   -25024.303   -554.41635    666.00235    95.034636    14.654181    27.964697 
   95600    241.50256   -295.40632    204420.41   -23298.823    1752.8914   -25051.715   -525.19399    667.55871    95.033357    14.651703    27.970844 
   95800    243.45873   -363.76025    204420.41   -23322.825    1767.0898   -25089.915   -757.79381    669.68838    95.034914    14.651426    27.969224 
   96000    240.21136   -405.13225    204420.41    -23287.21    1743.5195   -25030.729   -924.09322    671.95373    95.035325    14.649918    27.967584 
   96200    247.09786   -379.42063    204420.41   -23198.922    1793.5036   -24992.425   -827.42505    671.83278    95.034134    14.652498    27.979605 
   96400    237.59187   -219.35274    204420.41   -23282.672    1724.5066   -25007.178   -195.65714     670.2812    95.034841    14.655517    27.972907 
   96600    240.01206   -286.18405    204420.41   -23288.065    1742.0729   -25030.138   -498.95242    671.37318    95.033427    14.656545    27.983714 
   96800    242.01192   -235.57505    204420.41   -23254.834    1756.5884   -25011.422   -293.86592      674.881    95.033145    14.660154    27.983738 
   97000    242.19133   -395.51171    204420.41   -23264.498    1757.8906   -25022.388   -861.78662    677.36207    95.033343    14.661309    27.975537 
   97200    239.88861   -231.61409    204420.41   -23261.191    1741.1769   -25002.367   -300.32751    676.13818    95.031931      14.6622    27.984345 
   97400    235.29237   -339.46648    204420.41   -23242.035    1707.8161   -24949.851   -639.87006    677.23016    95.032531    14.658222    27.974903 
   97600    238.52628   -264.05901    204420.41   -23189.963    1731.2888   -24921.252   -350.22441    680.67065    95.031909    14.655311    27.970058 
   97800     242.7841   -225.81257    204420.41   -23248.248    1762.1931   -25010.441   -262.56792     684.1703    95.031196     14.65673    27.983422 
   98000    237.66522   -424.82335    204420.41   -23258.971    1725.0389    -24984.01   -974.85847    687.56893    95.030491    14.657979     27.98291 
   98200      236.383    -380.1282    204420.41    -23269.09    1715.7322   -24984.822   -752.86725    688.64719    95.029167    14.661804    27.981911 
   98400    247.51168   -246.45947    204420.41   -23171.236    1796.5072   -24967.743   -344.53969    685.86283    95.029233    14.659442    27.984299 
   98600    235.24057   -576.51574    204420.41   -23211.228    1707.4402   -24918.668   -1479.4867    688.02738    95.027815    14.660872    27.988368 
   98800    238.56066   -483.65674    204420.41    -23202.71    1731.5383   -24934.249   -1156.7305    688.54588    95.027948    14.660391    27.977715 
   99000    234.18612   -313.61879    204420.41    -23224.28    1699.7867   -24924.067   -595.07028    688.34596    95.027006     14.66358    27.956166 
   99200    237.96941   -379.65394    204420.41   -23137.598    1727.2468   -24864.844     -762.206    687.63296    95.026908    14.663418    27.960234 
   99400    239.84765   -342.44643    204420.41   -23145.629    1740.8796   -24886.508   -715.31723    688.42935    95.027096    14.661717    27.967888 
   99600     242.7456   -469.48639    204420.41   -23144.972    1761.9137   -24906.885   -1131.8179    690.98953    95.026224    14.660936     27.95974 
   99800    236.53047   -310.30089    204420.41    -23175.11    1716.8026   -24891.913   -520.09279    689.22976     95.02785    14.660816    27.969146 
  100000    239.18459   -358.49442    204420.41   -23202.913    1736.0669    -24938.98   -728.07937    690.70289    95.028264    14.662573    27.988199 
  100200    238.65946    -420.0297    204420.41   -23279.998    1732.2554   -25012.254   -961.87479    692.10446    95.028725    14.661442    27.970001 
  100400    243.61283   -298.60809    204420.41   -23218.948    1768.2083   -24987.157   -577.98751    693.50936    95.028675     14.66033    27.982565 
  100600    233.42893   -347.52509    204420.41    -23231.65    1694.2908    -24925.94   -704.07532    697.46226    95.028436    14.660255     28.00047 
  100800    244.02832   -190.18208    204420.41   -23278.331    1771.2241   -25049.555   -126.18177    698.13917    95.029219    14.660376    28.006201 
[...]
 5175800    221.87506    90.073392    204420.41   -25742.678    1610.4297   -27353.108    846.29439     8463.547    94.186804    16.412709    27.159153 
 5176000    222.21467    3.6726668    204420.41    -25761.07    1612.8946   -27373.965    522.63472    8464.6251    94.186836     16.41228    27.162474 
 5176200    225.16682   -17.642659    204420.41   -25776.559    1634.3222   -27410.881     458.0171    8469.7506    94.187397    16.411208    27.161945 
 5176400    222.23422   -66.038282    204420.41   -25700.888    1613.0365   -27313.924    269.28706    8464.1584    94.186883    16.410535    27.158204 
 5176600    233.15803    21.344002    204420.41   -25643.378    1692.3245   -27335.703    572.03711    8465.8175    94.186559     16.40909    27.157764 
 5176800    227.17027    66.146989    204420.41   -25700.731    1648.8637   -27349.594    750.65263     8463.525    94.187762    16.408202    27.167946 
 5177000    229.59555    32.494824    204420.41   -25677.394     1666.467   -27343.861    625.90923    8467.7748     94.18884    16.408165     27.16494 
 5177200    228.22442    75.040842    204420.41   -25645.669     1656.515   -27302.184    774.93959    8465.6254    94.189594     16.40717     27.15206 
 5177400    234.45488   -56.011694    204420.41   -25612.006    1701.7374   -27313.744    313.19226    8467.3265    94.191084    16.406813    27.150492 
 5177600    228.91097    105.53764    204420.41   -25708.568    1661.4982   -27370.066    923.28786    8466.7156    94.192121    16.406194    27.138143 
 5177800    228.43362   -55.568778    204420.41   -25737.128    1658.0335   -27395.162    365.73744    8463.7567    94.194633    16.406168    27.138791 
 5178000    230.48098    61.752552    204420.41   -25734.256    1672.8938    -27407.15    749.92811    8465.1287    94.195518    16.405242    27.154122 
 5178200    228.83297   -20.221319    204420.41   -25724.495    1660.9321   -27385.427    409.95972    8469.9522    94.196911    16.405112    27.144311 
 5178400    228.24829    36.807933    204420.41   -25731.208    1656.6883   -27387.896    621.16737    8466.1626     94.19671    16.403371    27.143997 
 5178600     226.2158    19.710314    204420.41   -25707.731    1641.9359   -27349.667    579.88563    8464.6926    94.196989    16.403109     27.15343 
 5178800    226.55171    78.409072    204420.41   -25716.402     1644.374   -27360.776    788.59905    8463.6168    94.197609    16.403362    27.163712 
 5179000    225.66887    103.76254    204420.41   -25752.104    1637.9662    -27390.07    920.14456    8468.6712    94.198092    16.401694    27.162671 
 5179200    221.65144    -1.114539    204420.41   -25745.659    1608.8065   -27354.466    498.55149    8469.8977     94.19876    16.401209    27.165678 
 5179400    233.17312    76.266085    204420.41   -25683.539     1692.434   -27375.973    814.81128    8463.0959    94.198636    16.401567    27.167326 
 5179600    226.63252   -102.60482    204420.41   -25738.796    1644.9606   -27383.756    176.84225    8471.7115    94.198627    16.401479    27.153215 
 5179800    223.94417    128.14907    204420.41   -25738.457    1625.4478   -27363.905    903.33863    8464.6905    94.199795    16.400473    27.153127 
 5180000    224.00423   -51.510956    204420.41    -25824.36    1625.8837   -27450.244     345.1469    8470.6069    94.199812    16.399965     27.16622 
 5180200     223.2568     69.56009    204420.41   -25792.522    1620.4587   -27412.981     773.7436    8463.5657    94.199834    16.398885    27.158945 
 5180400    227.48166   -18.336334    204420.41   -25715.779    1651.1239   -27366.903     467.5648    8462.8708    94.199263    16.397875    27.165876 
 5180600    227.46671    4.9999983    204420.41    -25711.84    1651.0154   -27362.856    500.52317    8471.2752    94.199313    16.397549    27.153491 
 5180800    224.03714     46.01711    204420.41   -25749.044    1626.1226   -27375.166    685.85181    8465.5254    94.200166    16.396544    27.155513 
 5181000     220.1392   -11.273951    204420.41   -25782.381    1597.8303   -27380.211    431.32592    8470.5278    94.201699    16.394141    27.148943 
 5181200    222.85286   -8.8493948    204420.41   -25753.656    1617.5268   -27371.183    512.70194    8466.5012    94.202982    16.392683     27.15047 
 5181400    231.95813    55.363327    204420.41   -25668.139    1683.6153   -27351.755    707.36214    8463.0383    94.203963    16.391815    27.158787 
 5181600    226.46329   -9.0792012    204420.41   -25795.329    1643.7322   -27439.061    506.25099     8471.574    94.204472    16.392246    27.165415 
 5181800    224.08224    123.67327    204420.41   -25688.414      1626.45   -27314.864    922.32172    8465.6025    94.206425    16.391341    27.157823 
 5182000     227.7738   -37.797409    204420.41   -25718.298    1653.2443   -27371.542    386.62258    8471.1937    94.206005    16.391048    27.168865 
 5182200    228.27261    111.90218    204420.41   -25687.495    1656.8648    -27344.36    900.88184    8467.4327    94.206816    16.391149    27.159854 
 5182400    222.44181    11.009202    204420.41   -25762.154    1614.5433   -27376.697    589.98116    8468.7911    94.206906    16.391137    27.156408 
 5182600    232.75108    7.0913987    204420.41   -25726.171    1689.3708   -27415.542    560.41115     8468.453    94.207778    16.391934    27.151937 
 5182800    228.99557    97.739386    204420.41   -25696.228    1662.1122    -27358.34    868.79702    8466.9492    94.208646    16.392224    27.154409 
 5183000    229.51691    73.433067    204420.41   -25672.711    1665.8963   -27338.608    779.02842    8468.3829    94.209633    16.392532    27.154298 
 5183200     228.7944    72.616301    204420.41   -25689.658    1660.6521    -27350.31    768.60467    8466.3872    94.209455     16.39243    27.162721 
 5183400    219.04076    96.239156    204420.41   -25813.816    1589.8575   -27403.674    876.09475    8466.0513    94.210061    16.391729    27.174873 
 5183600    219.61065   -13.431288    204420.41   -25792.911    1593.9939   -27386.905    452.91287    8470.1057    94.209996    16.393126    27.172772 
 5183800    224.47862    79.289765    204420.41   -25773.968     1629.327   -27403.295    785.52701     8467.571    94.209796    16.393519    27.164124 
 5184000    229.03098    64.729341    204420.41    -25703.11    1662.3692   -27365.479    743.45427    8468.6546     94.20941    16.393932    27.167405 
 5184200    228.67042   -45.566407    204420.41   -25716.325    1659.7522   -27376.077    385.01261    8470.4589    94.208817    16.395263    27.159074 
 5184400    230.16701    -2.870431    204420.41   -25695.364    1670.6148   -27365.979    495.58021    8467.6792    94.208427    16.396499    27.153628 
 5184600    226.18679   -37.483414    204420.41   -25741.648    1641.7254   -27383.373    373.72493    8468.9921    94.208925    16.396999    27.157348 
 5184800    229.26536    112.05256    204420.41   -25726.294    1664.0704   -27390.364    928.45068    8468.6323    94.209306     16.39765    27.166394 
 5185000    233.20672    20.888634    204420.41   -25723.506    1692.6779   -27416.184    561.59658    8470.6615    94.209231    16.398086    27.162775 
 5185200    223.79376    54.722594    204420.41   -25792.498    1624.3561   -27416.854    716.76431    8466.2183    94.209214    16.397814     27.17161 
 5185400    228.00959    34.449942    204420.41   -25719.585    1654.9557    -27374.54    680.43934    8470.0479    94.209036         16.4     27.16147 
 5185600    227.99284    78.940097    204420.41   -25727.044    1654.8342   -27381.879    736.90765    8468.8462    94.209108    16.400907    27.158971 
 5185800    223.23486   -83.569059    204420.41   -25701.108    1620.2994   -27321.407    237.44712    8472.6479    94.207879    16.401161    27.165298 
 5186000    227.93915     2.518328    204420.41   -25707.499    1654.4444   -27361.943    506.24267    8468.0491    94.208994    16.402241    27.162967 
 5186200    225.71475   -12.942855    204420.41   -25680.215    1638.2991   -27318.515    478.95092    8465.1074    94.208513     16.40336     27.16824 
 5186400    231.65693   -53.107213    204420.41   -25724.574    1681.4292   -27406.003    351.43175    8473.0671    94.208987    16.404856    27.164778 
 5186600    223.78431    108.21579    204420.41   -25713.329    1624.2875   -27337.617     897.5051    8466.3007    94.209614    16.405127    27.147461 
 5186800    227.31714    -68.29717    204420.41   -25722.462    1649.9298   -27372.392    265.89793    8472.2822    94.210712    16.406318    27.144554 
 5187000    229.03507    107.80411    204420.41    -25682.78    1662.3989   -27345.179    913.81945    8465.6094    94.210758    16.408427    27.149122 
 5187200    222.46008    30.884597    204420.41   -25732.055    1614.6759   -27346.731    667.57355     8469.825    94.211957    16.408884    27.160057 
 5187400    222.18653   -100.43455    204420.41   -25756.827    1612.6903   -27369.518    136.10856    8472.6494    94.211619    16.406329    27.154431 
 5187600    228.56291    101.19283    204420.41   -25680.209    1658.9719   -27339.181    854.58903    8464.4323    94.210723    16.405605    27.157404 
 5187800    225.75117   -92.087196    204420.41   -25725.093    1638.5635   -27363.656    237.17288    8472.0212    94.210671    16.404395    27.147777 
 5188000    230.50502    185.46249    204420.41   -25671.205    1673.0683   -27344.273    1136.0612    8462.2406    94.209327    16.403905    27.152532 
 5188200     226.6448   -57.929974    204420.41   -25709.196    1645.0497   -27354.245     327.0248    8472.2776    94.209085     16.40114    27.164468 
 5188400    228.68504    21.706841    204420.41   -25705.389    1659.8584   -27365.247    592.36612    8471.4898    94.209688    16.400677    27.156515 
 5188600    223.69196   -1.8218622    204420.41   -25737.414    1623.6172   -27361.032    517.15228    8465.4923    94.209259    16.398701    27.168533 
 5188800    218.06382   -7.4090998    204420.41   -25771.824    1582.7667    -27354.59    513.24523    8466.8947    94.209809     16.39675     27.15174 
 5189000    225.85766    72.025326    204420.41   -25731.129    1639.3364   -27370.465    763.40819    8463.6191    94.209647    16.393862    27.169523 
 5189200    219.46967   -21.768332    204420.41   -25833.676    1592.9707   -27426.647    463.62792    8471.7725    94.210243    16.392521    27.171038 
 5189400    225.28409    88.473049    204420.41   -25778.816    1635.1733   -27413.989    807.17009    8467.9912    94.210957    16.391206    27.168586 
 5189600     231.6914   -79.606914    204420.41   -25698.408    1681.6793   -27380.087    237.15142     8471.017    94.209993    16.389003    27.170127 
 5189800    228.14045    90.482571    204420.41   -25738.018    1655.9055   -27393.923    843.97313    8467.7499    94.210006    16.389365     27.16679 
 5190000    229.78762   -37.170953    204420.41   -25736.359    1667.8612    -27404.22    351.42759    8467.2602    94.210359    16.389049    27.165478 
 5190200    224.11039    55.436795    204420.41   -25759.497    1626.6543   -27386.152     719.3141    8469.9932    94.210831    16.388576    27.160873 
 5190400    233.89861   -42.539446    204420.41   -25659.679    1697.6999   -27357.379    347.40209      8466.37    94.209812    16.389192       27.163 
 5190600     224.5447    31.718715    204420.41   -25737.598    1629.8066   -27367.405      607.967    8464.8548       94.209     16.39025    27.170446 
 5190800    228.04271   -9.4202906    204420.41     -25707.3    1655.1961   -27362.497    507.93846    8468.8589    94.208097    16.392145    27.179355 
 5191000    225.28814    121.91487    204420.41   -25735.847    1635.2027    -27371.05    958.00094    8465.1798    94.207323    16.393011    27.173645 
 5191200    226.43462   -109.78349    204420.41   -25725.091    1643.5242   -27368.615    141.71234    8473.3067    94.206817    16.393314    27.161582 
 5191400     229.8944    96.709464    204420.41   -25713.969    1668.6362   -27382.605    835.83148    8465.0595    94.205851    16.392499    27.156206 
 5191600    223.90446     56.20088    204420.41   -25740.343    1625.1596   -27365.502    711.02248    8467.7238    94.205352    16.391842     27.16751 
 5191800    225.83952     4.072285    204420.41   -25678.271    1639.2048   -27317.476    527.17968    8471.1475    94.205728    16.392337    27.175619 
 5192000    230.06219    20.937329    204420.41   -25673.149    1669.8541   -27343.003    604.59803    8467.1636    94.206374    16.393122    27.172011 
 5192200    228.12462     26.67744    204420.41   -25729.661    1655.7907   -27385.452    576.77513    8471.1664    94.206113    16.392028    27.166285 
 5192400    223.73101    23.144139    204420.41   -25731.911    1623.9007   -27355.811     612.0411    8467.0691    94.205789    16.390226    27.162595 
 5192600    224.29977   -55.220751    204420.41   -25766.092    1628.0288   -27394.121    301.93509    8467.8143    94.206182    16.390532    27.155969 
 5192800    224.30375    43.687321    204420.41   -25721.014    1628.0577   -27349.071    682.92321    8468.0602    94.206263    16.391482    27.157775 
 5193000    225.13557   -84.087436    204420.41   -25781.169    1634.0953   -27415.265    195.31147    8473.5335    94.206496    16.391017    27.152938 
 5193200    225.78567    185.53307    204420.41   -25716.187    1638.8139   -27355.001    1164.7596    8463.4126    94.206979    16.390124    27.155931 
 5193400    232.38622    45.994265    204420.41   -25712.772    1686.7225   -27399.495    654.91097    8471.0434    94.207805    16.389202    27.159504 
 5193600     228.4757    138.06133    204420.41   -25698.566    1658.3389   -27356.904    1005.7044    8463.7487     94.20857    16.387784     27.15929 
 5193800    229.80419   -62.926138    204420.41     -25716.6    1667.9814   -27384.581    259.67139     8471.442    94.208418    16.388128    27.164647 
 5194000    219.96892     86.81655    204420.41   -25834.741    1596.5943   -27431.335    818.08558    8466.1953    94.208422     16.38799     27.16162 
 5194200    222.46165   -81.610003    204420.41   -25773.125    1614.6873   -27387.812     249.6782    8469.0626     94.20775    16.387051    27.163317 
 5194400    229.50964    117.38733    204420.41   -25716.427    1665.8435    -27382.27    884.59214     8464.054     94.20824    16.386902    27.153168 
 5194600    224.87298    21.898969    204420.41   -25681.015    1632.1893   -27313.204    598.64471    8469.1726    94.208712    16.386012    27.162122 
 5194800    225.89678   -48.681477    204420.41   -25710.763    1639.6204   -27350.383    364.16175    8470.0225    94.208956    16.386059    27.153257 
 5195000    223.40091    99.309326    204420.41   -25718.642    1621.5047   -27340.146    838.99343    8464.7209    94.209175    16.385795    27.166306 
 5195200    226.29132    61.204672    204420.41   -25718.066     1642.484    -27360.55     717.2803     8466.433    94.210153    16.382596    27.159655 
 5195400    227.03916   -77.258336    204420.41   -25713.753    1647.9121   -27361.665    238.22903    8469.5026    94.210402    16.380343    27.147243 
 5195600    221.19719    108.44849    204420.41   -25767.495    1605.5095   -27373.004    867.37743    8463.0849    94.211343    16.379243     27.15739 
 5195800    234.36347   -54.916999    204420.41   -25646.598     1701.074   -27347.672    344.24061     8470.967    94.210854    16.378037    27.150123 
 5196000    228.95899    56.120627    204420.41   -25724.753    1661.8468     -27386.6    676.01364     8462.748    94.210886    16.376639    27.148473 
 5196200    229.16089   -38.313329    204420.41    -25724.45    1663.3122   -27387.763    351.07286    8467.1244    94.211539    16.374512    27.155638 
 5196400    228.31961    129.86817    204420.41   -25715.243     1657.206   -27372.449     959.1246    8464.7136    94.212917    16.373595    27.147099 
 5196600    230.45142    13.808894    204420.41   -25695.788    1672.6792   -27368.467    574.14723    8466.8353    94.213766    16.372421    27.153996 
 5196800    228.46435    76.626898    204420.41   -25682.301    1658.2565   -27340.558    774.17453    8468.5323    94.214701    16.372178    27.145624 
 5197000    235.00073   -45.283709    204420.41   -25645.655    1705.6993   -27351.354    366.17447    8465.5492    94.215612     16.37117    27.141043 
 5197200    222.97866    51.575139    204420.41   -25738.359    1618.4399   -27356.799    715.34114    8466.1672    94.216567    16.370033    27.142827 
 5197400    222.04085   -62.049576    204420.41   -25735.083     1611.633   -27346.716    319.81657    8468.9425    94.216798    16.369979    27.147935 
 5197600    222.48767    83.429511    204420.41   -25771.071    1614.8761   -27385.947    781.78695    8466.9474    94.217863    16.367517    27.141541 
 5197800    217.93386   -5.6610456    204420.41   -25797.701    1581.8233   -27379.524    491.57847    8465.6136    94.218787    16.365069     27.13946 
 5198000     228.1216    40.295637    204420.41   -25675.541    1655.7688    -27331.31    652.34648    8467.1663    94.218819    16.365024     27.14016 
 5198200    227.95604    27.388102    204420.41   -25703.758     1654.567   -27358.326    598.30651    8464.7011    94.219034     16.36476    27.138587 
 5198400    220.16492   -43.416101    204420.41   -25748.765     1598.017   -27346.782    360.44932    8466.4943     94.21912    16.363279    27.137845 
 5198600    220.40321    107.25244    204420.41    -25799.38    1599.7466   -27399.126    891.81318      8461.74    94.220398    16.362848    27.149603 
 5198800    229.27614   -70.846631    204420.41   -25718.759    1664.1487   -27382.907    265.19159    8469.4079    94.221704    16.361459    27.151275 
 5199000    229.95405    180.50001    204420.41   -25667.322    1669.0692   -27336.391    1095.9535     8463.465    94.222269    16.359746    27.143327 
 5199200    227.61111   -81.425798    204420.41   -25733.038    1652.0635   -27385.101    264.14068     8466.436    94.222088    16.358089    27.152782 
 5199400    228.82097     25.83341    204420.41   -25710.568     1660.845   -27371.413    586.30866    8466.3063    94.223018    16.358288    27.150166 
 5199600    229.41449    6.5846601    204420.41   -25699.242    1665.1529   -27364.395    546.70791    8465.4498    94.222165    16.359646    27.158218 
 5199800    223.40578    24.256029    204420.41   -25726.947      1621.54   -27348.487    613.06377    8466.3272    94.222392    16.359206    27.160794 
 5200000    231.60893   -94.543189    204420.41   -25666.013    1681.0807   -27347.093     213.5097    8469.0665    94.223174    16.357503    27.151573 
Loop time of 8222.58 on 120 procs for 5200000 steps with 8482 atoms

Performance: 546.398 ns/day, 0.044 hours/ns, 632.405 timesteps/s
98.1% CPU use with 120 MPI tasks x no OpenMP threads

MPI task timing breakdown:
Section |  min time  |  avg time  |  max time  |%varavg| %total
---------------------------------------------------------------
Pair    | 0.24982    | 2213.8     | 6642.7     |5212.2 | 26.92
Neigh   | 0.36777    | 122.55     | 450.86     |1314.8 |  1.49
Comm    | 10.059     | 2307.2     | 6647.5     |4778.4 | 28.06
Output  | 98.971     | 99.066     | 100.88     |   1.7 |  1.20
Modify  | 318.26     | 3423.3     | 8059       |5532.0 | 41.63
Other   |            | 56.72      |            |       |  0.69

Nlocal:    70.6833 ave 226 max 0 min
Histogram: 44 8 38 0 0 0 0 0 12 18
Nghost:    608.617 ave 975 max 0 min
Histogram: 14 2 0 4 5 27 18 11 19 20
Neighs:    0 ave 0 max 0 min
Histogram: 120 0 0 0 0 0 0 0 0 0
FullNghs:  7094.3 ave 28414 max 0 min
Histogram: 68 22 0 0 0 0 0 5 14 11

Total # of neighbors = 851316
Ave neighs/atom = 100.367
Neighbor list builds = 552201
Dangerous builds = 0
write_data 		${DIR}/data.${NAME}_run
write_data 		run_25/data.${NAME}_run
write_data 		run_25/data.ibeam_cooling_25_run
Total wall time: 2:17:20
