
# Set production fixes - Nose/Hoover
#
fix                 4 water temp/csvr ${START_TEMP} ${END_TEMP} 500.0 928347
fix                 4 water temp/csvr 235 ${END_TEMP} 500.0 928347
fix                 4 water temp/csvr 235 225 500.0 928347


## divide "droplet" into core and surface
#region		core_reg cylinder z 135 135 44.6 20 INF units box
#region		surface_reg cylinder z 135 135 44.6 20 INF units box side out
#group		core dynamic all region core_reg
#group		surface dynamic all region surface_reg

## compute pressure core
#compute        peratom_core core stress/atom NULL
#compute        p_core core reduce sum c_peratom_core[1] c_peratom_core[2] c_peratom_core[3]
#variable       press_core equal -(c_p_core[1]+c_p_core[2]+c_p_core[3])/(3*1249982.5)


## compute pressure surface
#compute        peratom_surf surface stress/atom NULL
#compute        p_surf surface reduce sum c_peratom_surf[1] c_peratom_surf[2] #c_peratom_surf[3]
#variable       press_surf equal -(c_p_surf[1]+c_p_surf[2]+c_p_surf[3])/(3*42395)

## compute total pressure of drop
compute        peratom water stress/atom NULL
compute        p water reduce sum c_peratom[1] c_peratom[2] c_peratom[3]
variable       press equal -(c_p[1]+c_p[2]+c_p[3])/(3*58187)


# compute order parameter
compute        3 all orientorder/atom nnn NULL cutoff 3.5

# compute center of mass of bridge
compute 	4 water com

# Run simulation
thermo_style        custom step c_2 press vol etotal ke pe v_press c_1[4] c_4[*]
thermo              200
dump		     1 water custom 400 ${DIR}/prod.${NAME}.dump id type x y z vx vy vz c_3[*] c_peratom[*]
dump		     1 water custom 400 run_7/prod.${NAME}.dump id type x y z vx vy vz c_3[*] c_peratom[*]
dump		     1 water custom 400 run_7/prod.ibeam_cooling_7.dump id type x y z vx vy vz c_3[*] c_peratom[*]
run                 ${STEPS}
run                 4000000
Neighbor list info ...
  update every 1 steps, delay 0 steps, check yes
  max neighbors/atom: 2000, page size: 100000
  master list distance cutoff = 6.6747184
  ghost atom cutoff = 6.6747184
  binsize = 3.3373592, bins = 24 22 12
  2 neighbor lists, perpetual/occasional/extra = 1 1 0
  (1) pair sw, perpetual
      attributes: full, newton on
      pair build: full/bin/atomonly
      stencil: full/bin/3d
      bin: standard
  (2) compute orientorder/atom, occasional, copy from (1)
      attributes: full, newton on
      pair build: copy
      stencil: none
      bin: none
Per MPI rank memory allocation (min/avg/max) = 6.107 | 6.735 | 7.324 Mbytes
Step c_2 Press Volume TotEng KinEng PotEng v_press c_1[4] c_4[1] c_4[2] c_4[3] 
       0    232.35919   -527.49364       229892   -22670.092    1651.8954   -24321.988   -1503.8267    29.302762    39.444775    35.561927    26.811881 
     200    236.13693   -399.89357       229892   -22680.352    1678.7522   -24359.104   -1020.2967    30.023561    39.445081    35.564458    26.821468 
     400    232.34391   -243.10151       229892   -22616.738    1651.7868   -24268.525   -405.75559    30.914987    39.444359     35.56727     26.79701 
     600    234.44651   -249.25714       229892   -22509.919    1666.7346   -24176.653    -477.5022    32.192753    39.443075     35.56771     26.78969 
     800    234.53583   -292.91656       229892   -22515.751    1667.3696    -24183.12   -608.18698    33.262523    39.444324    35.569768    26.776824 
    1000    233.46588   -361.71323       229892   -22592.216    1659.7631   -24251.979   -873.45231    35.229276    39.444671    35.569234    26.766479 
    1200    237.03491   -361.47599       229892   -22576.037    1685.1362   -24261.173   -875.60738    35.894424    39.446523    35.570439    26.754588 
    1400      234.459   -286.91985       229892   -22557.043    1666.8234   -24223.866   -564.49747    37.849496    39.446972    35.569722    26.755962 
    1600    241.93329   -415.89016       229892    -22553.64    1719.9599     -24273.6   -1049.1768    39.755783    39.446561    35.569589    26.758455 
    1800    237.41157   -427.21076       229892   -22531.824     1687.814   -24219.638   -1123.5313    40.966749    39.445331    35.571739      26.7633 
    2000    236.26891   -409.81853       229892   -22467.555    1679.6905   -24147.245   -1090.0813    41.719479    39.447843    35.572955    26.752709 
    2200    229.55772    -238.4516       229892   -22516.091    1631.9791   -24148.071   -400.08186    42.180297    39.450448    35.575126    26.761306 
    2400    239.70729   -280.96199       229892   -22513.885    1704.1347    -24218.02   -577.87342    43.021775    39.451667    35.576883    26.775291 
    2600    228.74122   -360.60717       229892    -22583.36    1626.1744   -24209.534   -861.05568     44.04999    39.450214    35.578805    26.784487 
    2800    240.04555   -135.51323       229892   -22498.637    1706.5395   -24205.177    17.691112    44.719006    39.451225    35.579881    26.744419 
    3000    238.67569   -369.94291       229892   -22500.578    1696.8009   -24197.379   -879.35904      47.0851    39.451237    35.580429    26.734614 
    3200    231.40001   -219.62163       229892   -22543.501    1645.0764   -24188.577   -299.83583    47.887819    39.449816    35.581128    26.732519 
    3400    233.24397   -450.41966       229892    -22526.37    1658.1855   -24184.555   -1185.3593    48.802081    39.451459    35.583884    26.729421 
    3600    233.85489   -521.76931       229892   -22544.734    1662.5287   -24207.262   -1497.0708    49.834077    39.451663    35.586153    26.730343 
    3800    234.18771   -409.60327       229892   -22518.316    1664.8948   -24183.211    -1018.889    51.552821    39.452123    35.585701    26.743373 
    4000    232.03906   -490.50551       229892    -22571.18    1649.6195   -24220.799   -1353.6251    52.998607    39.451669    35.585676    26.759603 
    4200    233.73945   -288.79057       229892   -22543.259     1661.708   -24204.967   -632.99088    53.675922    39.450111    35.584468    26.780956 
    4400    232.11562   -306.56822       229892   -22581.921    1650.1638   -24232.085   -653.47409    54.316823    39.449957     35.58316    26.786329 
    4600    231.50664   -398.09219       229892   -22646.252    1645.8344   -24292.087   -1018.5554     55.01002    39.450026    35.580376    26.771567 
    4800    241.77801   -371.38011       229892   -22497.986    1718.8559   -24216.842   -861.98595    55.407522    39.449796    35.582512    26.762081 
    5000    238.72142   -305.78424       229892   -22564.342    1697.1259   -24261.468   -651.57872    57.376928    39.447875    35.581216    26.764842 
    5200    232.93456   -310.88736       229892   -22551.503    1655.9858   -24207.489   -664.90573    59.384154    39.450928    35.582057    26.756761 
    5400    233.16199   -320.03367       229892    -22586.67    1657.6027   -24244.272   -679.59948    59.489336    39.450376    35.584026    26.753388 
    5600    239.08995   -320.12662       229892   -22612.923    1699.7459   -24312.669   -653.26651    61.231546    39.447835     35.58391    26.753011 
    5800    239.23432   -388.99248       229892   -22550.817    1700.7723   -24251.589    -981.8581    62.076778    39.448274    35.585929    26.747704 
    6000    230.34851    -274.4658       229892   -22569.844     1637.601   -24207.445   -526.70644    62.449084    39.449029    35.587262    26.761505 
    6200     231.9831   -398.84062       229892   -22596.541    1649.2217   -24245.763    -986.5228    64.086942    39.449547    35.588722    26.768187 
    6400    232.64607   -357.07921       229892   -22559.947    1653.9349   -24213.882   -835.42905    65.548887    39.449878    35.588509    26.752217 
    6600    231.01878   -358.50345       229892   -22579.003    1642.3661   -24221.369   -879.52335    66.012584    39.448512    35.589775    26.742475 
    6800    239.02319   -403.24866       229892    -22601.06    1699.2713   -24300.331   -1015.5106    68.093387    39.447746    35.591084    26.729659 
    7000    238.72115   -234.35922       229892   -22531.853     1697.124   -24228.977   -381.21207    68.557475    39.446204    35.591197    26.739615 
    7200    234.54136   -303.15571       229892   -22607.159     1667.409   -24274.568   -650.04596     70.05769    39.445339    35.590295     26.73467 
    7400    230.47067   -304.57573       229892   -22552.802    1638.4695   -24191.271   -660.41502    71.830358    39.447253    35.590067    26.721181 
    7600    235.90535   -276.54111       229892   -22484.063    1677.1058   -24161.168   -586.38745    73.719494      39.4454    35.589207     26.72313 
    7800    233.23027   -335.93465       229892   -22633.387    1658.0881   -24291.475   -792.09028    75.408993    39.446244    35.589019    26.731879 
    8000    238.82365   -422.03877       229892   -22493.577    1697.8527    -24191.43   -1148.0524    76.269175    39.445868     35.58841    26.728632 
    8200    234.41406    -305.3352       229892   -22518.407    1666.5039   -24184.911   -670.36012    77.048941    39.444702    35.588431    26.721547 
    8400    236.14777   -427.35077       229892   -22489.861    1678.8293    -24168.69   -1113.8858    79.234692    39.446479    35.589824    26.738277 
    8600    232.94248   -224.10587       229892   -22556.192    1656.0421   -24212.234   -361.08054    80.391704    39.446968    35.588324    26.745378 
    8800    236.46795   -432.90832       229892   -22538.065    1681.1055    -24219.17   -1154.7792    81.070454    39.446987    35.587699    26.736003 
    9000    234.59403   -210.50904       229892   -22505.775    1667.7834   -24173.559   -288.46293    82.333096     39.44704    35.588465    26.724518 
    9200    241.64283   -297.73972       229892   -22481.265    1717.8949    -24199.16   -613.05967    83.067251    39.448024     35.58754    26.746934 
    9400    235.71139   -245.32149       229892    -22522.41    1675.7269   -24198.137   -422.03212    85.055788    39.449403      35.5886    26.760828 
    9600     236.5609   -305.12353       229892    -22575.89    1681.7663   -24257.657   -652.82217     85.24215    39.449695     35.58824    26.758188 
    9800    234.22898   -418.13628       229892   -22499.335    1665.1882   -24164.524   -1132.2746    86.148666    39.450879    35.589596    26.769669 
   10000    236.13542   -364.08573       229892   -22530.588    1678.7415    -24209.33      -917.09    86.606202    39.451661    35.590567    26.743458 
   10200    238.73624   -232.12708       229892   -22490.065    1697.2313   -24187.296   -375.52911    88.134907     39.45018    35.591919    26.742229 
   10400    240.45921   -284.81091       229892   -22490.727    1709.4803   -24200.207   -540.68785    89.239368    39.449916    35.593046    26.738819 
   10600    233.24334   -310.65138       229892   -22570.721     1658.181   -24228.902   -668.39176    91.543572    39.451684    35.593822    26.739214 
   10800    235.45311   -461.08921       229892   -22607.445    1673.8907   -24281.335   -1270.8648    91.944801    39.453387    35.591733    26.745693 
   11000    233.60084   -465.43115       229892   -22614.153    1660.7226   -24274.876   -1295.6517    92.117902    39.455896    35.590325    26.719159 
   11200    233.12475   -506.94123       229892   -22623.487    1657.3379   -24280.825   -1454.0407    94.221999    39.458633    35.591482    26.739328 
   11400    235.91612   -129.53032       229892   -22623.145    1677.1824   -24300.328   -5.6525923     94.25069    39.457115    35.593338    26.747911 
   11600     234.9603   -232.50914       229892   -22558.969    1670.3873   -24229.357   -379.65721    95.618577    39.455369    35.594174    26.720476 
   11800    237.42493    -328.9212       229892   -22538.837    1687.9089   -24226.746   -732.97937    96.568826    39.455715    35.595018    26.723976 
   12000    236.19247   -214.41829       229892   -22521.188    1679.1471   -24200.335   -273.29391    97.368375    39.453987    35.595302    26.741278 
   12200    234.32516   -414.14416       229892   -22553.864    1665.8719   -24219.736   -1077.4044    98.858936    39.452215    35.593964     26.74744 
   12400    239.87073   -375.57648       229892   -22577.283    1705.2966    -24282.58   -888.72484    98.079892    39.449953    35.592985    26.744441 
   12600    236.63917   -277.03102       229892   -22524.777    1682.3228   -24207.099   -506.43137    100.28091    39.450682    35.592012    26.730034 
   12800    234.66506   -371.16533       229892   -22573.992    1668.2883    -24242.28   -891.68385    103.00228     39.45341    35.591857    26.714497 
   13000    234.23786    -272.1264       229892   -22611.355    1665.2513   -24276.606   -527.73508    104.00456    39.454703    35.595035     26.69629 
   13200    229.37295   -156.51947       229892   -22645.395    1630.6655   -24276.061   -67.868098     104.4178    39.454916    35.595941    26.691625 
   13400    230.29049   -248.29328       229892   -22671.377    1637.1885   -24308.565   -432.30291    105.83256     39.45701    35.598184    26.712361 
   13600    231.41049   -363.47437       229892   -22591.514    1645.1508   -24236.665   -863.83969    106.84149    39.456107     35.59707    26.696669 
   13800    238.23963   -430.70235       229892   -22536.632    1693.7008   -24230.333   -1146.6143    108.21165    39.455751    35.597132    26.700155 
   14000     236.1084   -301.83264       229892   -22484.317    1678.5494   -24162.866   -658.90126    109.54767      39.4542    35.595816    26.703856 
   14200    235.33152   -315.00602       229892   -22538.189    1673.0264   -24211.216   -731.92055    110.80591    39.454428    35.593477    26.703396 
   14400     232.5912   -617.52979       229892   -22591.959    1653.5448   -24245.504   -1881.5991    110.89707    39.453706    35.593917    26.701078 
   14600    237.62073   -291.36096       229892   -22572.648    1689.3009   -24261.949   -601.67786    113.03296     39.45313    35.592283    26.709847 
   14800     236.9374   -396.66566       229892   -22530.951     1684.443   -24215.394   -993.28557    113.50558    39.450533    35.590298    26.702302 
   15000     228.9522   -211.67853       229892   -22555.109    1627.6743   -24182.783   -316.74785     113.6434    39.451891    35.590009     26.69745 
   15200    235.63664   -372.21556       229892   -22511.066    1675.1955   -24186.262   -955.04045    114.64624    39.453072    35.590848    26.684181 
   15400    235.91247   -375.89585       229892   -22540.515    1677.1565   -24217.671    -958.6198    116.30579     39.45222    35.591895    26.674724 
   15600     242.0255   -371.76594       229892   -22447.606    1720.6154   -24168.221   -892.31643    118.29145    39.452433     35.59088    26.661105 
   15800    235.11678   -176.92296       229892   -22470.161    1671.4997    -24141.66   -132.88239    121.16958    39.452337    35.589991    26.656005 
   16000     232.5722   -393.40492       229892   -22503.198    1653.4097   -24156.608    -1010.586    123.53165    39.453532    35.590051    26.662481 
   16200    243.72928   -426.78037       229892    -22489.31     1732.728   -24222.038   -1120.0832    124.90721    39.452756    35.591079    26.659737 
   16400    238.02484   -295.83632       229892   -22521.124    1692.1738   -24213.298   -632.06436    124.37961    39.451036    35.590722    26.656256 
   16600    239.79506    -233.6918       229892   -22449.274    1704.7587   -24154.033   -412.81445    125.03796    39.451574    35.593052    26.637691 
   16800    238.01262   -174.32597       229892   -22510.772    1692.0869   -24202.859   -177.84549    125.98894    39.451958    35.593561    26.641534 
   17000    229.69381   -150.35186       229892   -22570.466    1632.9466   -24203.413   -31.062378    126.81185    39.452204    35.594849      26.6307 
   17200    232.10772   -392.89984       229892   -22547.875    1650.1076   -24197.983   -1031.2204    128.48819     39.45213    35.597277    26.612198 
   17400    229.26673   -272.91396       229892   -22630.222    1629.9103   -24260.133   -514.09728    129.59521    39.452871    35.599216    26.623257 
   17600    234.45103   -474.10137       229892   -22559.618    1666.7667   -24226.385   -1321.0354    129.54046    39.455059    35.597834    26.633042 
   17800    238.24457   -305.40467       229892   -22583.402    1693.7359   -24277.138   -644.13799    128.94301    39.455746     35.59815    26.642854 
   18000    232.07832   -423.00698       229892   -22542.336    1649.8986   -24192.235   -1121.2256    130.08676    39.455067     35.59781    26.637763 
   18200    237.08452   -276.82106       229892   -22566.278    1685.4888   -24251.767   -569.48841    130.67025    39.456626    35.599556     26.64696 
   18400     234.1138   -352.86529       229892   -22557.415    1664.3693   -24221.784   -852.82495    130.20328    39.456672    35.599046    26.633342 
   18600    231.57248   -604.59411       229892   -22537.263    1646.3025   -24183.566   -1841.1905     131.8288    39.457524    35.600833    26.636869 
   18800    234.69406   -297.09584       229892   -22588.745    1668.4945   -24257.239     -627.948    131.98676    39.457327    35.600053     26.63422 
   19000    237.49794    -474.5673       229892   -22542.613     1688.428   -24231.041   -1261.8486    133.25135    39.459992    35.602947    26.636064 
   19200    233.49023   -503.91094       229892   -22552.745    1659.9362   -24212.682   -1405.2964    134.00994    39.460997    35.603994    26.637842 
   19400    239.42988    -272.7801       229892   -22480.039    1702.1626   -24182.201   -543.50434    135.49092    39.463871     35.60546    26.650611 
   19600    232.89196   -556.70523       229892   -22484.801     1655.683   -24140.484   -1615.3007    136.50963      39.4636    35.607053    26.649878 
   19800    239.04039   -521.09783       229892   -22489.656    1699.3936    -24189.05   -1508.6916    137.47779    39.463702    35.607317    26.659154 
   20000    238.55982   -208.12409       229892   -22500.527    1695.9771   -24196.504   -270.05431    138.48753    39.462377    35.608086    26.651146 
   20200    231.89544   -321.43439       229892   -22593.753    1648.5985   -24242.352   -742.77778     139.5918    39.461813    35.610462    26.659087 
   20400    239.89449   -353.66885       229892   -22492.036    1705.4656   -24197.501   -844.26023    141.68834    39.463527    35.610643    26.655434 
   20600    231.57566    -317.8721       229892    -22590.08    1646.3251   -24236.405   -703.91996    143.06284    39.466645    35.610716    26.652575 
   20800    241.36326    -186.2205       229892   -22548.544    1715.9074   -24264.451   -189.90339    143.23158    39.467255    35.608871    26.648795 
   21000     237.5281   -321.91491       229892   -22579.478    1688.6424    -24268.12   -682.09201    144.62915    39.466378    35.606994    26.636106 
   21200    234.60986   -479.96301       229892    -22575.74    1667.8959   -24243.636   -1321.7888    145.79923    39.468329    35.604355    26.622352 
   21400    235.24567   -451.60325       229892   -22557.138    1672.4161   -24229.554   -1213.9666    148.03125     39.46782    35.603997    26.632945 
   21600    241.95033   -382.76311       229892   -22471.756    1720.0811   -24191.837   -952.24221    149.24345    39.466416    35.603328    26.643457 
   21800    233.64987   -294.68703       229892   -22611.836    1661.0711   -24272.907   -594.19691    150.52094    39.466745    35.601182    26.634579 
   22000    232.94227   -233.19647       229892   -22685.282    1656.0406   -24341.322    -381.5525    151.14853    39.465873    35.600524    26.628496 
   22200    226.78719   -389.76307       229892   -22698.067    1612.2827   -24310.349   -990.75608    151.50925    39.465029    35.600825    26.614222 
   22400    236.58033    -352.5281       229892   -22544.036    1681.9044   -24225.941   -802.02805    151.48551    39.463154    35.599692    26.600667 
   22600    232.54176    -315.4234       229892   -22572.479    1653.1933   -24225.672   -665.18976    151.91831    39.460964     35.59997     26.60012 
   22800    236.00134   -454.85354       229892   -22531.904    1677.7883   -24209.692   -1227.5783    150.64028      39.4617    35.599422    26.613093 
   23000    234.70691    -331.4212       229892   -22620.262    1668.5859   -24288.848   -728.09241    151.79117    39.461967    35.600011    26.621524 
   23200    240.78307    -481.0999       229892   -22551.543    1711.7827   -24263.326    -1325.892    152.27753    39.460374    35.599784    26.636562 
   23400    237.61729   -346.53568       229892   -22520.991    1689.2764   -24210.268   -785.70393    153.02543      39.4603    35.599287    26.638861 
   23600    238.77786   -390.66425       229892   -22476.107    1697.5272   -24173.634   -985.32404    153.89102    39.461007    35.600707     26.64203 
   23800    240.11711   -443.76558       229892   -22488.039    1707.0482   -24195.088   -1165.2442    153.84708    39.461987    35.597157    26.637836 
   24000    237.47023   -293.07473       229892    -22513.33     1688.231   -24201.561   -654.83327    156.40952    39.463775    35.595987    26.634034 
   24200    234.97168   -528.47625       229892   -22530.798    1670.4682   -24201.266   -1512.5914      157.254    39.466159    35.594613    26.616215 
   24400    228.80408   -407.95049       229892   -22554.856    1626.6213   -24181.478   -1077.6827    158.89059    39.467124    35.594279    26.608822 
   24600    229.70113   -371.95742       229892   -22564.238    1632.9986   -24197.237   -858.10245    161.17111     39.46969    35.596019    26.595943 
   24800    239.29328   -340.57046       229892   -22547.592    1701.1914   -24248.784   -744.75582    162.23201    39.469103    35.595521    26.587199 
   25000    232.93353   -307.44639       229892   -22558.731    1655.9785   -24214.709   -657.93545    163.54195     39.46865    35.595408    26.592617 
   25200    224.04152   -362.09166       229892   -22675.332    1592.7631   -24268.095   -861.17937     164.2304    39.469898    35.594365    26.584194 
   25400    239.70254   -437.10801       229892   -22599.365     1704.101   -24303.466   -1141.6055    164.69951    39.470527    35.594385    26.577482 
   25600    240.63939   -235.58767       229892   -22485.266    1710.7612   -24196.028   -354.16643    165.48965     39.47144    35.596614    26.584093 
   25800    231.75173   -554.90532       229892   -22466.334    1647.5768   -24113.911   -1644.3616    166.11132    39.473752    35.593566     26.58957 
   26000    235.50357   -360.70819       229892   -22523.195    1674.2495   -24197.445   -854.12464    166.92655    39.476381    35.591686     26.60185 
   26200    230.89913   -397.19257       229892   -22542.659    1641.5155   -24184.174   -1006.5194    168.65054    39.477193    35.589199    26.620894 
   26400    236.62981   -261.96544       229892   -22570.392    1682.2562   -24252.648   -491.11814    169.76336    39.478436    35.585818    26.625167 
   26600    239.92211   -375.52982       229892   -22501.356     1705.662   -24207.018   -930.23896    171.47439    39.478976    35.584007    26.631938 
   26800    239.89634   -417.05965       229892   -22516.363    1705.4787   -24221.842   -1105.6546     172.3703    39.480344    35.583024      26.6017 
   27000    241.19689   -345.48377       229892   -22449.405    1714.7246    -24164.13   -793.12586    174.16378    39.481615     35.58387    26.594501 
   27200     236.2782   -313.02376       229892   -22483.849    1679.7565   -24163.605   -685.13311    174.33504    39.480967    35.584071    26.574672 
   27400    241.82798   -265.93393       229892   -22425.398    1719.2112    -24144.61   -504.72679    175.22407    39.481304     35.58481    26.586394 
   27600    227.33315   -366.98481       229892   -22585.336    1616.1641     -24201.5   -893.38361     177.2516     39.48361    35.584272    26.595129 
   27800    236.26664   -342.36336       229892   -22504.068    1679.6744   -24183.743   -789.16129     178.4874     39.48413    35.583728    26.612459 
   28000    229.33968   -310.10365       229892   -22596.673     1630.429   -24227.102   -676.04215    179.63602    39.485197    35.584516    26.630064 
   28200    237.46534   -320.28189       229892   -22572.692    1688.1962   -24260.888   -710.41971    182.44606    39.484871    35.585066    26.629771 
   28400    232.92218   -326.93392       229892   -22581.331    1655.8978   -24237.229   -739.59485    183.34231    39.484834    35.586085    26.627835 
   28600    235.65002    -306.0479       229892   -22617.941    1675.2907   -24293.231   -612.90762    183.87078    39.483908    35.586631    26.636771 
   28800    231.62041   -442.90002       229892   -22600.276    1646.6432   -24246.919   -1165.8744    183.97017    39.484447    35.584448    26.632106 
   29000    239.54044    -372.0737       229892   -22550.788    1702.9486   -24253.736    -921.7002    184.75576     39.48417    35.582559    26.613209 
   29200    241.44991   -363.44841       229892   -22518.762    1716.5234   -24235.286   -853.88651     184.7677    39.481883    35.580813    26.605045 
   29400    237.94134   -429.54588       229892   -22516.687    1691.5802   -24208.267   -1130.0599    185.72677    39.483007     35.57991    26.606858 
   29600    236.55079   -371.32559       229892   -22561.297    1681.6944   -24242.992   -914.20187    187.19058    39.482332    35.580965    26.580322 
   29800    229.86641   -365.12965       229892   -22623.255    1634.1737   -24257.429   -865.53292    187.96444    39.481467    35.581574    26.585791 
   30000    230.98608   -423.74968       229892   -22680.501    1642.1336   -24322.634   -1094.0147    188.83231    39.481419    35.582274    26.595208 
   30200    236.50765   -418.72425       229892   -22571.607    1681.3878   -24252.994   -1085.6909    187.85608    39.479826    35.579942    26.601787 
   30400    231.26086   -435.12758       229892   -22613.011    1644.0871   -24257.098    -1141.208    187.90239      39.4784    35.578773    26.600968 
   30600    233.77018   -359.02857       229892   -22689.856    1661.9264   -24351.783   -865.87655    189.50786    39.476775     35.57836    26.610496 
   30800    231.36976   -290.13613       229892   -22654.862    1644.8613   -24299.723   -562.43055    192.00557    39.475757    35.578293    26.592615 
   31000    231.97432   -264.22734       229892   -22657.788    1649.1593   -24306.948   -484.16374    192.65834    39.474005    35.579083    26.590084 
   31200    228.29567   -187.51778       229892    -22652.86    1623.0069   -24275.866   -183.23494     193.9069    39.473804    35.578135    26.589275 
   31400    235.16122   -385.18129       229892   -22661.001    1671.8157   -24332.816   -954.18431    194.04282    39.474573    35.578161    26.581178 
   31600    238.23739   -423.20479       229892   -22672.513    1693.6849   -24366.198   -1081.7841    195.30358    39.474577    35.579639     26.58248 
   31800      237.255   -319.58429       229892   -22564.687    1686.7008   -24251.388   -688.30662    197.04949    39.475421    35.578398    26.607547 
   32000    235.25116   -373.09637       229892   -22633.085    1672.4551    -24305.54   -910.11765    197.73128    39.473898    35.575899    26.604718 
   32200    236.17147   -484.53206       229892   -22598.247    1678.9978   -24277.245    -1352.374    198.36378    39.474127    35.575404    26.606492 
   32400    233.66929   -398.48852       229892   -22575.506    1661.2092   -24236.716   -1046.0923    199.23734    39.473868    35.574922    26.607144 
   32600    241.92756    -417.8112       229892   -22519.215    1719.9191   -24239.134   -1072.7156    200.69024    39.475158    35.576333    26.619419 
   32800    239.86396   -253.66056       229892   -22529.002    1705.2485    -24234.25   -457.64457    202.15192     39.47552     35.57718    26.593836 
   33000    236.61165   -301.09002       229892   -22537.014    1682.1271   -24219.141   -621.64862    204.10849    39.475312    35.577975    26.588876 
   33200    237.03731   -379.14541       229892    -22534.46    1685.1532   -24219.614    -934.1388    204.43168    39.475071    35.578377    26.587764 
   33400    230.15527   -395.73438       229892   -22563.802    1636.2272    -24200.03   -1010.9159    205.66869     39.47497    35.579209    26.584985 
   33600    228.96801    -210.6773       229892   -22589.981    1627.7867   -24217.768   -264.95444    207.47469    39.473951    35.579183    26.569195 
   33800     243.5541   -378.44957       229892   -22461.225    1731.4826   -24192.708    -926.1784    209.26725    39.471389    35.580713    26.560638 
   34000    233.08332   -526.20704       229892   -22545.581    1657.0434   -24202.624   -1507.7269    211.57594    39.469252    35.579316    26.570116 
   34200    235.82162    -327.2791       229892   -22548.484    1676.5106   -24224.994   -741.02877    211.49135    39.470678    35.577715    26.554902 
   34400    232.67299   -419.50647       229892   -22590.794    1654.1263    -24244.92   -1077.8925    212.88369    39.468371    35.576063    26.539324 
   34600    236.39346   -295.58468       229892   -22454.052    1680.5759   -24134.627   -573.92415    214.64975    39.467528    35.580311     26.55177 
   34800    232.27001   -284.83572       229892   -22530.657    1651.2614   -24181.918   -589.86698    215.76584    39.468613    35.581738    26.566872 
   35000    228.99174   -347.56296       229892    -22557.27    1627.9554   -24185.225   -808.61862    215.04306    39.467531    35.580973    26.571164 
   35200    234.88819   -307.74181       229892   -22469.379    1669.8746   -24139.254    -638.4039    216.63435    39.467431    35.580537    26.575487 
   35400    240.28222   -454.89622       229892   -22443.077    1708.2221   -24151.299   -1229.5438    216.59118    39.468515    35.579045    26.574071 
   35600    233.13706   -367.97954       229892   -22459.185    1657.4255    -24116.61   -905.92078    217.00261    39.471315    35.579088      26.5707 
   35800    243.36212   -435.70354       229892   -22385.118    1730.1178   -24115.236   -1123.7138    220.54001    39.472409    35.578899     26.56738 
   36000    233.97601   -471.31689       229892   -22532.978    1663.3897   -24196.368   -1313.6026    221.22917    39.473602    35.579516    26.584807 
   36200    237.40099   -423.68576       229892    -22598.36    1687.7387   -24286.099   -1129.9199    223.01165    39.477631    35.580473    26.590006 
   36400    231.82994   -420.99074       229892   -22541.088    1648.1328   -24189.221   -1147.0265    224.30297    39.476658    35.582446    26.579454 
   36600    236.48224   -500.98696       229892    -22517.24    1681.2071   -24198.448   -1379.0751    225.89633    39.477473    35.583788    26.581359 
   36800    235.57983   -195.57173       229892   -22535.983    1674.7917   -24210.775   -230.43415    225.13536    39.479713    35.584086    26.593419 
   37000     234.4706     -248.777       229892   -22543.363    1666.9059   -24210.269   -397.59057    224.77897    39.482921    35.585442    26.568509 
   37200    235.76016   -322.95464       229892   -22544.767    1676.0737    -24220.84   -705.41697     227.5552    39.483966    35.582877    26.555769 
   37400    232.92135   -439.38051       229892   -22539.732    1655.8919   -24195.624   -1156.0533    228.36455    39.484884    35.583722    26.564544 
   37600    227.35692   -454.38425       229892    -22551.29    1616.3331   -24167.623    -1236.872    229.96118    39.486932    35.583625    26.552177 
   37800    232.74892   -554.94832       229892   -22618.655    1654.6661   -24273.321   -1611.1387    231.95306    39.486733    35.583597    26.557026 
   38000    240.01861   -194.48951       229892   -22531.947     1706.348   -24238.295   -220.24142       232.83    39.485285    35.586277    26.559596 
   38200    229.87453   -421.79334       229892   -22545.938    1634.2313   -24180.169   -1104.8438    232.63291    39.482952    35.586841     26.54673 
   38400    245.46492     -450.281       229892   -22493.098     1745.067   -24238.165   -1214.8054     233.3671    39.483747    35.585097    26.547885 
   38600    239.91984   -273.37899       229892   -22569.971    1705.6458   -24275.617   -475.66403     234.1317    39.484952    35.584163    26.561026 
   38800    232.25954   -677.04307       229892   -22583.728    1651.1869   -24234.915   -2086.7368    235.21668    39.485649    35.582788    26.539423 
   39000    236.87591   -326.94753       229892   -22535.903    1684.0058   -24219.909   -732.24541    235.50507    39.484053    35.585764    26.538488 
   39200    234.56189   -170.17958       229892   -22599.605    1667.5549    -24267.16   -100.55635    236.58405    39.483603    35.587149    26.529395 
   39400     238.1646   -378.02052       229892   -22573.178    1693.1674   -24266.345   -902.79994    236.79797    39.482669    35.588792    26.526401 
   39600     238.8542   -398.01861       229892   -22485.865    1698.0699   -24183.935   -1028.8085    235.57187    39.481453    35.591341    26.521581 
   39800     234.5417   -271.51886       229892   -22546.697    1667.4114   -24214.108   -497.49902    236.97213    39.479674    35.588911    26.527091 
   40000    235.08092   -203.17093       229892   -22503.893    1671.2448   -24175.137   -197.09889    238.49425    39.478589    35.587878    26.528414 
   40200    235.42354   -421.11705       229892   -22557.124    1673.6806   -24230.805    -1094.531    239.64171    39.480158    35.587847     26.51503 
   40400    232.72043   -403.25564       229892    -22563.52    1654.4635   -24217.984   -1062.0908    241.05756    39.480644    35.584614    26.516602 
   40600    237.53581   -372.80112       229892   -22461.311    1688.6972   -24150.008   -924.37657    242.74524    39.481024    35.584595    26.517131 
   40800      232.089    -244.8521       229892   -22578.095    1649.9745   -24228.069   -398.27073    243.90878    39.480472    35.584048    26.541995 
   41000    232.55934   -438.33278       229892   -22529.715    1653.3183   -24183.033   -1202.8054    243.73414    39.479515    35.585194    26.528083 
   41200     242.1023   -429.60276       229892   -22475.582    1721.1614   -24196.743   -1138.6243    242.61581    39.478329    35.588472    26.525037 
   41400     232.2963   -556.53035       229892   -22516.977    1651.4483   -24168.426   -1620.1997    243.98835    39.476162    35.592015    26.550761 
   41600    242.61328   -364.12034       229892   -22517.007    1724.7941   -24241.801   -891.08114    245.84069    39.475186    35.593857    26.554203 
   41800    239.00537    -342.4442       229892    -22558.91    1699.1446   -24258.055   -769.74018    247.09793    39.476203    35.593254    26.553834 
   42000    233.93051   -409.11126       229892   -22563.399    1663.0663   -24226.465   -1022.7521    248.14692    39.474287    35.592302     26.54403 
   42200    236.18353   -316.18281       229892   -22604.357    1679.0835   -24283.441   -693.45373    250.25527     39.47353    35.592069    26.543989 
   42400    232.02291   -243.10049       229892   -22545.126    1649.5047    -24194.63   -388.95003    250.24951    39.472037    35.593436    26.537409 
   42600    230.59067   -398.03659       229892   -22606.947    1639.3225   -24246.269   -980.93283     252.1531    39.472686     35.59242     26.55111 
   42800    233.55567    -288.3319       229892   -22543.711    1660.4014   -24204.113   -581.03493    255.13411    39.473096    35.590236    26.559331 
   43000    235.57681   -281.18299       229892   -22582.546    1674.7702   -24257.317   -484.84879    255.94181    39.474582    35.589614    26.572732 
   43200    234.63908   -361.32531       229892   -22600.454    1668.1036   -24268.557   -842.48152    255.13208    39.474942    35.589525    26.586816 
   43400     236.3545   -233.24403       229892   -22581.469     1680.299   -24261.768    -338.6161     256.5648     39.47448    35.588827     26.59653 
   43600    232.60994   -379.65928       229892   -22610.139     1653.678   -24263.817   -946.45203    257.22124    39.473325    35.587093    26.599182 
   43800    233.65726   -461.46618       229892   -22637.698    1661.1237   -24298.821   -1257.1259    258.17948    39.472105    35.586626    26.615233 
   44000    234.29936    -402.6009       229892   -22685.324    1665.6885   -24351.013   -986.71804    261.01481    39.473175    35.588515    26.607134 
   44200    233.38651   -369.45497       229892   -22628.891    1659.1988    -24288.09   -876.67318    258.89655     39.47537    35.588682    26.615376 
   44400    235.77719   -234.93839       229892   -22652.479    1676.1947   -24328.673   -342.84849    259.11494     39.47687    35.587588    26.617502 
   44600    230.16136   -407.13799       229892   -22676.162    1636.2705   -24312.432   -1049.3138    261.38959    39.477625    35.588717    26.603775 
   44800    236.70862    -304.2973       229892   -22669.993    1682.8165    -24352.81   -618.09859    262.38325    39.478145    35.587833    26.593744 
   45000    232.19751   -333.73924       229892   -22636.296     1650.746   -24287.042   -775.59819    262.49463    39.478788    35.586936    26.606325 
   45200    238.06908     -293.825       229892   -22598.107    1692.4883   -24290.595   -621.59206    263.75722    39.478931    35.586791    26.612746 
   45400    228.89011   -358.99881       229892   -22667.352    1627.2329   -24294.585   -871.05678    264.26959     39.47895    35.585339    26.616436 
   45600    232.62602   -332.02915       229892    -22577.95    1653.7923   -24231.742    -775.4757    267.04821    39.479932    35.588351    26.636082 
   45800    236.99436   -293.91676       229892   -22600.796    1684.8479   -24285.644   -600.54208    267.18558    39.481179    35.590817    26.632443 
   46000     238.7916   -423.48992       229892    -22504.51    1697.6249   -24202.135   -1115.0201    267.85807     39.48057    35.593173    26.616452 
   46200     239.0161   -467.77361       229892   -22492.558    1699.2209   -24191.779   -1281.8291    268.53709    39.480152    35.592062    26.604569 
   46400    232.44501   -328.96856       229892   -22566.324    1652.5055   -24218.829   -692.55166    269.57812    39.479964    35.593415    26.600893 
   46600    234.78012   -288.99811       229892   -22522.975    1669.1064   -24192.081    -551.8384     267.4866    39.480291    35.596174     26.58701 
   46800    236.57704   -389.63519       229892   -22496.144     1681.881   -24178.025   -964.46521    268.61202    39.482533    35.597918    26.574849 
   47000    238.75421   -347.58135       229892   -22484.448    1697.3591   -24181.807   -792.42104     270.2696    39.483251     35.59953    26.594672 
   47200      230.215   -413.22032       229892   -22614.543    1636.6519   -24251.195   -1080.5665    269.80166    39.483447    35.600834    26.587609 
   47400    236.20867   -268.32487       229892    -22548.82    1679.2622   -24228.082   -488.58088     270.1867    39.482626    35.601459    26.603124 
   47600     237.8802   -314.64638       229892   -22558.561    1691.1455   -24249.707   -673.25081    271.53002    39.482436    35.602298    26.591288 
   47800    233.53191    -341.6951       229892   -22561.537    1660.2325   -24221.769   -783.85922     273.2021    39.481215    35.603103    26.606141 
   48000    235.23623   -82.819366       229892    -22562.75    1672.3489   -24235.099    211.33338     275.5708    39.481555    35.602513     26.60007 
   48200    235.04249   -366.90806       229892   -22579.366    1670.9716   -24250.337   -886.67945    278.63158    39.481129    35.607208    26.576699 
   48400    229.00961   -478.14708       229892   -22565.569    1628.0824   -24193.652   -1291.1332    278.67345    39.480225     35.60708    26.579124 
   48600     228.3732   -355.92882       229892   -22652.549    1623.5581   -24276.107   -859.37037    278.98707    39.480218    35.606395    26.567075 
   48800    238.83367   -291.76934       229892   -22617.138     1697.924   -24315.062     -573.169    280.20628    39.480673    35.605968    26.562458 
   49000    232.55603   -266.85297       229892   -22615.213    1653.2947   -24268.508   -513.31275    280.05879    39.478937    35.606334    26.569692 
   49200    234.47329   -296.86989       229892   -22567.132     1666.925   -24234.057   -630.22792    280.09835    39.479819    35.604233    26.581357 
   49400    238.31517   -275.57568       229892   -22629.046    1694.2378   -24323.284   -541.98243     281.9528    39.478199    35.603724    26.581938 
   49600    234.04024   -449.10218       229892   -22626.946    1663.8464   -24290.793    -1226.886    283.44239      39.4789    35.603067    26.581725 
   49800    238.72424   -226.85937       229892   -22625.165     1697.146   -24322.311   -340.72707    284.17356    39.478731    35.602691    26.599246 
   50000    230.87331   -596.09822       229892   -22626.731    1641.3319   -24268.063   -1779.6482    283.78104     39.47893    35.600867    26.578115 
   50200    244.09764   -503.17067       229892   -22568.887    1735.3467   -24304.234   -1434.0848    285.48591    39.480801    35.603275    26.570544 
   50400    240.50607   -416.73248       229892   -22586.038    1709.8134   -24295.851   -1078.5679    286.83474    39.479146    35.604068    26.545281 
   50600    239.30694   -279.76079       229892   -22457.456    1701.2886   -24158.744   -545.90163    287.56972    39.478385    35.605553    26.554176 
   50800    235.16287   -299.37003       229892   -22612.585    1671.8274   -24284.413   -593.80856    288.01453    39.474863    35.601904    26.553608 
   51000    235.68345   -495.34508       229892   -22608.689    1675.5283   -24284.217   -1391.0109    288.35957    39.473364    35.601022    26.541626 
   51200    233.19955   -480.49393       229892   -22655.661    1657.8697   -24313.531   -1336.0767    290.41401    39.475534    35.599667    26.536245 
   51400    232.62543   -298.38415       229892   -22604.315    1653.7881   -24258.103   -622.07349      290.879    39.476812    35.600037    26.524262 
   51600    231.18524   -327.70052       229892    -22618.58    1643.5495   -24262.129   -727.87305    291.11081    39.477896    35.599705    26.524685 
   51800    228.33953   -215.62492       229892   -22595.828    1623.3187   -24219.147    -328.7286    292.27618    39.476592    35.599552    26.523203 
   52000    236.16676    -562.0819       229892   -22662.268    1678.9643   -24341.233   -1618.6114    290.84467    39.477594    35.598075     26.52744 
   52200    235.50514   -326.88803       229892   -22673.899    1674.2607   -24348.159   -731.57819    291.10911    39.477998    35.596452    26.533762 
   52400    229.60582   -436.80987       229892   -22737.604    1632.3211   -24369.925   -1156.8701    291.47935    39.478173    35.595685    26.550015 
   52600    231.78397   -432.70219       229892   -22610.895     1647.806   -24258.701    -1154.568    292.66004     39.47959    35.595105    26.543644 
   52800    234.96246   -415.37449       229892   -22532.572    1670.4026   -24202.975   -1109.3012    294.41538    39.479667    35.593516    26.548297 
   53000     242.1715   -409.74407       229892   -22507.332    1721.6534   -24228.985   -1065.4806    294.94387     39.47788    35.593776    26.564585 
   53200    234.25688   -359.43691       229892   -22625.764    1665.3865   -24291.151   -855.00942    294.33273    39.478539    35.592863    26.558075 
   53400    236.09652   -339.55359       229892   -22606.335    1678.4649     -24284.8   -796.85918    294.72699    39.480546    35.591293    26.561346 
   53600    223.97569   -546.74145       229892   -22660.188    1592.2951   -24252.483   -1628.8859    295.51639     39.48107    35.591644    26.567447 
   53800    234.34704   -328.09613       229892   -22580.273    1666.0275   -24246.301   -716.28488    296.75426    39.479162    35.593095    26.587222 
   54000    233.54404   -401.85791       229892   -22570.112    1660.3187   -24230.431   -1027.6215     296.9796    39.480395    35.594543    26.597159 
   54200    244.67083   -221.83295       229892   -22520.967    1739.4217   -24260.389   -374.47945    297.49105    39.481518    35.595527     26.61987 
   54400    233.93021   -268.89694       229892   -22465.556    1663.0641    -24128.62   -588.37133    297.53791    39.481797    35.597984    26.626436 
   54600    238.04614   -241.87331       229892   -22526.344    1692.3252    -24218.67    -426.5295    298.54541     39.48311    35.598228     26.62948 
   54800    239.88735   -282.58857       229892   -22505.474    1705.4148   -24210.889   -588.39383    299.45245    39.483539     35.59773    26.602617 
   55000     237.5167   -485.23068       229892    -22490.55    1688.5613   -24179.111   -1355.5128    302.57484    39.484053    35.596827    26.570565 
   55200    229.61918   -331.52376       229892   -22614.011     1632.416   -24246.427   -768.66344    304.13524    39.483728    35.598175    26.559868 
   55400    231.40521   -316.57915       229892   -22523.515    1645.1133   -24168.629   -720.46782     306.1658    39.483456     35.59744    26.575983 
   55600    233.40712   -434.96554       229892   -22513.025    1659.3453   -24172.371   -1233.5529    308.14829    39.483307    35.596832    26.570675 
   55800     241.9502   -61.341053       229892   -22414.237    1720.0801   -24134.317    287.16045    308.87562    39.485051    35.593865    26.559398 
   56000    239.45731    -380.6613       229892   -22448.542    1702.3576   -24150.899   -951.24119    310.14657    39.486691    35.593031    26.567551 
   56200    232.22663   -310.14459       229892    -22466.53     1650.953   -24117.483   -724.81384    310.78219    39.487552    35.593605    26.550127 
   56400    230.72287     -491.522       229892   -22547.698    1640.2624   -24187.961   -1386.5486    310.02081    39.487336    35.593783    26.548408 
   56600     230.1408    -343.1104       229892   -22651.818    1636.1243   -24287.942   -785.77876    311.43788    39.487424    35.595129    26.541509 
   56800    227.12329   -398.47412       229892   -22568.155    1614.6722   -24182.827   -1041.5493    311.13064    39.486185    35.596095    26.553851 
   57000    229.03903   -285.23202       229892   -22581.805    1628.2916   -24210.097   -619.72354    311.14637    39.485341    35.596712     26.53917 
   57200    235.25923   -380.20446       229892   -22486.706    1672.5124   -24159.218   -1008.6671    311.63728     39.48442     35.59569    26.554232 
   57400    230.79794   -361.42426       229892    -22511.28    1640.7961   -24152.076   -846.32111    313.10726    39.483624    35.595765     26.54312 
   57600    238.18761   -267.53301       229892   -22543.321    1693.3309   -24236.652   -529.14058    313.94352     39.48356    35.596341    26.541988 
   57800    236.97871   -250.84147       229892   -22497.769    1684.7366   -24182.506   -442.18133    313.12093    39.483287    35.595521     26.55422 
   58000    229.59159   -331.56599       229892   -22514.807    1632.2199   -24147.027   -768.37908    316.44565     39.48407    35.596184     26.57868 
   58200    230.57634   -292.86209       229892   -22429.565    1639.2207   -24068.786   -605.58246    316.24695     39.48418    35.596929    26.593326 
   58400      234.477   -266.54843       229892   -22488.767    1666.9514   -24155.719   -512.80998    318.84406     39.48306    35.597068    26.582657 
   58600    235.84891   -470.47671       229892   -22537.356    1676.7046   -24214.061   -1308.9753     320.5286    39.484264    35.596635    26.600668 
   58800    235.87823    -431.4444       229892   -22533.403     1676.913   -24210.316   -1154.4072    321.63279    39.484597    35.596524    26.606362 
   59000    235.92734   -386.16837       229892   -22465.036    1677.2622   -24142.298   -965.64407    321.63469    39.488149    35.595388    26.618418 
   59200    233.52214   -209.64676       229892   -22522.937    1660.1631     -24183.1   -291.44786     321.8141    39.490416    35.596152    26.627913 
   59400    234.94471   -217.61601       229892   -22508.848    1670.2764   -24179.125   -273.94246    322.57458    39.490553    35.597832    26.624534 
   59600    229.34143   -298.09424       229892   -22568.193    1630.4414   -24198.634   -634.30316    324.72084    39.488944    35.601424    26.648927 
   59800    232.36647   -361.01886       229892   -22551.787    1651.9471   -24203.734   -891.31879    326.11585    39.488417      35.6026    26.644987 
   60000    240.08312   -296.63862       229892   -22535.325    1706.8066   -24242.131   -608.70314    327.80464    39.487078     35.60019    26.651891 
   60200    234.66346   -268.50327       229892   -22581.387    1668.2769   -24249.664   -557.03328    329.68602     39.48789    35.598171    26.669751 
   60400    231.29797   -230.22373       229892    -22511.35    1644.3509   -24155.701   -359.30259    329.96682     39.48794     35.59449    26.668964 
   60600    238.10073   -367.82779       229892   -22502.593    1692.7133   -24195.306    -904.2831    329.22961    39.487043    35.593964    26.677491 
   60800    240.94267   -412.32329       229892   -22415.948    1712.9173   -24128.865   -1072.6443    330.16362    39.486547    35.592256     26.66901 
   61000    234.12296   -376.63981       229892   -22532.467    1664.4344   -24196.902   -945.11918    331.72285    39.487926    35.591096    26.670949 
   61200    230.77147   -379.89995       229892   -22519.701    1640.6079   -24160.309   -942.28209     332.9659    39.488063    35.589039    26.663343 
   61400    239.39278   -475.51807       229892   -22531.116    1701.8988   -24233.014   -1352.6473    334.08632    39.489175    35.591437    26.673698 
   61600    235.61886   -297.07916       229892    -22541.83    1675.0691   -24216.899   -626.92079    335.24309    39.491754    35.594266     26.69673 
   61800    235.37317   -297.53047       229892   -22566.389    1673.3225   -24239.712   -621.10372    336.86943    39.492793    35.594181    26.696804 
   62000    235.00937   -347.82587       229892   -22504.309    1670.7362   -24175.046   -811.49316    337.78821    39.493457    35.592553    26.699883 
   62200    234.77081   -126.99965       229892   -22530.473    1669.0402   -24199.514    5.4882746    339.09736    39.493598    35.592587    26.701675 
   62400     234.4819   -378.42681       229892   -22536.728    1666.9862   -24203.715   -955.12634    341.02826    39.494442    35.594187    26.711186 
   62600     234.5828   -374.47818       229892   -22550.017    1667.7035    -24217.72   -986.24969    342.54979    39.496617    35.596712    26.700013 
   62800    235.30911   -352.54635       229892   -22589.902    1672.8671   -24262.769   -833.15257    342.25172    39.497096    35.597039    26.685894 
   63000     234.8786   -345.45888       229892   -22512.561    1669.8064   -24182.368   -869.63988    342.93905    39.494873    35.595213    26.673933 
   63200    234.15287   -373.16001       229892    -22543.31    1664.6471   -24207.958   -933.70972    343.45309    39.493437    35.594275    26.667137 
   63400    226.59982   -194.85245       229892   -22566.786    1610.9507   -24177.737   -233.61669    345.22676    39.492455    35.593207    26.676552 
   63600    229.23005   -303.95945       229892   -22579.668    1629.6496   -24209.318   -647.83486     345.2659    39.492592    35.592912    26.670172 
   63800    232.10068   -358.17104       229892   -22622.308    1650.0576   -24272.366   -884.46074    346.53105    39.491736    35.593685    26.682844 
   64000    241.21917   -375.72978       229892   -22546.838     1714.883   -24261.721   -881.66962    348.63525    39.492358     35.59407    26.664959 
   64200    235.83572   -410.95865       229892   -22542.838    1676.6108   -24219.449   -1088.3412    346.43063    39.492727     35.59607    26.694241 
   64400    237.23479   -100.00499       229892   -22583.174    1686.5571   -24269.731    156.15571    345.51785    39.494635    35.595023    26.717234 
   64600    230.26808   -267.95264       229892   -22595.135    1637.0292   -24232.165   -548.26107    346.45285    39.496101    35.593646    26.725683 
   64800    239.17343   -291.31792       229892   -22605.814    1700.3394   -24306.154   -609.63016    347.96435    39.494295    35.593206    26.714057 
   65000    242.28428   -376.25372       229892   -22514.194    1722.4552   -24236.649   -935.09214    348.96179    39.496162     35.59317    26.730563 
   65200    240.35891   -260.54686       229892    -22553.73    1708.7672   -24262.497   -466.25907    349.91417    39.494638    35.593306    26.737084 
   65400    224.38758   -475.18251       229892   -22550.135    1595.2234   -24145.358   -1380.7929     350.9011    39.493985    35.595872    26.736239 
   65600    239.31653   -487.37993       229892   -22495.113    1701.3567    -24196.47   -1382.7729    352.28894    39.495054    35.597165    26.735893 
   65800    230.45048   -368.29684       229892   -22535.096    1638.3259   -24173.422   -940.54595    353.07969    39.495904    35.597832    26.726542 
   66000    234.02516   -343.37116       229892   -22489.519    1663.7392   -24153.258   -839.30516    353.55231    39.496199    35.595654    26.714897 
   66200     234.2535   -463.25904       229892   -22582.531    1665.3625   -24247.893   -1254.5853    356.09343    39.494613    35.593652    26.705579 
   66400     235.7041   -492.71481       229892   -22557.283    1675.6751   -24232.958    -1360.731    358.32462    39.495036     35.59144    26.708206 
   66600    234.37946   -416.30479       229892   -22607.132     1666.258    -24273.39   -1108.2857    358.53569    39.495524     35.59035    26.691784 
   66800    232.48876    -164.7246       229892   -22595.061    1652.8165   -24247.878   -105.74824    358.61827    39.494884    35.591794    26.711689 
   67000    229.72097   -276.20519       229892    -22704.56    1633.1397     -24337.7   -548.22431    360.65939    39.494144    35.591649     26.73465 
   67200    228.09843   -298.45728       229892   -22612.791    1621.6047   -24234.396   -632.21421    360.57951     39.49356    35.592819    26.747402 
   67400    234.43302   -348.94699       229892   -22571.814    1666.6387   -24238.452   -850.66435    362.64945    39.493201    35.591873    26.747342 
   67600    236.71075   -440.69666       229892   -22514.896    1682.8316   -24197.728   -1177.1787    364.94393    39.493762    35.591272     26.75075 
   67800    236.35538   -319.77506       229892   -22514.386    1680.3052   -24194.692   -682.27427    365.18737    39.494021    35.593373    26.751771 
   68000    235.33862    -355.4744       229892   -22582.984    1673.0768   -24256.061   -868.98404    366.71364    39.494591    35.594055    26.768605 
   68200    227.00193   -281.35786       229892   -22565.282    1613.8094   -24179.091   -569.89871    367.62922    39.494813    35.595085    26.758756 
   68400    234.78795   -263.61205       229892   -22541.313     1669.162   -24210.475   -469.87162     367.1039    39.494654    35.596231    26.762279 
   68600    233.89147   -349.60554       229892   -22579.434    1662.7887   -24242.222   -822.45485    367.56157    39.494808    35.598834    26.750623 
   68800    235.17355   -406.91196       229892   -22527.512    1671.9033   -24199.415   -1048.5578    368.65498    39.495634    35.600478    26.747989 
   69000    237.80222   -382.39332       229892   -22531.256    1690.5911   -24221.847   -962.14438    371.53157    39.495337    35.601734    26.746148 
   69200    238.14091   -215.27102       229892   -22603.025     1692.999   -24296.024   -239.53727    371.33226     39.49609    35.603435    26.736261 
   69400    232.46197   -399.87113       229892   -22638.265    1652.6261   -24290.891   -992.86677    373.19302    39.495188    35.604004    26.736617 
   69600    243.44058   -474.08451       229892   -22525.111    1730.6755   -24255.786   -1299.1925    372.23452    39.494673    35.600784     26.73266 
   69800    233.76643   -454.92951       229892   -22564.339    1661.8998   -24226.239    -1233.932    371.88374    39.495035     35.60231    26.712735 
   70000     230.4438   -289.07059       229892   -22599.908    1638.2784   -24238.186   -548.36372    374.83645    39.494466    35.600542    26.685755 
   70200    237.68534   -410.05876       229892   -22485.238    1689.7602   -24174.998   -1057.7793    375.37947    39.496758    35.600742    26.672459 
   70400    240.19301   -238.18778       229892   -22508.751    1707.5878   -24216.338   -362.95705    376.24786    39.497136    35.602113    26.673584 
   70600    234.86213   -75.293241       229892   -22536.321    1669.6893    -24206.01     291.6891    377.73398    39.496927    35.600478    26.689772 
   70800    235.30129   -414.71982       229892   -22502.315    1672.8115   -24175.126    -1089.771    379.07932    39.496353    35.600815    26.696984 
   71000    237.01757   -521.34666       229892    -22569.61    1685.0129   -24254.623   -1508.4437    379.72176    39.496035    35.600797    26.699403 
   71200    229.49701   -262.00917       229892     -22581.1    1631.5475   -24212.647   -451.18641    381.43504    39.494534    35.601337    26.681557 
   71400    232.34521   -300.11198       229892   -22576.146     1651.796   -24227.942    -602.0375    381.94618    39.491074    35.602392    26.692384 
   71600    237.55361   -329.70993       229892    -22517.02    1688.8237   -24205.844   -746.71056    381.82494    39.490608    35.603411    26.685775 
   71800    233.35905   -322.79212       229892    -22628.13    1659.0036   -24287.133   -715.40147    382.48661    39.493163    35.598761    26.682609 
   72000    234.11978   -491.74308       229892   -22623.033    1664.4118   -24287.445   -1353.2356    383.06962    39.492583    35.597574    26.704009 
   72200     236.4641   -416.53277       229892   -22454.016    1681.0781   -24135.094    -1053.819     384.8747    39.492795    35.597998    26.713813 
   72400    236.44582   -151.56937       229892   -22540.468    1680.9482   -24221.416   -42.833838    386.02229    39.493983    35.597338      26.7119 
   72600    235.65095    -338.3029       229892   -22524.658    1675.2973   -24199.956   -738.81579    388.95758    39.495136    35.593191     26.74287 
   72800    238.45078   -407.22472       229892   -22536.376    1695.2019   -24231.578   -1021.2125     389.7828    39.495246    35.591956    26.740134 
   73000    228.87322    -487.7853       229892   -22570.237    1627.1128    -24197.35   -1325.1412    392.26777    39.494967    35.593472    26.718805 
   73200     237.3959   -453.46539       229892   -22526.217    1687.7025    -24213.92   -1234.8573    390.54317    39.495416    35.593427    26.698885 
   73400    235.89112   -442.21133       229892   -22501.225    1677.0047    -24178.23   -1179.5205    388.56317    39.492881    35.592218    26.681903 
   73600    231.92378    -389.3734       229892   -22567.557    1648.7999   -24216.357   -1022.2979    390.43637    39.492248    35.592701     26.66439 
   73800    230.18201   -284.29706       229892   -22653.855    1636.4173   -24290.273   -537.79348    391.54314    39.493402      35.5946    26.681857 
   74000    230.92736   -280.47932       229892   -22666.111    1641.7162   -24307.827   -517.40549    392.59112    39.492967     35.59517    26.698676 
   74200    234.89553   -477.47148       229892   -22564.901    1669.9268   -24234.828   -1322.5784    392.93723     39.49245    35.593227     26.69729 
   74400    230.14861   -333.06654       229892    -22576.43    1636.1798    -24212.61   -756.48823    393.32698    39.489321    35.591589    26.683483 
   74600    231.24783    -375.3854       229892   -22611.815    1643.9944   -24255.809   -942.58536    394.35318    39.489172    35.589686    26.680834 
   74800     238.1564   -365.87016       229892   -22628.427    1693.1091   -24321.536    -866.9782    395.77424    39.487955    35.589376    26.671601 
   75000    234.84892   -369.50932       229892   -22623.795    1669.5955   -24293.391   -901.80479     394.1483    39.485585    35.590328    26.693596 
   75200    237.74284   -294.94992       229892   -22553.456     1690.169   -24243.625   -592.13423     395.3005    39.484204     35.58854    26.701443 
   75400    232.75441   -221.60177       229892   -22649.062    1654.7051   -24303.767   -353.25205     397.4637     39.48313    35.585972    26.698874 
   75600    235.47802   -451.53548       229892   -22575.492    1674.0678   -24249.559   -1183.6785    398.20022    39.480993    35.584187    26.686808 
   75800    236.23168   -315.74393       229892   -22567.082    1679.4258   -24246.508   -643.61868     400.1623    39.481837    35.582798    26.698519 
   76000    238.48708   -397.78428       229892   -22538.987      1695.46   -24234.447   -997.49254    399.69041    39.481766    35.582817    26.679628 
   76200    232.15167   -288.50624       229892   -22614.169    1650.4201   -24264.589   -578.66453    398.69762    39.479931    35.580427    26.673296 
   76400      236.556   -369.36004       229892   -22599.714    1681.7315   -24281.446   -844.19518    399.87022    39.481071    35.576488    26.695229 
   76600    237.04462   -321.49941       229892    -22550.05    1685.2052   -24235.255   -717.43236    401.17415     39.48202    35.575849    26.665787 
   76800    239.28157   -528.34863       229892   -22574.285    1701.1082   -24275.393   -1482.6347    402.25923    39.478698    35.574304     26.65722 
   77000    233.37447   -322.03053       229892   -22561.598    1659.1132   -24220.711    -696.9688    402.15426    39.476822    35.573037    26.666296 
   77200    233.35115   -249.39551       229892   -22547.733    1658.9475    -24206.68     -435.527    402.41103    39.477776    35.571871    26.681659 
   77400    233.04312   -373.67296       229892   -22539.605    1656.7576   -24196.363   -912.76233    403.33257     39.47818    35.569289    26.695017 
   77600     236.3682     -290.317       229892   -22571.098    1680.3964   -24251.494   -605.06423    404.31308    39.478386    35.568738    26.701133 
   77800    239.07714   -218.94801       229892   -22592.574    1699.6549   -24292.228   -284.66374     402.8152    39.479165    35.570318      26.7052 
   78000    233.94753   -325.84505       229892   -22603.895    1663.1872   -24267.082   -710.27248    405.23949    39.476532    35.567376    26.705278 
   78200     236.4099   -372.97364       229892    -22606.19    1680.6928   -24286.883   -876.74437    406.27312    39.474877    35.563999    26.710696 
   78400    238.30663   -386.16844       229892   -22584.009    1694.1771   -24278.186   -932.19002    406.61232    39.474388    35.561217    26.727587 
   78600    229.62914   -348.55102       229892   -22606.416    1632.4868   -24238.903   -820.90665    406.52784    39.475718    35.562957    26.748715 
   78800     238.4374    -466.6548       229892   -22556.941    1695.1068   -24252.048   -1236.0415    405.49285    39.478272    35.562416    26.763811 
   79000    231.48085   -276.34159       229892   -22558.327     1645.651   -24203.978   -495.47961    406.64167    39.480154    35.562061    26.742326 
   79200    242.06311   -299.96991       229892   -22532.336    1720.8828   -24253.219   -635.68613    407.22387    39.481751    35.563133    26.742619 
   79400     236.3414    -401.7159       229892   -22523.623    1680.2058   -24203.829    -1016.347    408.46819    39.483144    35.563163    26.736713 
   79600    231.04263   -356.01444       229892   -22618.228    1642.5356   -24260.764   -863.84204    408.63234    39.487461    35.563053    26.739887 
   79800    237.03373   -344.69477       229892   -22579.045    1685.1278   -24264.173   -730.74511    408.04226    39.488375    35.563004    26.748866 
   80000    235.44375   -438.54049       229892   -22607.042    1673.8243   -24280.866   -1156.6481    409.89752    39.490271    35.564515    26.756114 
   80200    228.80656   -469.19107       229892    -22603.68    1626.6389   -24230.318   -1248.7366    411.68156    39.492483    35.562925    26.746581 
   80400    233.42846   -244.76303       229892   -22578.828    1659.4971   -24238.325   -418.98527    411.57397    39.494171    35.563408    26.739676 
   80600    229.06785   -279.40192       229892   -22575.104    1628.4965     -24203.6   -503.55481    411.14526    39.495155    35.562578     26.72919 
   80800    234.85375   -262.34803       229892    -22580.36    1669.6298    -24249.99   -435.26532    412.02562    39.493524    35.561211    26.759971 
   81000        228.8   -319.53636       229892    -22639.37    1626.5923   -24265.962    -708.2466    413.54707    39.490578    35.561637    26.788202 
   81200    235.92719    -425.8169       229892   -22576.535    1677.2611   -24253.796   -1100.0123    412.32855     39.49057    35.560405    26.804986 
   81400    238.84697   -366.94499       229892   -22512.116    1698.0185   -24210.134   -897.58854    413.46577    39.490966    35.561053    26.809028 
   81600    232.36673    -217.5661       229892    -22603.04     1651.949   -24254.989   -341.05694    413.17266    39.492166    35.561018    26.821791 
   81800    223.36154   -415.38238       229892   -22663.388     1587.929   -24251.317   -1074.7942    415.65926    39.492521    35.563255    26.824013 
   82000    234.83946   -459.48493       229892   -22599.581    1669.5282   -24269.109   -1256.3977    417.89814    39.491958    35.564231    26.819595 
   82200    241.88162   -354.08435       229892   -22543.328    1719.5926   -24262.921   -853.36309    418.35689     39.49193    35.563879    26.802518 
   82400    232.88547   -362.64596       229892   -22579.243    1655.6368    -24234.88   -885.21831    419.93531    39.490279    35.563163    26.833361 
   82600    239.95049   -448.49724       229892   -22517.276    1705.8637    -24223.14   -1197.7688    419.60559    39.488484    35.564257    26.845108 
   82800    230.45796   -279.83014       229892   -22606.184    1638.3791   -24244.563   -501.74685    419.56214    39.488451    35.564148    26.858499 
   83000    238.47937   -348.89066       229892    -22519.58    1695.4051   -24214.985   -802.75828    420.08576    39.486635    35.564001    26.846328 
   83200    239.90349   -529.20412       229892   -22570.727    1705.5296   -24276.257   -1494.2077    420.78924    39.485323    35.564396    26.841723 
   83400    235.03986   -242.29886       229892   -22579.541    1670.9529   -24250.494   -350.99608    421.25109    39.484178    35.565096    26.867384 
   83600    228.16434   -401.45459       229892   -22703.565    1622.0732   -24325.638   -995.05955    422.12385    39.481471    35.565913    26.870435 
   83800    232.61797   -430.76883       229892   -22658.914    1653.7351   -24312.649   -1095.3583    421.47724    39.478568    35.567647    26.861646 
   84000    237.72752    -426.4562       229892   -22655.194    1690.0601   -24345.254   -1174.0168    421.37295     39.47962    35.567668    26.839199 
   84200    235.10381   -229.20152       229892   -22639.749    1671.4075   -24311.157     -314.598    420.95171    39.480267     35.56782    26.837634 
   84400     228.9901   -351.58427       229892   -22689.317    1627.9438   -24317.261   -801.06931    420.02609      39.4794    35.565316    26.855102 
   84600    240.61665   -375.33634       229892   -22649.033    1710.5996   -24359.632   -910.29944    421.20282    39.479338    35.565918    26.869626 
   84800    236.27801   -412.40067       229892   -22671.956    1679.7552   -24351.711   -1023.6933    422.48024    39.480016    35.563429    26.859576 
   85000    237.80501   -335.53468       229892   -22627.632     1690.611   -24318.243   -766.70417    424.42558    39.482668    35.562719    26.852212 
   85200    233.47695   -363.22084       229892    -22621.72    1659.8418   -24281.562   -853.46375    426.35752    39.483101    35.563321    26.858121 
   85400    232.04188   -538.25053       229892   -22716.618    1649.6396   -24366.258   -1516.6245    427.96118    39.485003    35.566544    26.878644 
   85600    233.10851    -443.5002       229892   -22684.878    1657.2225     -24342.1   -1223.9789    428.81626    39.484709     35.56618    26.878377 
   85800    233.61078   -511.26351       229892   -22671.679    1660.7932   -24332.472   -1423.1021    429.49066    39.481957    35.565631    26.882762 
   86000    236.50938   -246.75695       229892   -22640.881    1681.4001   -24322.281   -401.03973    431.22295    39.480921    35.567024    26.887209 
   86200    238.26214   -411.91417       229892   -22592.207    1693.8608   -24286.068   -1025.2303    431.04704    39.479671    35.566131    26.886685 
   86400    230.92022   -367.06231       229892   -22658.347    1641.6654   -24300.013     -898.192    431.53069     39.48074    35.566976    26.882012 
   86600      233.782   -316.31577       229892   -22587.129    1662.0104    -24249.14   -676.95774    433.92442    39.480581    35.565797    26.883563 
   86800    231.07599   -222.79197       229892   -22599.764    1642.7728   -24242.537   -309.33652    436.08728    39.479395    35.563636    26.892422 
   87000    234.92273   -199.17789       229892   -22574.383    1670.1202   -24244.504   -221.76405    438.86574    39.477224    35.563476    26.885374 
   87200    235.66556   -391.67131       229892    -22557.61    1675.4011   -24233.011   -961.91389    438.51152    39.475948    35.563905     26.88405 
   87400    229.34327   -483.35097       229892   -22640.071    1630.4545   -24270.526   -1296.0157    440.88573    39.477076     35.56592    26.883997 
   87600    233.79222   -461.42147       229892   -22546.739    1662.0831   -24208.822   -1231.9726    440.65967     39.47997    35.564683    26.884685 
   87800    229.76106   -400.02205       229892   -22590.148    1633.4246   -24223.573   -972.42658    440.24193    39.479752    35.564344    26.887482 
   88000    232.00336   -236.41094       229892   -22552.757    1649.3657   -24202.123   -338.26059     441.0639    39.479006    35.563676    26.871811 
   88200    232.86547   -209.38633       229892   -22562.204    1655.4947   -24217.699   -285.91003    440.58122    39.479938    35.564361    26.858866 
   88400    235.19409      -301.38       229892   -22519.004    1672.0493   -24191.053   -584.20246    440.08734    39.480192    35.564546    26.843987 
   88600    239.11596   -175.56826       229892   -22563.441    1699.9308   -24263.372   -106.41421    439.90998    39.480958    35.566054    26.862815 
   88800    233.62589   -215.57803       229892   -22646.038    1660.9006   -24306.939    -330.2851    442.19785    39.481773    35.566713    26.868934 
   89000     233.1863   -467.99913       229892    -22597.59    1657.7755   -24255.365   -1256.2508    443.77931     39.48207    35.565822    26.860752 
   89200    239.53487   -199.63564       229892   -22607.823     1702.909   -24310.732   -225.40314    442.22571    39.482622    35.565245    26.849184 
   89400    241.01927   -310.45565       229892   -22570.291    1713.4619   -24283.753   -618.31627    441.80579    39.485357    35.563477     26.84355 
   89600    226.60772   -353.29423       229892   -22726.046    1611.0068   -24337.053   -817.99703    442.00047    39.486537     35.56193     26.81275 
   89800     234.6077   -458.23425       229892   -22611.533    1667.8806   -24279.414   -1232.4463    443.96607    39.486329     35.56168     26.81603 
   90000    238.08445   -457.29741       229892    -22654.93    1692.5976   -24347.528   -1175.4967    443.25585    39.485515    35.564158    26.812522 
   90200    231.06948   -350.49489       229892   -22682.162    1642.7265   -24324.889   -770.57106    443.60031    39.486101    35.565985    26.818615 
   90400     235.7516   -477.70607       229892   -22622.027    1676.0128    -24298.04   -1287.3444    443.81729    39.485452    35.564936    26.799904 
   90600    238.24282   -361.98524       229892   -22601.772    1693.7235   -24295.495   -859.96536    443.85222    39.484653    35.564736    26.781246 
   90800    236.49851    -382.6531       229892   -22626.245    1681.3228   -24307.568   -932.53676     444.4512    39.483291    35.563717     26.76949 
   91000    235.13491   -457.47158       229892   -22653.861    1671.6286    -24325.49   -1239.1988    447.36824    39.483259    35.561851    26.758962 
   91200     231.7364    -617.1028       229892   -22695.686    1647.4678   -24343.154   -1829.6115    449.20782    39.483236    35.561073    26.758728 
   91400    232.63216   -434.27424       229892   -22602.872     1653.836   -24256.708   -1164.8789    449.41951    39.482556    35.561103    26.755931 
   91600     234.5407   -314.75978       229892   -22492.666    1667.4043    -24160.07   -677.57226    447.29255    39.482911    35.560581    26.744493 
   91800    234.22596   -177.70658       229892   -22504.932    1665.1667   -24170.099   -116.13608    449.19692    39.482741    35.561935    26.749279 
   92000    234.34712   -267.90861       229892   -22474.649    1666.0281   -24140.677   -485.24849    450.31456    39.481708    35.560443    26.771572 
   92200    234.55438   -341.27379       229892   -22492.902    1667.5015   -24160.404    -793.4409    452.05682    39.480051    35.561448    26.770505 
   92400    242.39871    -399.8237       229892   -22487.094    1723.2687   -24210.363   -982.63349    452.28117    39.481868    35.561245     26.77145 
   92600    241.18528   -370.35706       229892    -22447.24    1714.6421   -24161.882   -873.36101      454.395    39.480274    35.560926    26.773843 
   92800    234.06431   -273.92611       229892   -22552.785    1664.0175   -24216.802   -503.48816    454.27231     39.47746    35.561586    26.783337 
   93000    231.58696   -238.32042       229892   -22578.313    1646.4054   -24224.719   -381.23905     455.9457    39.475529    35.562811    26.794981 
   93200    236.14351   -330.28925       229892   -22533.194     1678.799   -24211.993   -733.97526     456.8195    39.471714    35.564982    26.788173 
   93400    228.18587   -266.62245       229892   -22630.403    1622.2263   -24252.629   -490.78528    456.40233     39.47128    35.567202    26.803989 
   93600    235.51995   -374.47273       229892    -22592.65     1674.366   -24267.016   -862.90299    457.87756    39.474576    35.569987    26.787414 
   93800    231.29053   -379.75039       229892    -22642.04     1644.298   -24286.338   -943.10371    458.45077    39.477196    35.569222    26.809422 
   94000    233.56514   -405.56837       229892   -22616.543    1660.4688   -24277.012   -1011.4528    461.18471    39.476015    35.566757    26.815658 
   94200    236.45864   -271.31081       229892   -22540.189    1681.0393   -24221.228   -500.89584    460.93612    39.476573    35.565327    26.819787 
   94400    237.14143   -378.72071       229892   -22585.034    1685.8934   -24270.928   -908.29187     462.1639    39.476751    35.565578    26.824756 
   94600    237.65211   -158.05599       229892   -22590.232     1689.524   -24279.756   -15.284626    464.14151    39.476322    35.567054    26.823149 
   94800    230.15863   -243.74551       229892   -22559.086    1636.2511   -24195.337   -376.77656    464.27207    39.476864    35.570546    26.816518 
   95000    233.30661   -447.47575       229892   -22630.251    1658.6308   -24288.882   -1186.2306    466.20186    39.477262    35.574321    26.819407 
   95200    232.35945   -251.27844       229892   -22609.926    1651.8973   -24261.823   -402.08013    468.08259    39.476949    35.577418    26.841823 
   95400    233.48584   -323.53905       229892   -22547.848     1659.905   -24207.753   -690.73355    468.62924    39.475685    35.578477    26.843101 
   95600     236.6898   -270.57881       229892   -22570.334    1682.6827   -24253.016   -459.76732    469.13049    39.477387    35.578446     26.83748 
   95800    234.69702   -422.64576       229892   -22614.552    1668.5155   -24283.067   -1115.5402    469.45117    39.478307    35.577925    26.839046 
   96000    240.16727   -408.76856       229892   -22591.109    1707.4048   -24298.514   -996.70506    469.98937    39.478297    35.578055    26.835688 
   96200     241.2437   -258.82909       229892   -22526.766    1715.0574   -24241.824    -393.7298    470.31802    39.478826    35.576503    26.815284 
   96400    235.66466   -304.31851       229892    -22614.04    1675.3947   -24289.435    -619.7396    474.69525    39.479858     35.57588    26.805838 
   96600    236.49666   -455.95562       229892    -22614.78    1681.3096   -24296.089   -1197.9146     475.4834    39.480026    35.576576     26.78748 
   96800     235.5146    -407.7312       229892   -22574.048    1674.3279   -24248.376   -1052.6878    476.54119    39.481907     35.57498    26.770878 
   97000    236.59309   -396.19804       229892   -22598.087    1681.9951   -24280.082   -998.38987    477.51681     39.48275    35.575564    26.769288 
   97200    233.24453    -427.9539       229892    -22607.05    1658.1895    -24265.24   -1112.1661    477.32811    39.483443    35.576164    26.782582 
   97400    239.40313   -483.29883       229892   -22566.388    1701.9724   -24268.361   -1338.2466    477.04139    39.481001    35.580755    26.780634 
   97600    234.28421   -349.96042       229892   -22515.339    1665.5808    -24180.92   -815.87693    476.07566    39.478711     35.58297     26.79368 
   97800    243.54484   -365.99147       229892   -22548.458    1731.4168   -24279.875   -872.15024    478.06614    39.476897    35.582701    26.786592 
   98000    235.26255   -355.26404       229892   -22612.041     1672.536   -24284.577   -819.26998    477.24144     39.47554     35.58098    26.775001 
   98200    234.84172   -348.56745       229892   -22640.725    1669.5443   -24310.269   -836.02376    477.91925    39.475338    35.580251    26.785458 
   98400    236.17821   -413.15524       229892   -22594.617    1679.0457   -24273.662   -1077.9769     480.9605    39.476757    35.579344    26.774881 
   98600    235.81211   -376.26252       229892   -22610.588     1676.443   -24287.031   -888.92449    481.59834    39.479781    35.578831    26.778106 
   98800    234.31578   -351.37194       229892   -22588.211    1665.8053   -24254.017   -885.45815    482.70129    39.479724    35.577933    26.785485 
   99000    232.94126     -339.419       229892   -22633.445    1656.0335   -24289.479   -751.67054    482.95298    39.479571    35.578919    26.802799 
   99200    228.89486   -408.55405       229892   -22579.475    1627.2667   -24206.742   -1085.9361    481.86562    39.480781    35.578153    26.792997 
   99400    237.26729   -302.79441       229892   -22546.794    1686.7882   -24233.582   -574.62508    479.62166    39.481936    35.577381    26.774831 
   99600    244.01482     -401.568       229892   -22539.708     1734.758   -24274.466   -982.44202    480.53624    39.480867    35.575434      26.7654 
   99800    228.63079   -484.95984       229892   -22565.732    1625.3893   -24191.121    -1312.339    481.46369    39.480126    35.572681    26.757545 
  100000    234.81335    -446.5304       229892   -22581.732    1669.3426   -24251.075    -1208.352    484.56411    39.480399    35.571848    26.729658 
  100200    232.97142   -334.84015       229892   -22622.127    1656.2478   -24278.375   -759.71589    484.66359    39.481354    35.571245     26.72741 
  100400    233.32611   -392.16418       229892   -22562.517    1658.7694   -24221.287   -1013.3683    484.22336    39.480917     35.56984    26.733543 
  100600    238.18387   -342.74258       229892   -22619.021    1693.3044   -24312.325   -751.22758    485.51035    39.481779    35.569718    26.739269 
  100800    233.98424    -338.1765       229892   -22625.738    1663.4482   -24289.187    -765.9063    485.30439    39.482471     35.57043    26.744494 
[...]
 3976000    231.74846   -397.94312       229892   -24680.086    1647.5536    -26327.64   -1035.0614    4418.6768    39.460501    35.279728    26.241719 
 3976200    227.68239   -403.64907       229892   -24678.305     1618.647   -26296.952   -1082.0142    4417.7206     39.46186      35.2806    26.230541 
 3976400    219.37563   -402.32227       229892   -24713.162    1559.5923   -26272.754   -1090.8506    4417.1658    39.463688    35.281683    26.235641 
 3976600    221.24694   -417.28737       229892   -24698.942    1572.8958   -26271.838   -1143.1859    4417.4672    39.464999    35.282707    26.235766 
 3976800    224.34198   -416.65834       229892   -24623.056    1594.8992   -26217.955   -1133.0042    4419.1413    39.465634    35.283098    26.226933 
 3977000    220.02012   -380.43844       229892   -24739.902    1564.1741   -26304.076   -998.92938    4419.9252    39.467171    35.284399    26.226648 
 3977200    226.71238   -356.29613       229892    -24637.31    1611.7509   -26249.061   -871.04465    4417.7973    39.467131    35.285962    26.228049 
 3977400    225.89467   -427.34767       229892   -24657.231    1605.9376   -26263.169   -1165.3185    4416.9134    39.466229    35.286777    26.225783 
 3977600      227.021   -383.26219       229892   -24683.359    1613.9449   -26297.304   -964.54601    4418.1574    39.466777     35.28842    26.222009 
 3977800    219.47847   -397.71214       229892   -24646.173    1560.3233   -26206.496   -1059.3067    4418.1828    39.467076    35.288571    26.238569 
 3978000    221.13109   -280.15577       229892   -24693.524    1572.0722   -26265.597   -572.56513    4417.4514    39.469018    35.290169    26.244044 
 3978200    224.51005   -418.73022       229892   -24625.324     1596.094   -26221.418   -1134.7941    4417.3779    39.470339    35.290096    26.257775 
 3978400    225.10491   -358.23493       229892   -24691.431     1600.323   -26291.754   -922.23999    4418.2597    39.471835    35.290589    26.256475 
 3978600     222.7213   -448.08012       229892   -24665.257    1583.3774   -26248.634   -1232.3075     4418.533    39.472681     35.29247    26.252594 
 3978800     226.0647   -385.79213       229892   -24624.217    1607.1464   -26231.364   -1036.5258    4418.5427    39.473188    35.294093    26.245568 
 3979000    226.41278    -423.7946       229892   -24653.805     1609.621   -26263.426   -1162.5855    4418.5068    39.473613     35.29626    26.248293 
 3979200    222.59375    -383.4449       229892   -24683.409    1582.4706    -26265.88   -999.77293    4417.9292    39.474335    35.297577    26.252282 
 3979400    222.87439   -388.23648       229892   -24649.211    1584.4657   -26233.677   -991.18091    4417.5546      39.4742     35.29743      26.2552 
 3979600    225.21063   -259.22183       229892   -24651.857    1601.0746   -26252.931   -526.93827    4418.4056    39.473978    35.297986    26.251922 
 3979800    222.49766    -432.7732       229892    -24640.42    1581.7875   -26222.208   -1161.5617    4418.7699    39.473254    35.298078    26.261117 
 3980000    219.18634   -505.48281       229892   -24652.119    1558.2466   -26210.366   -1521.4566    4418.2819    39.474389    35.298394    26.260333 
 3980200    227.27117   -351.35193       229892   -24642.384    1615.7235   -26258.108   -874.27804    4418.3085    39.475779    35.298958    26.264838 
 3980400     219.4274   -303.88414       229892   -24637.696    1559.9603   -26197.657   -698.51788    4418.4161    39.476861    35.298199        26.27 
 3980600    228.96805   -374.96956       229892   -24592.877     1627.787   -26220.664   -935.69545    4419.8726    39.476963    35.298481    26.277294 
 3980800    229.51698   -411.13699       229892   -24603.026    1631.6894   -26234.715    -1078.193    4417.4368    39.477317    35.299358    26.272329 
 3981000    227.09542   -412.61922       229892   -24637.622     1614.474   -26252.096     -1098.01    4417.1863    39.477914    35.299878    26.272015 
 3981200    226.58457   -414.82805       229892   -24619.117    1610.8422   -26229.959   -1115.8909    4419.5011     39.47761    35.299626    26.272157 
 3981400    226.92548    -414.7805       229892       -24604    1613.2659   -26217.266   -1086.1107    4419.8403    39.476464    35.298936    26.275524 
 3981600    221.30885   -519.56115       229892    -24661.66     1573.336   -26234.996   -1543.0603    4419.7677     39.47783    35.297749    26.266019 
 3981800     225.2012   -398.35528       229892   -24641.564    1601.0076   -26242.572   -1053.1786    4418.4487    39.479616    35.297746    26.268455 
 3982000    222.80085   -365.06849       229892   -24683.298    1583.9429   -26267.241   -909.26619    4418.3466    39.480083    35.298932    26.274083 
 3982200     226.7123   -452.24535       229892   -24695.462    1611.7503   -26307.213   -1254.1061       4418.9    39.480459     35.30108    26.262693 
 3982400    222.87114   -380.45613       229892   -24635.558    1584.4426   -26220.001   -1022.8116    4419.5093    39.481242     35.30197    26.267343 
 3982600    223.93795   -394.78188       229892   -24666.381    1592.0268   -26258.408   -1004.5767    4417.6725    39.481238    35.300651    26.262731 
 3982800    230.94614   -427.30335       229892   -24605.952    1641.8497   -26247.802   -1195.3259    4418.5281     39.48153    35.301385    26.279836 
 3983000     229.3068    -471.1471       229892   -24568.671    1630.1952   -26198.866   -1310.0553     4419.443    39.482616    35.301724    26.269609 
 3983200    220.01127   -321.16509       229892    -24603.19    1564.1112   -26167.301   -777.80716    4417.5824    39.484094     35.30145    26.265403 
 3983400    226.85925   -406.93163       229892   -24560.378     1612.795   -26173.173   -1121.0515    4418.6875    39.486086    35.301795    26.257439 
 3983600     225.2301   -478.58319       229892   -24626.645     1601.213   -26227.858   -1345.3643    4418.8647    39.486644    35.301147     26.25489 
 3983800    228.74078   -443.57902       229892   -24607.076    1626.1713   -26233.247   -1210.4204    4418.2949    39.486868    35.301628      26.2628 
 3984000    221.46717   -353.17316       229892   -24634.212    1574.4615   -26208.673   -908.73018    4418.7119    39.486848    35.303177    26.269569 
 3984200    225.15271   -476.41776       229892   -24621.331    1600.6628   -26221.994   -1359.0566    4418.0267    39.487687    35.303955    26.270184 
 3984400    225.23761   -443.18911       229892   -24638.921    1601.2664   -26240.187   -1258.5651    4417.9821    39.488893    35.304169    26.267811 
 3984600    224.25721   -442.24952       229892   -24629.521    1594.2965   -26223.817   -1210.3088    4418.3739    39.489612    35.304575    26.262863 
 3984800    227.87243   -232.23951       229892   -24613.797    1619.9979   -26233.794   -391.17247     4416.934    39.487996     35.30406    26.268126 
 3985000    228.73826   -446.09657       229892   -24642.329    1626.1534   -26268.482   -1214.4464    4419.3295    39.487643    35.304842    26.259452 
 3985200    225.93623   -490.94254       229892   -24605.481     1606.233   -26211.714   -1443.7097    4419.5222    39.485963    35.304341    26.255122 
 3985400    226.98456   -330.31125       229892   -24629.654    1613.6859    -26243.34   -762.57387    4416.9412    39.484615    35.305201    26.260626 
 3985600    229.19528   -283.86252       229892    -24599.83    1629.4024   -26229.232   -608.89448    4418.1463     39.48511    35.304909    26.268659 
 3985800    222.92801   -413.91623       229892   -24629.796    1584.8469   -26214.643   -1147.0324    4418.2633    39.485324    35.305357    26.290482 
 3986000    234.21906   -472.94455       229892   -24515.185    1665.1176   -26180.302    -1345.624      4418.43    39.485179    35.305124    26.293442 
 3986200    234.65117   -317.42445       229892    -24548.39    1668.1896   -26216.579   -719.79926    4418.0317    39.485039    35.304458    26.310977 
 3986400    223.69955   -299.54546       229892    -24672.78     1590.332   -26263.112   -668.37734    4417.1876    39.484569    35.304957    26.307736 
 3986600    222.33645   -336.13406       229892   -24653.437    1580.6414   -26234.079   -823.29379    4416.9759    39.482879    35.304943    26.309532 
 3986800    231.12662   -390.05243       229892   -24642.835    1643.1328   -26285.968   -1009.1762    4417.4409    39.483515    35.304716    26.298069 
 3987000    226.17172    -457.4262       229892    -24608.69    1607.9072   -26216.598   -1294.6888     4416.998     39.48378    35.304377    26.289402 
 3987200    217.60573   -313.01147       229892   -24715.973    1547.0096   -26262.983   -727.50251    4417.3948    39.484446    35.304777    26.296211 
 3987400    223.40939   -426.01718       229892   -24642.615    1588.2692   -26230.884   -1156.0104    4417.4633    39.482492    35.304814    26.302456 
 3987600    225.21834   -404.31653       229892   -24588.862    1601.1294   -26189.992   -1093.3769    4418.2489    39.483165    35.304808     26.30805 
 3987800    222.75121    -323.1857       229892   -24633.315      1583.59   -26216.905   -780.63342    4417.0022    39.482739    35.305341    26.295772 
 3988000    225.58248   -352.52318       229892   -24597.139    1603.7182   -26200.858   -856.49453     4417.915    39.481951     35.30675    26.276965 
 3988200     228.1484   -400.07883       229892   -24604.818    1621.9599   -26226.778   -1045.7456    4417.7955    39.483576    35.307173    26.289781 
 3988400    221.82657   -300.70317       229892   -24610.977    1577.0165   -26187.994   -655.65536    4418.2564    39.482793    35.308917    26.282638 
 3988600     222.5496   -255.33956       229892   -24660.708    1582.1567   -26242.865   -496.46863    4417.6426    39.482085    35.308229    26.294815 
 3988800     225.3199   -385.07722       229892   -24649.545    1601.8514   -26251.397   -997.70836    4417.7828    39.480816    35.308006    26.296936 
 3989000     226.9984   -377.82407       229892   -24575.196    1613.7843   -26188.981   -967.20844    4417.4505    39.479532    35.308907    26.297421 
 3989200    223.06749    -360.8787       229892   -24635.554    1585.8385   -26221.392   -920.19869    4419.5356    39.479629    35.309817    26.303423 
 3989400    229.57236   -385.68826       229892   -24655.387    1632.0832    -26287.47   -1032.5938    4418.0425    39.478565     35.31112     26.29839 
 3989600    231.13205   -171.27935       229892    -24566.26    1643.1713   -26209.431   -127.34133    4417.6366    39.477187     35.31297    26.294959 
 3989800    229.41379   -432.48451       229892   -24611.223    1630.9558   -26242.179    -1220.725    4418.9255    39.477498    35.313614    26.291105 
 3990000    217.72794   -592.32085       229892   -24637.094    1547.8784   -26184.972   -1804.6231     4418.855    39.477771    35.314171    26.284987 
 3990200    219.65977   -508.28845       229892   -24678.425    1561.6123   -26240.037   -1469.8069    4419.9176    39.476798    35.315683    26.288539 
 3990400    224.62002   -193.36694       229892   -24624.847    1596.8758   -26221.723    -301.0907    4418.9431    39.475676    35.316047    26.296581 
 3990600     228.7189   -293.57419       229892   -24663.629    1626.0157   -26289.645   -611.10463    4419.8116    39.475518    35.315982    26.293692 
 3990800    227.39734   -541.92933       229892   -24607.643    1616.6204   -26224.264   -1621.7441    4419.5306    39.473645    35.316936    26.295667 
 3991000    227.40922   -495.68582       229892   -24622.788    1616.7049   -26239.493   -1464.1344    4419.7912    39.472055    35.317412    26.311184 
 3991200    228.36397   -300.79168       229892   -24581.007    1623.4924   -26204.499   -676.64939    4419.1848    39.469803    35.318153    26.313803 
 3991400    232.50566   -309.45649       229892   -24566.328    1652.9367   -26219.264   -695.11805    4418.6057    39.467907    35.317885    26.302575 
 3991600    226.97538   -505.21347       229892   -24613.074    1613.6206   -26226.694   -1474.9942    4421.0532    39.465924    35.318005    26.320178 
 3991800    224.49747   -512.13585       229892   -24670.472    1596.0046   -26266.477   -1488.9102    4419.7175    39.464206    35.318141    26.313738 
 3992000    228.89962   -304.44978       229892   -24611.334    1627.3005   -26238.634   -687.09931    4418.7715    39.463171    35.317703    26.311454 
 3992200     221.1442   -466.84795       229892   -24609.353    1572.1654   -26181.519   -1360.9894    4419.8647    39.462289    35.318566    26.328057 
 3992400    223.80808   -516.91734       229892   -24619.079    1591.1036   -26210.183   -1526.1255    4419.8053    39.462469    35.318887    26.326045 
 3992600    227.44716   -392.56838       229892   -24620.307    1616.9746   -26237.282   -1032.2245    4417.0674    39.463022    35.319946     26.33331 
 3992800    226.97907   -434.04991       229892   -24608.796    1613.6468   -26222.442   -1171.6737     4418.456    39.464063    35.319119    26.318907 
 3993000    218.02727   -427.74008       229892   -24717.739    1550.0064   -26267.745   -1160.8506    4419.4083    39.464353    35.318087    26.308482 
 3993200    226.18756   -464.84168       229892   -24604.414    1608.0198   -26212.434   -1299.6564    4419.0957    39.464383    35.315827    26.307926 
 3993400    228.49408    -388.6941       229892   -24595.466    1624.4174   -26219.884   -1044.7628    4419.1989    39.464087    35.315622     26.30601 
 3993600     223.0778   -313.87636       229892   -24622.129    1585.9118   -26208.041   -752.66302    4419.4056    39.464069    35.315586    26.309803 
 3993800    220.88344   -389.38739       229892   -24618.561    1570.3116   -26188.873    -1017.359    4418.4332    39.464175     35.31527    26.317113 
 3994000    224.53261    -440.4199       229892   -24633.617    1596.2544   -26229.871   -1240.5384    4418.1038    39.464033     35.31472    26.317978 
 3994200    222.83334   -380.20124       229892   -24671.402    1584.1739   -26255.576   -989.35316    4418.9144    39.464619    35.314493    26.312932 
 3994400    226.19238   -326.06981       229892   -24616.806    1608.0541    -26224.86   -782.37224     4417.082    39.464628    35.313217    26.308453 
 3994600    223.71482   -373.83313       229892    -24676.33    1590.4406   -26266.771   -914.68386    4418.7413    39.463529    35.313541    26.314761 
 3994800    223.49632   -508.61547       229892   -24621.307    1588.8872   -26210.195   -1529.1503    4419.0168    39.462997    35.313343    26.327716 
 3995000    228.51138   -332.49185       229892   -24587.876    1624.5404   -26212.417   -767.48213    4419.5891    39.462526    35.314327    26.320999 
 3995200     219.5093   -477.77069       229892   -24680.356    1560.5425   -26240.898    -1402.342    4417.9307    39.461748      35.3138    26.319167 
 3995400    220.99534   -435.21767       229892   -24600.973    1571.1071    -26172.08     -1182.02      4419.71    39.460846    35.314919    26.321102 
 3995600     227.0707   -478.52674       229892   -24559.384    1614.2983   -26173.683   -1372.2582    4419.6389    39.460067    35.315517    26.316517 
 3995800    231.16695   -305.66653       229892   -24581.936    1643.4195   -26225.356   -689.03839    4419.7674    39.459253    35.314954    26.304902 
 3996000    234.20469   -351.18355       229892   -24505.037    1665.0155   -26170.053   -867.66805    4418.3712    39.458795    35.317694    26.304157 
 3996200    228.63857   -332.83996       229892   -24564.142    1625.4446   -26189.587   -779.98872    4417.3094    39.458313    35.318877    26.300248 
 3996400    221.85281   -538.02686       229892   -24645.293    1577.2031   -26222.496   -1629.2731    4420.1756    39.457728    35.319144    26.316607 
 3996600    222.88473   -407.99048       229892   -24614.681    1584.5393    -26199.22   -1105.0381    4418.3113    39.458249    35.320449    26.316501 
 3996800    225.75045   -306.83339       229892   -24667.098    1604.9123    -26272.01   -679.14195    4416.4042    39.459753    35.319923    26.319087 
 3997000    232.51562   -324.64509       229892   -24539.747    1653.0075   -26192.754   -751.28764    4418.0213    39.459929    35.320289    26.317579 
 3997200    223.54537   -468.18897       229892   -24603.836    1589.2359   -26193.072   -1336.7784    4418.9437    39.460618    35.319886    26.317981 
 3997400    222.03239   -351.03276       229892   -24663.949    1578.4798   -26242.428   -866.26935    4416.7606     39.46046    35.319612    26.313735 
 3997600    227.96901   -224.71376       229892   -24626.617    1620.6846   -26247.301   -352.14775    4416.8131    39.460515    35.320361    26.316342 
 3997800    217.24465   -267.97585       229892   -24728.318    1544.4426   -26272.761   -563.13699    4418.1251    39.461635     35.32059    26.311042 
 3998000    222.95012   -367.35648       229892   -24645.993    1585.0041   -26230.997   -957.93173     4417.399    39.462344    35.320708    26.310727 
 3998200     220.6227   -418.63714       229892   -24649.806     1568.458   -26218.264   -1105.8023    4418.4179    39.462314    35.320076    26.304254 
 3998400    228.63438   -365.92316       229892   -24546.281    1625.4148   -26171.696   -938.10234    4418.5257    39.463104    35.318374    26.306314 
 3998600    222.71217   -469.83769       229892   -24656.168    1583.3125   -26239.481   -1322.9453    4419.8217    39.463456    35.316844    26.307679 
 3998800    222.10735   -351.60374       229892   -24623.594    1579.0127   -26202.607   -846.46758    4418.7953    39.462805    35.317292     26.32329 
 3999000    228.26193   -477.86647       229892   -24576.207     1622.767   -26198.974   -1380.4883    4419.0586    39.463911    35.318067    26.340492 
 3999200     222.0047   -469.42944       229892   -24654.832    1578.2829   -26233.115   -1327.4981    4419.1363     39.46439    35.318618    26.338642 
 3999400     223.0245   -391.82039       229892   -24685.198    1585.5329    -26270.73   -1004.0002    4418.6062     39.46415     35.31772    26.338814 
 3999600    225.64849   -394.23576       229892   -24663.363    1604.1875    -26267.55   -1014.9795    4418.7704    39.464847    35.317294    26.343503 
 3999800    226.57731   -345.92452       229892   -24586.813    1610.7907   -26197.604   -843.65511    4417.6531    39.465627    35.316514    26.351974 
 4000000    234.13834   -288.33294       229892   -24565.772    1664.5438   -26230.316   -665.13748    4418.4643    39.467746    35.317488    26.328117 
Loop time of 7059.3 on 64 procs for 4000000 steps with 9010 atoms

Performance: 489.567 ns/day, 0.049 hours/ns, 566.628 timesteps/s
99.2% CPU use with 64 MPI tasks x no OpenMP threads

MPI task timing breakdown:
Section |  min time  |  avg time  |  max time  |%varavg| %total
---------------------------------------------------------------
Pair    | 0.51173    | 1801.2     | 5162.7     |4591.4 | 25.52
Neigh   | 1.1307     | 215.92     | 756.33     |1805.3 |  3.06
Comm    | 411.01     | 2814.7     | 5348.2     |3049.3 | 39.87
Output  | 195.85     | 196.15     | 196.58     |   1.2 |  2.78
Modify  | 189.29     | 1910.1     | 6287.5     |4804.1 | 27.06
Other   |            | 121.2      |            |       |  1.72

Nlocal:        140.781 ave         426 max           0 min
Histogram: 24 0 24 0 0 0 0 0 0 16
Nghost:        811.906 ave        1164 max          60 min
Histogram: 8 0 0 8 0 0 2 22 0 24
Neighs:         0.00000 ave           0 max           0 min
Histogram: 64 0 0 0 0 0 0 0 0 0
FullNghs:      13892.7 ave       52081 max           0 min
Histogram: 38 10 0 0 0 0 0 0 3 13

Total # of neighbors = 889134
Ave neighs/atom = 98.683019
Neighbor list builds = 427422
Dangerous builds = 0
write_data 		${DIR}/data.${NAME}_run
write_data 		run_7/data.${NAME}_run
write_data 		run_7/data.ibeam_cooling_7_run
System init for write_data ...
Total wall time: 1:57:57
