
### Dimensions ###


### IMPORT ATOMS ###
read_data ../Box_Setup/data.Ibeam_240K
  orthogonal box = (0 0 0) to (68.908 85.8483 27.9754)
  4 by 8 by 2 MPI processor grid
  reading atoms ...
  8493 atoms
  reading velocities ...
  8493 velocities
group water type 2
1689 atoms in group water
group graphite type 1
6804 atoms in group graphite


# Define potential
#
pair_style          sw
pair_coeff * * MLC_e.sw C mW

# Add velocity/set timestep
#

fix		1 graphite setforce 0.0 0.0 0.0
velocity 	graphite set 0.0 0.0 0.0
velocity            water create ${START_TEMP} ${SEED} rot yes dist gaussian
velocity            water create 240 ${SEED} rot yes dist gaussian
velocity            water create 240 18954 rot yes dist gaussian
timestep            5.0

# Define output
#
compute 1 water msd
compute 2 water temp


thermo	            100
thermo_style custom step c_2 press vol etotal ke pe c_1[4] density

# Neighbor lists
#
neigh_modify        delay 0 every 1 check yes


# Set fixes
#
fix                 2 water momentum 10 linear 1 1 1 rescale
fix                 3 all nve
fix                 4 water temp/csvr ${START_TEMP} ${START_TEMP} 500.0 928347
fix                 4 water temp/csvr 240 ${START_TEMP} 500.0 928347
fix                 4 water temp/csvr 240 240 500.0 928347

# Run 0.05 ns equilibration
#
dump                1 all custom 100 ${DIR}/eq.${NAME}.dump id type x y z vx vy vz
dump                1 all custom 100 run_14/eq.${NAME}.dump id type x y z vx vy vz
dump                1 all custom 100 run_14/eq.ibeam_cooling_14.dump id type x y z vx vy vz
run                 10000
Neighbor list info ...
  update every 1 steps, delay 0 steps, check yes
  max neighbors/atom: 2000, page size: 100000
  master list distance cutoff = 6.67472
  ghost atom cutoff = 6.67472
  binsize = 3.33736, bins = 21 26 9
  1 neighbor lists, perpetual/occasional/extra = 1 0 0
  (1) pair sw, perpetual
      attributes: full, newton on
      pair build: full/bin/atomonly
      stencil: full/bin/3d
      bin: standard
Per MPI rank memory allocation (min/avg/max) = 3.384 | 4.425 | 4.753 Mbytes
Step c_2 Press Volume TotEng KinEng PotEng c_1[4] Density 
       0          240   -298.97748    165492.15   -16025.669    1207.5858   -17233.255            0    1.1252403 
     100    235.02941   -625.02842    165492.15   -15997.679    1182.5757   -17180.255   0.86801859    1.1252403 
     200    244.75287   -418.66892    165492.15    -16053.79    1231.5004    -17285.29     1.358403    1.1252403 
     300    248.93897      -361.33    165492.15   -16048.225    1252.5632   -17300.788    1.8602722    1.1252403 
     400    238.04972    -484.1516    165492.15   -16075.401    1197.7727   -17273.174    2.3509148    1.1252403 
     500     238.6992   -672.71719    165492.15   -16085.906    1201.0406   -17286.946    3.0346723    1.1252403 
     600    233.53105   -312.97064    165492.15   -16156.311    1175.0365   -17331.347    3.5089756    1.1252403 
     700    233.07158   -627.95185    165492.15   -16141.192    1172.7247   -17313.917    3.8184409    1.1252403 
     800    234.23489    -403.0148    165492.15   -16186.849     1178.578   -17365.427     4.115291    1.1252403 
     900      236.768   -259.59863    165492.15    -16153.15    1191.3236   -17344.474    4.5352322    1.1252403 
    1000     240.9881   -499.06013    165492.15   -16101.186    1212.5575   -17313.743    4.8745238    1.1252403 
    1100    249.46686   -522.59407    165492.15   -16119.543    1255.2193   -17374.762    5.1546367    1.1252403 
    1200    235.14095   -665.23933    165492.15   -16172.915    1183.1369   -17356.052    5.4747352    1.1252403 
    1300    234.20955    -400.1617    165492.15   -16132.901    1178.4505   -17311.352    5.8801225    1.1252403 
    1400    245.45833   -528.68586    165492.15   -16072.329      1235.05   -17307.379    6.2529072    1.1252403 
    1500    239.95247   -666.01334    165492.15   -16070.348    1207.3466   -17277.694    6.6468294    1.1252403 
    1600    244.59361   -444.04053    165492.15   -16047.735     1230.699   -17278.434    6.9885622    1.1252403 
    1700    241.70199   -322.14996    165492.15   -16070.474    1216.1495   -17286.623    7.3925209    1.1252403 
    1800    248.99086   -460.60951    165492.15   -16068.448    1252.8243   -17321.273    7.7032665    1.1252403 
    1900    249.09116   -674.07542    165492.15    -15992.44    1253.3289   -17245.769    8.0784131    1.1252403 
    2000      236.769   -379.29681    165492.15   -15972.289    1191.3286   -17163.617    8.4922349    1.1252403 
    2100    245.98706   -153.23185    165492.15   -15988.912    1237.7103   -17226.622    8.9252749    1.1252403 
    2200    246.57141   -611.06242    165492.15   -15989.037    1240.6505   -17229.688    9.2986801    1.1252403 
    2300    240.76889    -457.9817    165492.15   -16036.026    1211.4545   -17247.481    9.5622979    1.1252403 
    2400    240.62219   -467.20389    165492.15   -16046.849    1210.7164   -17257.565    9.5475316    1.1252403 
    2500     239.7623   -488.01511    165492.15   -16053.581    1206.3898   -17259.971    9.5635446    1.1252403 
    2600    242.77091    -448.2885    165492.15   -16084.941    1221.5279   -17306.468    9.8287022    1.1252403 
    2700    242.51913   -458.95698    165492.15   -16048.855     1220.261   -17269.116    9.9460875    1.1252403 
    2800     243.2108   -450.80533    165492.15   -16057.889    1223.7412   -17281.631    10.164511    1.1252403 
    2900    238.80603   -458.36156    165492.15   -16112.978    1201.5782   -17314.556    10.440967    1.1252403 
    3000    238.54368   -416.39992    165492.15   -16137.278    1200.2581   -17337.536    10.598379    1.1252403 
    3100    235.11275   -325.71731    165492.15   -16128.861     1182.995   -17311.856    10.612065    1.1252403 
    3200    235.84598   -523.11352    165492.15   -16139.831    1186.6844   -17326.515    10.830153    1.1252403 
    3300    238.84631   -331.33177    165492.15   -16097.873    1201.7808   -17299.654    11.052266    1.1252403 
    3400    247.97672   -491.86409    165492.15   -16101.206    1247.7215   -17348.927    11.584474    1.1252403 
    3500    238.31737   -432.21736    165492.15   -16111.021    1199.1194    -17310.14     12.00731    1.1252403 
    3600    233.37287   -439.56697    165492.15    -16093.84    1174.2406    -17268.08    12.494983    1.1252403 
    3700    233.68324   -415.71231    165492.15   -16119.231    1175.8023   -17295.033    12.715613    1.1252403 
    3800    243.57811   -350.94799    165492.15   -16103.301    1225.5894   -17328.891    12.855196    1.1252403 
    3900    236.81391   -449.37185    165492.15    -16133.61    1191.5546   -17325.164    13.201697    1.1252403 
    4000    230.88906   -705.24606    165492.15   -16145.687    1161.7431    -17307.43    13.409053    1.1252403 
    4100    233.69234   -461.13897    165492.15   -16105.486    1175.8481   -17281.334    13.688299    1.1252403 
    4200    238.48516   -603.36342    165492.15   -16066.311    1199.9637   -17266.274    13.804745    1.1252403 
    4300    238.85913   -620.21223    165492.15   -15988.129    1201.8454   -17189.975    14.128219    1.1252403 
    4400    244.90829   -607.52481    165492.15   -15992.101    1232.2823   -17224.383    14.696923    1.1252403 
    4500    243.73711    -586.9094    165492.15    -16029.84    1226.3894   -17256.229    14.787652    1.1252403 
    4600     240.8606   -471.03022    165492.15   -16060.341    1211.9159   -17272.257    15.289166    1.1252403 
    4700     243.9399   -490.38237    165492.15    -16084.15    1227.4098    -17311.56    15.945266    1.1252403 
    4800    236.05941   -425.80817    165492.15   -16054.754    1187.7583   -17242.512    16.274287    1.1252403 
    4900    240.02364    -518.1842    165492.15   -16069.462    1207.7047   -17277.167    16.648384    1.1252403 
    5000    230.26883   -509.26976    165492.15   -16099.645    1158.6223   -17258.268    17.143264    1.1252403 
    5100    232.70765   -403.31079    165492.15   -16121.983    1170.8935   -17292.876    17.458715    1.1252403 
    5200    242.76446   -458.82255    165492.15   -16095.824    1221.4954    -17317.32     17.71814    1.1252403 
    5300    236.80508   -559.52386    165492.15   -16143.098    1191.5102   -17334.608     18.01207    1.1252403 
    5400    235.65517   -402.57253    165492.15   -16107.711    1185.7243   -17293.435    18.453604    1.1252403 
    5500    240.96098   -393.03409    165492.15   -16130.133     1212.421   -17342.554    18.720968    1.1252403 
    5600    232.75635   -382.30874    165492.15   -16145.156    1171.1386   -17316.295    19.134021    1.1252403 
    5700    236.57558   -484.82744    165492.15   -16115.764    1190.3554   -17306.119    19.313029    1.1252403 
    5800    247.17573   -344.32367    165492.15   -16045.877    1243.6912   -17289.568    19.797236    1.1252403 
    5900     247.0532   -475.38614    165492.15   -16081.162    1243.0747   -17324.237    20.339917    1.1252403 
    6000    233.63008   -458.15523    165492.15   -16159.064    1175.5348   -17334.598    20.708821    1.1252403 
    6100    233.35668   -363.77276    165492.15   -16150.617    1174.1592   -17324.777    20.805513    1.1252403 
    6200    234.86328   -498.71346    165492.15   -16105.326    1181.7398   -17287.066    21.187218    1.1252403 
    6300    237.42587   -326.78083    165492.15   -16054.272    1194.6337   -17248.905    21.273904    1.1252403 
    6400    238.37949   -567.54376    165492.15   -16036.331     1199.432   -17235.763    21.632032    1.1252403 
    6500    243.71327   -327.23999    165492.15   -16046.863    1226.2695   -17273.132    22.099276    1.1252403 
    6600    242.39581   -573.71861    165492.15   -16086.602    1219.6405   -17306.243       22.454    1.1252403 
    6700    234.67243   -452.60011    165492.15   -16136.727    1180.7795   -17317.506     22.81443    1.1252403 
    6800     232.3642   -570.36518    165492.15   -16111.773    1169.1654   -17280.938      23.2299    1.1252403 
    6900    230.46596   -408.98114    165492.15   -16146.841    1159.6142   -17306.455    23.633531    1.1252403 
    7000    234.94463   -506.69822    165492.15   -16144.459    1182.1491   -17326.608    23.953531    1.1252403 
    7100    244.08298   -516.64015    165492.15   -16078.592    1228.1297   -17306.721    24.225369    1.1252403 
    7200    237.90378   -514.56767    165492.15   -16077.994    1197.0384   -17275.032    24.550263    1.1252403 
    7300    229.86351   -448.64218    165492.15   -16132.292    1156.5829   -17288.875    25.045419    1.1252403 
    7400     233.0033   -604.60472    165492.15   -16126.621    1172.3811   -17299.002    25.472489    1.1252403 
    7500    236.83078   -682.81566    165492.15   -16138.404    1191.6395   -17330.043    25.611362    1.1252403 
    7600    235.48126   -385.71549    165492.15   -16153.387    1184.8493   -17338.237    25.856699    1.1252403 
    7700    236.14395   -462.20555    165492.15   -16145.903    1188.1836   -17334.087    26.260493    1.1252403 
    7800    242.74281    -478.0535    165492.15   -16098.078    1221.3865   -17319.464    26.636409    1.1252403 
    7900    238.09998   -345.87414    165492.15   -16103.332    1198.0256   -17301.358    27.019558    1.1252403 
    8000    241.97318   -449.91225    165492.15    -16092.24     1217.514   -17309.754    27.803764    1.1252403 
    8100    236.93475   -333.32602    165492.15   -16113.436    1192.1626   -17305.598    27.982073    1.1252403 
    8200    235.73739   -309.02813    165492.15   -16154.493     1186.138   -17340.631    28.206605    1.1252403 
    8300    233.35689    -513.6565    165492.15   -16148.714    1174.1603   -17322.875     28.88913    1.1252403 
    8400    236.47086   -479.74296    165492.15   -16123.622    1189.8285    -17313.45    29.214781    1.1252403 
    8500    241.02439   -403.17444    165492.15   -16151.397    1212.7401   -17364.137    29.773068    1.1252403 
    8600    242.28695   -386.97036    165492.15   -16091.276    1219.0928   -17310.369     29.97164    1.1252403 
    8700    234.58193   -549.11479    165492.15   -16154.602    1180.3242   -17334.927    29.801199    1.1252403 
    8800    236.31867   -265.69113    165492.15   -16101.199    1189.0627   -17290.262    29.835508    1.1252403 
    8900    236.91264   -276.99344    165492.15   -16141.346    1192.0514   -17333.398    29.896143    1.1252403 
    9000    245.05882   -677.13483    165492.15   -16095.781    1233.0398   -17328.821    30.412514    1.1252403 
    9100    238.65522    -509.9882    165492.15   -16087.643    1200.8194   -17288.462     31.02775    1.1252403 
    9200    232.71335   -623.06779    165492.15   -16123.755    1170.9222   -17294.677    30.905872    1.1252403 
    9300    239.64366   -188.54525    165492.15   -16151.715    1205.7928   -17357.508    30.881118    1.1252403 
    9400    235.52326   -485.17474    165492.15   -16185.376    1185.0606   -17370.436    30.994058    1.1252403 
    9500    238.29714   -679.12566    165492.15   -16138.894    1199.0177   -17337.912    31.245879    1.1252403 
    9600    232.02048   -554.06649    165492.15   -16186.166    1167.4359   -17353.602    31.794208    1.1252403 
    9700    238.08042   -492.00116    165492.15   -16146.351    1197.9272   -17344.278    32.270256    1.1252403 
    9800    231.30405   -681.15857    165492.15   -16136.379    1163.8312   -17300.211    32.469674    1.1252403 
    9900    238.60327   -654.26987    165492.15   -16089.828     1200.558   -17290.386     32.81843    1.1252403 
   10000    245.48264   -413.40032    165492.15   -16023.631    1235.1723   -17258.803    33.155645    1.1252403 
Loop time of 10.3086 on 64 procs for 10000 steps with 8493 atoms

Performance: 419.069 ns/day, 0.057 hours/ns, 970.067 timesteps/s
100.0% CPU use with 64 MPI tasks x no OpenMP threads

MPI task timing breakdown:
Section |  min time  |  avg time  |  max time  |%varavg| %total
---------------------------------------------------------------
Pair    | 0.0017809  | 3.6101     | 8.056      | 154.4 | 35.02
Neigh   | 0.0079261  | 0.23762    | 0.50025    |  36.7 |  2.31
Comm    | 1.1905     | 4.144      | 8.5138     | 109.7 | 40.20
Output  | 0.1507     | 0.15078    | 0.15153    |   0.0 |  1.46
Modify  | 0.31358    | 2.0592     | 7.6573     | 162.8 | 19.98
Other   |            | 0.1069     |            |       |  1.04

Nlocal:    132.703 ave 259 max 0 min
Histogram: 16 0 4 12 0 0 0 2 20 10
Nghost:    925.141 ave 1155 max 647 min
Histogram: 4 11 1 0 5 17 10 0 5 11
Neighs:    0 ave 0 max 0 min
Histogram: 64 0 0 0 0 0 0 0 0 0
FullNghs:  13936.1 ave 30275 max 0 min
Histogram: 20 12 0 0 0 0 0 9 13 10

Total # of neighbors = 891912
Ave neighs/atom = 105.017
Neighbor list builds = 564
Dangerous builds = 0
write_data 	    ${DIR}/data.${NAME}_eq
write_data 	    run_14/data.${NAME}_eq
write_data 	    run_14/data.ibeam_cooling_14_eq

undump              1
unfix               4



################################################
#######         Run Simulation         #########
################################################

reset_timestep      0
timestep	    10.0
log                 ${DIR}/log.run_${NAME}
log                 run_14/log.run_${NAME}
log                 run_14/log.run_ibeam_cooling_14
