

variable Z_SHIFT equal 20



read_data data.wall_225K_20A_run group wall
Reading data file ...
  orthogonal box = (-0.85299249 -0.85299249 -0.063184629) to (270.85299 270.85299 20.063185)
  2 by 3 by 1 MPI processor grid
  reading atoms ...
  48200 atoms
  reading velocities ...
  48200 velocities
  read_data CPU = 0.172 seconds
read_data data.10A_54A_cylinder add append shift 0.0 0.0 ${Z_SHIFT} group drop
read_data data.10A_54A_cylinder add append shift 0.0 0.0 20 group drop
Reading data file ...
  orthogonal box = (-0.85299249 -0.85299249 -0.063184629) to (270.85299 270.85299 39.279945)
  2 by 3 by 1 MPI processor grid
  reading atoms ...
  6011 atoms
  reading velocities ...
  6011 velocities
  read_data CPU = 0.149 seconds

write_data ${DIR}/data.initial_${NAME}
write_data run_1/data.initial_${NAME}
write_data run_1/data.initial_pres_density_1
System init for write_data ...
WARNING: Communication cutoff is 0.0. No ghost atoms will be generated. Atoms may get lost. (../comm_brick.cpp:167)

# Define potential
#
pair_style          sw
pair_coeff          * * ML_mW.sw mW
Reading sw potential file ML_mW.sw with DATE: 2019-02-27

# Run minimization
#
minimize            1.0e-8 1.0e-8 10000 1000
WARNING: Using 'neigh_modify every 1 delay 0 check yes' setting during minimization (../min.cpp:187)
Neighbor list info ...
  update every 1 steps, delay 0 steps, check yes
  max neighbors/atom: 2000, page size: 100000
  master list distance cutoff = 6.0032907
  ghost atom cutoff = 6.0032907
  binsize = 3.0016454, bins = 91 91 14
  1 neighbor lists, perpetual/occasional/extra = 1 0 0
  (1) pair sw, perpetual
      attributes: full, newton on
      pair build: full/bin/atomonly
      stencil: full/bin/3d
      bin: standard
Per MPI rank memory allocation (min/avg/max) = 5.575 | 6.713 | 8.985 Mbytes
Step Temp E_pair E_mol TotEng Press 
       0    224.34022   -490465.24            0   -454214.17    1240.6565 
     850    224.34022   -580244.71            0   -543993.64    288.10549 
Loop time of 15.1572 on 6 procs for 850 steps with 54211 atoms

99.8% CPU use with 6 MPI tasks x no OpenMP threads

Minimization stats:
  Stopping criterion = max force evaluations
  Energy initial, next-to-last, final = 
     -490465.238674354  -580244.048226507  -580244.707538978
  Force two-norm initial, final = 38845.168 7.3244406
  Force max component initial, final = 14518.129 1.3619679
  Final line search alpha, max atom move = 0.045666355 0.062196109
  Iterations, force evaluations = 850 1001

MPI task timing breakdown:
Section |  min time  |  avg time  |  max time  |%varavg| %total
---------------------------------------------------------------
Pair    | 12.722     | 13.37      | 13.812     |  11.9 | 88.21
Neigh   | 0.54554    | 0.5626     | 0.58517    |   2.0 |  3.71
Comm    | 0.15203    | 0.58822    | 1.221      |  55.8 |  3.88
Output  | 0          | 0          | 0          |   0.0 |  0.00
Modify  | 0          | 0          | 0          |   0.0 |  0.00
Other   |            | 0.6365     |            |       |  4.20

Nlocal:        9035.17 ave       10673 max        8204 min
Histogram: 4 0 0 0 0 0 0 0 0 2
Nghost:        5538.83 ave        6386 max        5078 min
Histogram: 4 0 0 0 0 0 0 0 0 2
Neighs:        0.00000 ave           0 max           0 min
Histogram: 6 0 0 0 0 0 0 0 0 0
FullNghs:     230858.0 ave      280540 max      205049 min
Histogram: 4 0 0 0 0 0 0 0 0 2

Total # of neighbors = 1385146
Ave neighs/atom = 25.551014
Neighbor list builds = 32
Dangerous builds = 0


# Add velocity/set timestep
#
velocity            drop create ${START_TEMP} 120598 rot yes dist gaussian
velocity            drop create 230 120598 rot yes dist gaussian
fix		5 wall setforce 0.0 0.0 0.0
timestep            5.0

# Define output
#
compute	            1 drop msd
compute		    2 drop stress/atom NULL
thermo	            100
thermo_style        custom step temp press vol etotal ke pe c_1[4] density

# Neighbor lists
#
neigh_modify        delay 0 every 1 check yes

# Set fixes
#
fix                 1 drop momentum 10 linear 1 1 1 rescale
fix                 2 drop nve
fix                 3 drop temp/csvr ${START_TEMP} ${START_TEMP} 500.0 928347
fix                 3 drop temp/csvr 230 ${START_TEMP} 500.0 928347
fix                 3 drop temp/csvr 230 230 500.0 928347
fix                 4 drop press/berendsen iso ${PRES} ${PRES} 1000.0 modulus 20000
fix                 4 drop press/berendsen iso 1 ${PRES} 1000.0 modulus 20000
fix                 4 drop press/berendsen iso 1 1 1000.0 modulus 20000

# Run 0.5 ns equilibration
#
dump                1 all custom 1000 ${DIR}/eq.${NAME}.dump id type x y z vx vy vz
dump                1 all custom 1000 run_1/eq.${NAME}.dump id type x y z vx vy vz
dump                1 all custom 1000 run_1/eq.pres_density_1.dump id type x y z vx vy vz
run                 100000
Per MPI rank memory allocation (min/avg/max) = 5.575 | 6.713 | 8.985 Mbytes
Step Temp Press Volume TotEng KinEng PotEng c_1[4] Density 
     850    225.08287    289.99421    2904472.8   -543873.63    36371.077   -580244.71            0   0.55834602 
     900    214.33936    75.462407    2910178.4   -542871.31    34635.036   -577506.34   0.15730387   0.55725136 
    1000    218.81421   0.37272926    2912350.8   -541539.93    35358.125   -576898.05   0.30708542   0.55683568 
    1100    220.95801   -4.7541396    2912360.6   -540760.58    35704.542   -576465.12   0.45407214   0.55683381 
    1200    222.97034    8.0155686    2912232.9   -540197.47    36029.713   -576227.18   0.62249433   0.55685823 
    1300    223.38127   -6.3403992    2912480.5   -539882.22    36096.115   -575978.34   0.74904124   0.55681088 
    1400    223.15706   -7.7938495    2912332.1   -539831.41    36059.886    -575891.3   0.85400954   0.55683925 
    1500    223.78866   -6.6593378    2912401.7   -539707.22    36161.945   -575869.17    1.0307091   0.55682595 
    1600    223.86471   -8.7206519    2911883.4   -539632.17    36174.234    -575806.4    1.2000706   0.55692506 
    1700    224.54897    9.2257898    2912024.7   -539541.35    36284.803   -575826.16    1.3531443   0.55689805 
    1800     224.7456    -3.072903    2912100.6   -539378.38    36316.577   -575694.96    1.4936528   0.55688353 
    1900    224.88823   -1.3415043    2912249.8   -539307.39    36339.625   -575647.02    1.6403938     0.556855 
    2000    224.56401    4.0027652    2912282.3   -539417.27    36287.234    -575704.5    1.8095451   0.55684877 
    2100    224.73869    1.6713572      2911858   -539396.36     36315.46   -575711.82     1.925937   0.55692991 
    2200    224.72992    11.366582    2912077.4   -539334.01    36314.044   -575648.05    2.0676577   0.55688797 
    2300    225.39783   -6.1683661      2912473   -539197.85    36421.971   -575619.82    2.2458153   0.55681231 
    2400    225.22489   -2.1217426    2912616.5   -539212.16    36394.026   -575606.19    2.3982194   0.55678488 
    2500    225.04767    12.662561    2912279.4   -539242.52    36365.388    -575607.9    2.5940832   0.55684934 
    2600    225.15383    18.114074    2911993.5   -539223.57    36382.542   -575606.11    2.7684506   0.55690401 
    2700    225.24177    -3.745964    2912641.7   -539171.52    36396.752   -575568.27    2.9702133   0.55678007 
    2800    225.70286    3.1486252    2912529.3    -539122.6    36471.261   -575593.86    3.1521897   0.55680156 
    2900    225.78752   -18.135741    2912199.4   -539120.07    36484.941   -575605.01    3.2941111   0.55686463 
    3000    225.60889    -1.009156    2912219.3   -539148.33    36456.075   -575604.41    3.4785751   0.55686083 
    3100    225.87312   0.46916358    2912439.3   -539167.54    36498.773   -575666.31    3.7080971   0.55681877 
    3200    224.86723 -0.065092495    2912281.1    -539265.9    36336.231   -575602.13    3.8238111   0.55684902 
    3300    225.36212  -0.97730672    2912251.7   -539201.03    36416.201   -575617.23    4.0190141   0.55685463 
    3400    225.18778    4.0378656    2912548.6   -539248.56    36388.028   -575636.58    4.1139499   0.55679786 
    3500    225.30636    5.0415867    2912331.7   -539256.13     36407.19   -575663.32    4.3187383   0.55683933 
    3600    225.50274  -0.37055284    2912507.8   -539287.64    36438.923   -575726.56    4.4964887   0.55680567 
    3700     224.9651   -2.5348292    2912574.2   -539355.17    36352.046   -575707.22    4.5393975   0.55679298 
    3800    224.77832   -5.6630456    2912668.2   -539405.49    36321.864   -575727.35    4.7451182     0.556775 
    3900    224.80774    4.7548223    2912498.4   -539442.03    36326.618   -575768.65    4.8756211   0.55680746 
    4000    224.74064    7.7389161    2912700.7   -539451.92    36315.775   -575767.69    5.0990291   0.55676879 
    4100    224.88678   -19.263791    2912428.1    -539474.3     36339.39   -575813.68    5.2786578   0.55682091 
    4200    224.86878    2.4764598    2912658.7   -539469.33    36336.482   -575805.81    5.4466191   0.55677682 
    4300    224.73632   0.35215694    2912851.8    -539459.9    36315.077   -575774.97    5.5654134   0.55673991 
    4400    224.83927   -10.391773    2912340.6      -539452    36331.713   -575783.71    5.6848593   0.55683763 
    4500    225.19004    7.4249384    2912368.5   -539459.23    36388.393   -575847.62    5.8175031   0.55683231 
    4600    224.75547   -14.974961    2912889.1   -539478.03    36318.171    -575796.2     5.989463   0.55673279 
    4700    225.17338    5.0704714    2912605.5   -539424.92    36385.702   -575810.62    6.1258073   0.55678699 
    4800    224.95794   -8.1633533    2912618.5   -539517.88    36350.888   -575868.76    6.3183381    0.5567845 
    4900    225.21919   -2.2920838    2912638.7   -539498.62    36393.104   -575891.73    6.4779322   0.55678065 
    5000    224.95164  -0.42125433    2912775.1    -539499.7    36349.871   -575849.57    6.6311864   0.55675456 
    5100    225.17475   -13.555529    2913078.2   -539349.75    36385.924   -575735.68    6.8257051   0.55669665 
    5200    225.80992    3.6168582    2912669.8   -539285.85     36488.56   -575774.41    7.0244294    0.5567747 
    5300    225.18626   -0.5686536    2912475.1   -539397.86    36387.783   -575785.64    7.1448138   0.55681192 
    5400    225.13606    1.3374436    2912495.8   -539474.88    36379.671   -575854.55    7.3242018   0.55680797 
    5500    225.21893   -14.389632    2912273.6   -539413.11    36393.063   -575806.17    7.4211084   0.55685045 
    5600    225.14603    17.547614    2912815.2    -539441.4    36381.282   -575822.68     7.651783   0.55674691 
    5700    225.57895   -14.649634    2912316.8   -539494.31    36451.238   -575945.55    7.8241551   0.55684219 
    5800    224.91576    3.8199565    2912207.3   -539529.07    36344.073   -575873.14     7.975631   0.55686312 
    5900     224.8338   -2.4755801    2912306.6   -539489.33     36330.83   -575820.16    8.0491333   0.55684414 
    6000    225.09424   -3.8160774    2912131.6   -539477.64    36372.914   -575850.56    8.1588005    0.5568776 
    6100    224.60224    3.0931061    2912120.9   -539562.46    36293.411   -575855.87     8.255635   0.55687964 
    6200    224.62115    14.057711    2911609.1   -539573.73    36296.467    -575870.2    8.3987085   0.55697753 
    6300    225.29085    14.151625    2912300.1   -539518.13    36404.684   -575922.82    8.5470027   0.55684538 
    6400    225.19465   -4.5890919    2912274.7   -539562.28    36389.138   -575951.42    8.6719827   0.55685024 
    6500    225.16956    3.9790498    2912584.4   -539547.44    36385.084   -575932.53    8.8684037   0.55679102 
    6600    224.79854   -7.3036133    2912460.5   -539490.64    36325.132   -575815.77     8.997007    0.5568147 
    6700    225.06413  -0.28129831      2912314   -539426.64    36368.048   -575794.69    9.1528056   0.55684273 
    6800    225.17759   -1.1831063    2912114.8   -539457.85    36386.382   -575844.24    9.3347507   0.55688081 
    6900    224.91968    9.3318388    2912844.8   -539541.87    36344.707   -575886.58    9.5583332   0.55674126 
    7000    225.35061  -0.61246382    2912857.8   -539481.95    36414.341   -575896.29    9.7016057   0.55673877 
    7100    225.07661    7.8842562    2912921.6   -539467.93    36370.065   -575837.99    9.9482549   0.55672657 
    7200    225.09842    5.5467392    2912745.3   -539456.45    36373.588   -575830.04     10.16217   0.55676027 
    7300    224.83757   -1.5335736    2912712.6   -539499.75    36331.439   -575831.19    10.264221   0.55676652 
    7400    225.03638   -5.1051177    2912296.2   -539508.25    36363.564   -575871.81    10.471288   0.55684613 
    7500    224.70211   -16.146639    2912061.3    -539601.5    36309.549   -575911.05    10.642931   0.55689105 
    7600    224.34574    4.7838902    2911753.3   -539599.36    36251.963   -575851.32    10.768228   0.55694994 
    7700    225.20514    6.9502368    2912497.7   -539604.86    36390.833   -575995.69    10.811732    0.5568076 
    7800    224.43706   -14.080194      2912708   -539709.57    36266.721   -575976.29    10.988725    0.5567674 
    7900    225.01873    7.6687312    2911892.1    -539628.1    36360.711   -575988.82    11.097977    0.5569234 
    8000    224.68599    14.132064    2911916.7   -539546.71    36306.945   -575853.65    11.231047    0.5569187 
    8100    224.84739    0.2864693    2912166.8   -539635.02    36333.026   -575968.05    11.471452   0.55687086 
    8200    224.98796   -14.748817    2912432.4   -539633.46     36355.74    -575989.2    11.584598   0.55682009 
    8300    224.87829   -5.9390422    2912218.2   -539677.88    36338.018    -576015.9    11.654883   0.55686103 
    8400    225.01695    1.6554656    2912051.7   -539692.18    36360.424    -576052.6    11.900979   0.55689288 
    8500    224.57183   -1.4618825    2912198.6   -539707.95    36288.498   -575996.45    11.926601   0.55686479 
    8600    224.79125   -2.9255876      2912178    -539650.6    36323.954   -575974.56    12.034513   0.55686873 
    8700    225.17759    15.051842    2912678.6   -539600.25    36386.381   -575986.63    12.134185   0.55677302 
    8800    225.24466   -12.420692    2912376.4    -539602.7     36397.22   -575999.92    12.321211   0.55683079 
    8900    224.97555    1.2791968      2911956   -539620.15    36353.734   -575973.89    12.416601   0.55691118 
    9000    225.12133   -9.7344086    2911911.7   -539663.77    36377.292   -576041.06    12.539813   0.55691966 
    9100    225.08618    9.2381278    2912312.3   -539721.62    36371.611   -576093.23    12.710348   0.55684305 
    9200    224.95893    12.725528    2912261.2   -539714.98    36351.049   -576066.03    12.874085   0.55685281 
    9300    224.67507    2.4160239    2912225.9   -539763.18     36305.18   -576068.36    12.963176   0.55685957 
    9400    224.92055   -6.6028916      2912397   -539680.25    36344.847    -576025.1    13.161661   0.55682685 
    9500    224.75625  -0.73226269    2912360.7   -539685.06    36318.298   -576003.36    13.223661    0.5568338 
    9600    224.79828    -10.46913    2912443.2    -539700.5     36325.09   -576025.59     13.22978   0.55681802 
    9700    225.17937    3.1204532    2912663.6   -539657.49     36386.67   -576044.16    13.392391   0.55677589 
    9800    225.07905     -13.0332    2912701.9    -539661.4     36370.46   -576031.86    13.464262   0.55676856 
    9900    225.39886   -2.9292487    2912812.5   -539601.22    36422.136   -576023.36    13.598304   0.55674742 
   10000    225.37912   -10.760327    2912724.7   -539658.82    36418.947   -576077.77    13.712724    0.5567642 
   10100    225.00717   -0.4995209      2912626   -539737.53    36358.843   -576096.37    13.815664   0.55678307 
   10200    225.01189    1.8505651    2912927.1   -539799.05    36359.606   -576158.66    13.945763   0.55672551 
   10300    225.08294    4.6593067    2912922.4   -539784.35    36371.087   -576155.43     14.01406   0.55672641 
   10400    224.83443   -15.883986    2912582.9   -539831.88    36330.932   -576162.82    14.088405   0.55679131 
   10500    224.74078     0.219408    2912455.3    -539907.6    36315.798   -576223.39    14.320441   0.55681571 
   10600    225.12026    5.6679794    2912854.6   -539826.16    36377.118   -576203.28    14.420875   0.55673938 
   10700    224.86528  -0.82556202    2912418.9   -539762.15    36335.915   -576098.06    14.473436   0.55682266 
   10800    225.43843    5.6604224    2912546.4   -539680.03    36428.531   -576108.57    14.644702   0.55679828 
   10900    225.19373    18.627467    2912607.7   -539632.15    36388.991   -576021.14    14.723077   0.55678656 
   11000    225.40114   -8.0139017      2912879   -539672.51    36422.505   -576095.02    14.925567   0.55673471 
   11100    225.14856    5.5840683    2912622.7   -539655.03    36381.692   -576036.72    14.965875    0.5567837 
   11200    225.24609   -21.617368    2912328.8    -539671.5    36397.452   -576068.95    15.147868   0.55683989 
   11300    225.35419    9.9822225    2912049.5   -539636.87    36414.919   -576051.79    15.258882    0.5568933 
   11400    225.04994    1.5233413    2912465.2   -539664.44    36365.755   -576030.19     15.40231    0.5568138 
   11500    225.29009    11.742623    2912929.3    -539642.9    36404.561   -576047.46    15.437101   0.55672511 
   11600    224.88104   -5.6897995    2912396.4   -539673.48    36338.463   -576011.95    15.571594   0.55682697 
   11700    224.86727    4.4903829    2912563.1   -539679.69    36336.237   -576015.93    15.701643   0.55679509 
   11800    225.06437   -6.8188852    2912632.8   -539668.22    36368.086    -576036.3    15.839622   0.55678178 
   11900    225.68642    7.2229227    2912720.1   -539611.67    36468.603   -576080.27    15.993986   0.55676508 
   12000    225.16754    10.744958    2912970.9   -539663.25    36384.758   -576048.01    16.259263   0.55671714 
   12100    224.95753    3.2816649    2912366.6   -539673.12    36350.823   -576023.94    16.358896   0.55683267 
   12200    225.21944    5.8684617    2912541.7   -539714.07    36393.144   -576107.21    16.302406   0.55679918 
   12300    225.04408    5.8607924    2912374.9   -539678.74    36364.808   -576043.54    16.534755   0.55683107 
   12400    225.38332     6.031558      2912280   -539641.94    36419.627   -576061.57    16.626975   0.55684922 
   12500     224.9423    1.6250975    2912273.2    -539657.7    36348.361   -576006.06     16.68283   0.55685052 
   12600    225.30219    -11.59042    2912247.2   -539670.75    36406.516   -576077.27    16.799926   0.55685549 
   12700    224.89692    3.5689654      2912162   -539755.56    36341.028   -576096.59    17.017905   0.55687178 
   12800    225.04439    7.2646844    2912131.6    -539656.5    36364.859   -576021.36      17.1119   0.55687759 
   12900    225.34291    5.2504382    2912424.2    -539637.6    36413.097    -576050.7    17.283396   0.55682166 
   13000    225.31381   -1.9055046    2912358.7   -539601.89    36408.394   -576010.28    17.422607   0.55683417 
   13100    225.23889  -0.74331726    2911974.6   -539692.64    36396.288   -576088.93    17.462043   0.55690762 
   13200    225.71528    10.666179    2912460.2   -539707.33    36473.267    -576180.6    17.583279   0.55681477 
   13300    225.65224    6.0695631    2912490.2   -539702.93    36463.081   -576166.01    17.786684   0.55680903 
   13400    225.05285    9.0674335    2912339.9   -539644.77    36366.226   -576010.99    17.880658   0.55683777 
   13500    225.11464   -3.7962183    2912273.3   -539630.76    36376.211   -576006.97    17.978488   0.55685051 
   13600    225.22565   -6.4165908    2912349.1   -539766.74    36394.149   -576160.89    18.039472     0.556836 
   13700     225.2241    12.839804    2912401.8   -539816.97    36393.898   -576210.87    18.154365   0.55682593 
   13800    225.05183     6.394805    2912662.6   -539855.29     36366.06   -576221.35    18.228941   0.55677608 
   13900    224.86691   -1.3058425    2912580.2   -539814.86    36336.179   -576151.04    18.400353   0.55679183 
   14000    225.38388   -7.6542195    2912517.2   -539792.31    36419.717   -576212.03     18.61328   0.55680386 
   14100    224.65915   -6.6094727    2912187.3   -539808.11    36302.607   -576110.71    18.567594   0.55686695 
   14200    225.00632   -5.2694832    2912611.4   -539757.17    36358.707   -576115.88     18.63442   0.55678585 
   14300    225.21979     1.167553    2912830.8   -539725.09    36393.201   -576118.29    18.823559   0.55674392 
   14400    225.16114  0.060614758    2912461.5   -539799.71    36383.724   -576183.43    18.795739   0.55681452 
   14500    224.68041    -1.866327    2912646.3   -539860.93    36306.043   -576166.98    18.980428   0.55677919 
   14600    225.04071   -6.4933283    2912625.7   -539818.19    36364.263   -576182.45    19.122878   0.55678312 
   14700    225.30143   0.99941931    2912371.6   -539735.84    36406.394   -576142.23    19.274652   0.55683171 
   14800    225.16725    11.153694    2912552.7   -539739.26    36384.711   -576123.97    19.224375   0.55679708 
   14900    225.18101   -14.255881    2912363.6   -539778.82    36386.935   -576165.75    19.321567   0.55683323 
   15000    225.02566    2.8417884    2912343.4   -539844.27    36361.831   -576206.11    19.425143   0.55683709 
   15100    225.29491    8.6239166    2912441.8   -539946.38     36405.34   -576351.72    19.652075   0.55681829 
   15200    225.51933   0.34921085    2912181.9   -539938.51    36441.604   -576380.11    19.788725   0.55686798 
   15300     224.4466    3.8157817    2912255.7   -539965.24    36268.261    -576233.5    19.900001   0.55685386 
   15400    224.72717    2.5024169      2912484   -539904.93    36313.599   -576218.53     20.13982   0.55681022 
   15500    225.12545     4.406007    2912953.9   -539890.82    36377.957   -576268.77    20.155059   0.55672039 
   15600    224.63881   -8.5729441    2912786.7   -539892.93    36299.321   -576192.25    20.291661   0.55675235 
   15700    224.84679    9.0764264    2912548.3    -539862.7    36332.929   -576195.63    20.409099   0.55679792 
   15800     225.0609    6.5342379    2913037.2   -539811.18    36367.526    -576178.7    20.520072   0.55670447 
   15900    225.01653   -11.436577    2913213.2    -539882.6    36360.356   -576242.96     20.58864   0.55667085 
   16000    224.74337   -4.0741364      2912669   -539904.29    36316.217    -576220.5    20.615123   0.55677484 
   16100     224.9882    13.151738    2912489.7   -539956.98    36355.779   -576312.75    20.728442   0.55680912 
   16200    225.05125   -6.3897092      2912631   -539969.71    36365.968   -576335.68    20.842016   0.55678211 
   16300    225.42133    7.7037624    2912830.3   -539840.27    36425.767   -576266.04    20.867785   0.55674402 
   16400    225.01784   -7.2542197    2912976.1   -539919.22    36360.567   -576279.79    20.983425   0.55671615 
   16500     224.9677   -1.7534496    2912436.5   -539924.72    36352.465   -576277.19    21.075008    0.5568193 
   16600    224.88766    10.228146    2912673.2   -539843.99    36339.533   -576183.52    21.089926   0.55677406 
   16700    225.24592    4.8075594      2912855   -539786.25    36397.424   -576183.68     21.10373   0.55673929 
   16800    224.87056     9.639973    2912839.9   -539779.59    36336.769   -576116.36    21.269693   0.55674219 
   16900    225.06235    12.288699    2912913.7   -539777.89     36367.76   -576145.65    21.351168   0.55672808 
   17000    225.44625   -2.2333309    2912650.7   -539825.59    36429.795   -576255.39    21.570048   0.55677834 
   17100    225.07892    6.2274359    2912204.6   -539735.01    36370.438   -576105.45    21.620886   0.55686363 
   17200     224.9897    8.8392641    2912362.6   -539779.93    36356.022   -576135.95    21.804574   0.55683344 
   17300     225.3511    13.472141      2912522   -539660.85     36414.42   -576075.27    21.831686   0.55680295 
   17400    225.40455   -17.385055    2912667.3   -539655.67    36423.056   -576078.73    21.966303   0.55677517 
   17500    225.08226   -10.815673    2912436.8   -539739.89    36370.978   -576110.87    21.991297   0.55681924 
   17600    225.33761    10.998675    2912433.8   -539749.98     36412.24   -576162.22    22.231024   0.55681982 
   17700    225.04349    12.750821    2912713.8   -539735.83    36364.713   -576100.55    22.274011    0.5567663 
   17800    225.60607    11.895566      2912641    -539710.7     36455.62   -576166.32    22.416229   0.55678021 
   17900     224.9695    12.723279    2912677.4   -539695.49    36352.757   -576048.25    22.553483   0.55677324 
   18000    225.34529    8.4401919    2912595.1   -539672.33    36413.481   -576085.81    22.548989   0.55678898 
   18100    224.64806   -7.4597644    2912557.1   -539711.91    36300.816   -576012.72    22.645962   0.55679624 
   18200    225.48627    2.1406963    2912907.3   -539644.86    36436.262   -576081.12    22.649396   0.55672929 
   18300    224.99175     13.51196    2912771.2   -539749.76    36356.352   -576106.12     22.81828   0.55675531 
   18400    225.02733    3.1163126    2912446.8    -539749.1    36362.102   -576111.21    22.970725   0.55681734 
   18500    225.14378    9.2386299    2912498.7   -539686.27    36380.918   -576067.19    22.993824   0.55680741 
   18600    225.40632    -6.935183    2912578.4   -539707.13    36423.343   -576130.47      23.1711   0.55679217 
   18700    225.14585   -1.3496821    2912406.4   -539714.83    36381.253   -576096.08    23.310538   0.55682506 
   18800    224.97257    13.917792    2912788.3   -539713.52    36353.253   -576066.77    23.323766   0.55675205 
   18900    225.33024    3.3429249    2912893.1   -539702.32    36411.048   -576113.37    23.538955   0.55673202 
   19000    225.60759    4.9074521      2913168   -539678.11    36455.865   -576133.97    23.737063   0.55667949 
   19100    225.43302   -3.2636795    2913157.4   -539701.83    36427.657   -576129.48    23.916702   0.55668151 
   19200    225.22185    -1.074922    2912976.8   -539716.32    36393.533   -576109.85    24.037688   0.55671602 
   19300    225.11781    5.4734603    2912995.6   -539749.53    36376.723   -576126.25    24.146155   0.55671243 
   19400    225.13829   -5.0668199    2913200.3   -539778.36    36380.031   -576158.39    24.250481    0.5566733 
   19500    225.40904    7.7149915    2913412.5   -539703.27    36423.782   -576127.06    24.502949   0.55663276 
   19600    225.07065   -15.909053    2913102.1   -539714.42    36369.101   -576083.52    24.684544   0.55669207 
   19700    225.73275    4.4159698    2913284.3    -539711.3     36476.09   -576187.39    24.823358   0.55665726 
   19800    225.16057   -2.0861588    2913302.8   -539759.24    36383.631   -576142.87    24.861579   0.55665373 
   19900    225.30483    6.8278062    2913236.8   -539807.24    36406.942   -576214.18    24.875989   0.55666634 
   20000    225.28231   -6.6321257    2913202.1   -539799.99    36403.304   -576203.29    24.927293   0.55667296 
   20100    225.29148    -11.97115    2912794.8   -539828.16    36404.786   -576232.94    25.188267    0.5567508 
   20200    224.88095   -2.5192841    2912636.5   -539875.66    36338.447   -576214.11    25.158739   0.55678107 
   20300    224.71589    2.1407539    2912637.7   -539813.68    36311.777   -576125.46    25.457893   0.55678084 
   20400    224.55308    5.8095014    2912435.7   -539890.29    36285.467   -576175.76    25.556998   0.55681945 
   20500     224.6793    -10.31434    2912668.4   -539888.06    36305.864   -576193.93    25.672803   0.55677496 
   20600     225.3705   -3.3556826    2912809.3   -539862.28    36417.554   -576279.84    25.782367   0.55674804 
   20700    225.02704    8.8290706      2912619   -539845.48    36362.055   -576207.54    25.827567   0.55678441 
   20800    224.41303   -9.0433528    2912478.8   -539882.25    36262.837   -576145.09    25.916218   0.55681121 
   20900    225.14459    2.1088902    2912374.7    -539820.9    36381.049   -576201.95    26.100012   0.55683111 
   21000    224.80482   0.99711562    2912503.3    -539779.2    36326.147   -576105.35    26.219428   0.55680654 
   21100     224.7117   -6.4907052    2912500.3   -539853.98    36311.099   -576165.08    26.297764    0.5568071 
   21200     224.8593   -4.3018414    2912256.4   -539924.74     36334.95   -576259.69    26.427554   0.55685374 
   21300    224.63759    7.7190354    2912621.1   -539942.93    36299.123   -576242.06    26.651885   0.55678401 
   21400    224.64514    3.9885044    2912770.9   -539933.84    36300.343   -576234.18    26.707641   0.55675537 
   21500    224.66861    2.0236042    2912744.9   -539945.27    36304.136   -576249.41    26.825682   0.55676034 
   21600    225.00406    9.1614296    2912407.7   -539921.24    36358.341   -576279.58    27.059484    0.5568248 
   21700    224.67299   -4.9926745    2912520.2   -539900.15    36304.843   -576204.99      27.1285   0.55680329 
   21800    224.70262    6.2560921    2912574.4   -539816.73    36309.632   -576126.36    27.208767   0.55679294 
   21900    224.78272   -8.9544666    2912755.6   -539795.76    36322.576   -576118.33    27.251168    0.5567583 
   22000    225.30391   -11.750446      2912913   -539774.37    36406.794   -576181.17    27.316268   0.55672821 
   22100    225.17328    3.7886272    2912461.2   -539828.93    36385.686   -576214.62    27.381457   0.55681457 
   22200    225.03683    5.8486351      2912845   -539860.34    36363.637   -576223.98    27.515587    0.5567412 
   22300    224.77867    6.3536671    2913139.1   -539795.28    36321.922    -576117.2    27.658145     0.556685 
   22400    224.86827   -4.3623857    2912781.8   -539827.74    36336.398   -576164.13     27.78409   0.55675329 
   22500    224.85737   -3.5971426    2912824.5   -539802.05    36334.638   -576136.69    27.978757   0.55674513 
   22600    225.12546  -0.65753365    2912527.5   -539722.28    36377.958   -576100.24    28.008788    0.5568019 
   22700    225.39916   -7.6647926    2912553.1    -539772.4    36422.186   -576194.59    27.998347     0.556797 
   22800    224.88477    2.5239681    2912677.2    -539686.1    36339.066   -576025.17    28.180031   0.55677329 
   22900    225.21226   -4.6860034    2912406.3   -539694.88    36391.985   -576086.87    28.220047   0.55682508 
   23000    225.13328    3.4807076    2912864.3   -539712.13    36379.222   -576091.35     28.37978   0.55673753 
   23100    225.14529   -8.0476022    2912508.8   -539723.75    36381.163   -576104.92    28.436879   0.55680547 
   23200    225.39814    4.0436045      2912456   -539698.02    36422.021   -576120.04    28.662823   0.55681557 
   23300     224.7906   -3.9275193    2912742.1   -539848.14    36323.849   -576171.99    28.818832   0.55676088 
   23400    225.13381     4.169737    2912765.9    -539794.5    36379.307   -576173.81     29.01949   0.55675632 
   23500      224.685    -6.948733    2912696.1   -539866.38    36306.785   -576173.17    29.214784   0.55676968 
   23600     225.1177   -12.726615    2912974.4   -539806.35    36376.704   -576183.06    29.113415   0.55671648 
   23700    225.05181    -6.890059    2912535.7   -539765.75    36366.057    -576131.8    29.340944   0.55680034 
   23800    225.05446   -4.3133779    2912655.7   -539781.07    36366.486   -576147.56    29.381912   0.55677739 
   23900    225.17466    5.9475055    2912506.4   -539782.49    36385.909    -576168.4    29.645063   0.55680593 
   24000    224.74853    -12.46201    2912944.1    -539845.8     36317.05   -576162.85    29.561961   0.55672227 
   24100    224.18654   -2.8596965    2912387.1   -539851.64    36226.238   -576077.88    29.716771   0.55682874 
   24200     225.1554    10.171888    2912365.5   -539770.75    36382.797   -576153.55    29.794287   0.55683287 
   24300    225.17187   -6.4134073    2912448.9   -539789.69    36385.458   -576175.14    29.867468   0.55681694 
   24400    224.66374    4.5849192      2912389   -539827.68     36303.35   -576131.03    30.005448   0.55682838 
   24500    224.81415    9.5542987    2912614.7   -539823.84    36327.653    -576151.5    30.030297   0.55678523 
   24600    224.71692    15.877912    2912697.1   -539832.08    36311.943   -576144.03    30.242156   0.55676948 
   24700     224.7789   -7.1492908      2912828   -539843.83    36321.958   -576165.79    30.396992   0.55674446 
   24800    224.98094    11.667052    2912685.7   -539799.25    36354.605   -576153.86    30.400489   0.55677167 
   24900    224.90571    8.0135657    2912725.9   -539775.99    36342.448   -576118.44    30.574859   0.55676397 
   25000    225.31793    12.335781    2912896.4   -539790.71    36409.059   -576199.77    30.570711   0.55673138 
   25100    224.73268   -6.5225982    2912714.3   -539724.25    36314.489   -576038.73    30.780997   0.55676618 
   25200    224.94689   0.36349326    2912732.7    -539708.1    36349.104    -576057.2    30.939678   0.55676267 
   25300    225.57705    -5.197819    2912897.9   -539663.22     36450.93   -576114.15    31.111442   0.55673111 
   25400    225.36521    3.3273044    2912784.1   -539703.23    36416.699   -576119.93    31.221773   0.55675285 
   25500    224.80077   -12.494206    2912740.5   -539725.47    36325.492   -576050.96    31.323814   0.55676119 
   25600    225.11774    6.3594653    2912318.6   -539743.94    36376.711   -576120.65    31.416366   0.55684185 
   25700    225.00594   -0.8709417    2912428.3   -539653.13    36358.646   -576011.78    31.449695   0.55682087 
   25800    225.06974   0.85414279    2912194.5    -539778.9    36368.955   -576147.86    31.655621   0.55686556 
   25900    224.63239    10.498689    2912282.4    -539779.7    36298.284   -576077.98    31.740779   0.55684876 
   26000    224.84628    1.4285276    2912486.4   -539760.19    36332.846   -576093.04    31.816556   0.55680976 
   26100    225.10348    2.2581966    2912424.7   -539714.71    36374.406   -576089.11    31.988763   0.55682156 
   26200    225.44903   -5.2845634    2912487.7    -539626.4    36430.244   -576056.64    32.094621    0.5568095 
   26300    225.20533    5.4217585    2912568.1   -539738.97    36390.865   -576129.84     32.19037   0.55679414 
   26400    225.06066   -8.1520426    2912349.8   -539764.99    36367.487   -576132.47     32.28909   0.55683587 
   26500    225.54925   -2.2115254    2912225.6   -539700.49    36446.439   -576146.93    32.360493   0.55685962 
   26600    224.88326   -3.0296342    2912276.4   -539732.47    36338.821   -576071.29     32.58811   0.55684992 
   26700    224.78289   -3.6080294    2912092.7    -539809.8    36322.602    -576132.4    32.624649   0.55688504 
   26800    224.86448   -1.1594919      2911818   -539855.56    36335.787   -576191.35    32.771355   0.55693757 
   26900    224.89023    15.480785    2912109.3   -539866.82    36339.947   -576206.77    32.979804   0.55688186 
   27000    224.96052    4.5021885    2912364.2   -539789.96    36351.305   -576141.27    32.959231   0.55683313 
   27100    224.97538    5.5061413    2912105.5    -539798.5    36353.707   -576152.21    32.982822    0.5568826 
   27200    224.54625    8.2898338    2912638.2   -539858.33    36284.365   -576142.69    33.181729   0.55678075 
   27300    224.49739   -4.5268499    2912283.4   -539864.11    36276.469   -576140.58    33.430381   0.55684858 
   27400    224.62056    11.207963      2912308   -539854.36    36296.371   -576150.73    33.434093   0.55684387 
   27500      224.787    5.4269247    2912414.4   -539881.18    36323.266   -576204.44    33.539108   0.55682353 
   27600    224.68176    7.0959429    2912572.1   -539822.12    36306.261   -576128.38    33.741614   0.55679337 
   27700     225.0503  -0.40909465    2911972.8   -539722.22    36365.813   -576088.04    33.740409   0.55690796 
   27800    224.79766    22.939527      2911814   -539724.32    36324.989   -576049.31    33.838326   0.55693833 
   27900    225.01061    14.001865    2912374.6   -539730.65      36359.4   -576090.05    34.058642   0.55683114 
   28000    225.03987   -17.015213    2912268.9   -539646.76    36364.129   -576010.89    34.118971   0.55685134 
   28100    225.17882      15.0608      2912372    -539669.6    36386.581   -576056.18    34.355442   0.55683162 
   28200    224.97302    4.2482061    2912318.9   -539766.34    36353.325   -576119.67    34.260825   0.55684179 
   28300    224.85372    2.5012022    2912201.8   -539697.01    36334.049   -576031.06    34.467054   0.55686418 
   28400    224.89051    15.801889    2912253.5   -539769.31    36339.993   -576109.31    34.548612   0.55685429 
   28500    225.28177    3.9323606    2912640.9   -539760.15    36403.217   -576163.36    34.697286   0.55678022 
   28600    224.97692   -4.8586599    2912390.6   -539803.04    36353.955      -576157    34.928018   0.55682808 
   28700      224.739    -11.04325    2912170.8   -539829.66    36315.511   -576145.17    34.997783   0.55687011 
   28800    225.41378    6.7391581      2912113   -539763.68    36424.548   -576188.22    35.134522   0.55688115 
   28900    225.09928     1.994308    2912073.1    -539746.6    36373.729   -576120.33    35.295033   0.55688878 
   29000    225.30403    15.041091    2912404.8   -539736.46    36406.813   -576143.27    35.345251   0.55682536 
   29100    225.09693   -12.730684      2912185   -539697.33    36373.348   -576070.67    35.405408   0.55686738 
   29200    225.35389    6.1011141    2912288.5   -539797.84     36414.87   -576212.71    35.531298    0.5568476 
   29300     225.1908    -7.957093    2912815.2   -539749.45    36388.518   -576137.97     35.64339   0.55674691 
   29400    225.20417    1.6079706      2912679   -539687.05    36390.677   -576077.73    35.624018   0.55677294 
   29500    225.31056    1.1728373    2912400.5      -539782    36407.868   -576189.87    35.834125   0.55682619 
   29600    224.92696   0.85487273    2912824.2   -539857.98    36345.882   -576203.87    35.987948   0.55674518 
   29700    224.82648    8.5703514      2912429   -539910.61    36329.647   -576240.25     35.93371   0.55682073 
   29800    225.39742    2.8886632    2912398.2    -539825.2    36421.904    -576247.1    36.222184   0.55682661 
   29900    224.98579    1.1008304    2912449.8   -539860.99    36355.389   -576216.38    36.318295   0.55681675 
   30000    224.90675   -3.8890596    2912361.6   -539854.87    36342.618   -576197.49    36.341196   0.55683361 
   30100    225.09097    9.3975739    2912549.1   -539873.68    36372.385   -576246.07    36.491651   0.55679778 
   30200    225.13097   -4.2220235    2912533.2   -539848.78    36378.848   -576227.63     36.69458   0.55680081 
   30300    225.27069   -3.3402657    2912401.7   -539861.35    36401.427   -576262.78    36.597115   0.55682595 
   30400    224.99114    1.6031715    2912639.5   -539860.46    36356.254   -576216.72     36.68336   0.55678048 
   30500    225.07678   -4.7198404    2912538.1   -539826.67    36370.092   -576196.77    36.680479   0.55679988 
   30600    225.20386   0.93670767    2912330.4   -539750.06    36390.627   -576140.68    36.823273   0.55683958 
   30700    225.33135    10.748771    2912712.8   -539771.27    36411.228    -576182.5    36.851574   0.55676648 
   30800    224.92644    7.2676228    2912534.4   -539772.42    36345.798   -576118.22    36.991238   0.55680059 
   30900    224.80535   -11.916214    2912544.5   -539761.93    36326.232   -576088.16    37.195567   0.55679864 
   31000    225.11229    17.644005    2912573.6    -539687.9    36375.831   -576063.73    37.243533   0.55679309 
   31100    224.94976    -5.481527    2912357.9   -539800.15    36349.567   -576149.72    37.280995   0.55683433 
   31200     224.5212    7.8122647    2912388.4   -539862.71    36280.316   -576143.03    37.326998    0.5568285 
   31300    225.10795    2.1461597    2912535.4   -539872.94    36375.129   -576248.07      37.3691   0.55680039 
   31400    224.73879   -3.1668014    2912177.3   -539846.86    36315.477   -576162.34    37.419828   0.55686885 
   31500     224.8838    9.3115764      2912252   -539800.44    36338.909   -576139.35    37.553139   0.55685458 
   31600    224.86113   0.99063087    2912258.8   -539705.87    36335.246   -576041.12    37.571507   0.55685327 
   31700    224.71009    3.5123815    2912341.6   -539805.78    36310.839   -576116.62    37.672087   0.55683745 
   31800    225.10597   -4.9692116    2912373.7   -539725.83    36374.809   -576100.64    37.887793   0.55683131 
   31900    224.88802    9.2558217    2912805.4    -539783.5     36339.59   -576123.09    38.134548   0.55674877 
   32000    225.44468    11.659746    2913029.1   -539736.34     36429.54   -576165.88    38.113312   0.55670602 
   32100    225.50544    2.9527267    2913004.4   -539672.17    36439.359   -576111.53    38.098075   0.55671075 
   32200    225.72539    5.5728691    2912964.9   -539701.66    36474.901   -576176.56    38.258109   0.55671829 
   32300    225.18401   -10.585143    2913128.4   -539766.92     36387.42   -576154.34    38.396111   0.55668706 
   32400    225.40722   -1.1963295      2912795   -539757.04    36423.489   -576180.53    38.584409   0.55675077 
   32500    225.07019    8.3789223    2913165.1   -539719.56    36369.027   -576088.59    38.609356   0.55668003 
   32600     225.1125    5.4514028    2913204.7   -539786.52    36375.864   -576162.38    38.682654   0.55667247 
   32700    225.35359   -17.235231    2913283.5   -539856.37    36414.822   -576271.19    38.872948   0.55665742 
   32800    225.66971    1.2739474    2913009.5   -539762.83    36465.903   -576228.73    38.949142   0.55670978 
   32900    225.35612     9.654345    2913047.8   -539815.54     36415.23   -576230.77    38.926149   0.55670245 
   33000    225.22994   -6.0622891    2913075.5   -539893.96    36394.842    -576288.8    39.057858   0.55669717 
   33100       224.75    3.1314637    2912939.8   -539930.67    36317.288   -576247.96    39.159411   0.55672309 
   33200    224.57466   -1.0913252    2912733.1   -539955.46    36288.954   -576244.42    39.102544   0.55676259 
   33300    225.02078    2.0329265      2913072   -539866.62    36361.043   -576227.66    39.221047   0.55669783 
   33400    224.84635   -1.5425023    2913473.6      -539902    36332.857   -576234.86    39.311146   0.55662108 
   33500    224.98413    1.4457625    2913056.1    -539867.4    36355.121   -576222.52     39.38285   0.55670086 
   33600    224.37603  -0.30623347    2912726.1   -539942.14    36256.859   -576198.99    39.374628   0.55676393 
   33700    224.91962    4.5920216    2912767.4   -539919.32    36344.696   -576264.02     39.58187   0.55675605 
   33800    225.01173    16.274421    2912929.1   -539863.55    36359.581   -576223.13    39.618994   0.55672514 
   33900    225.33172    5.9369328    2912879.7   -539819.23    36411.289   -576230.52    39.758361   0.55673458 
   34000    225.08207    6.8256177    2913180.5   -539820.45    36370.948    -576191.4    39.746969    0.5566771 
   34100    225.12317   -12.496354    2912764.9   -539856.34    36377.588   -576233.93    40.079345   0.55675653 
   34200    225.21088    2.7952204    2912407.2   -539835.43    36391.761   -576227.19    40.212112   0.55682491 
   34300     224.6369    3.8147499    2912323.2   -539846.62    36299.012   -576145.63    40.455562   0.55684097 
   34400    225.19233   -1.2232673    2912443.6   -539820.05    36388.763   -576208.82    40.410895   0.55681794 
   34500    225.25126    13.476402    2912817.6    -539880.7    36398.286   -576278.98    40.523163   0.55674645 
   34600    225.09809   -5.5666727    2913005.3   -539788.41    36373.536   -576161.95    40.525553   0.55671057 
   34700     225.3297   -1.1414909    2912528.1      -539822    36410.961   -576232.96     40.75903   0.55680178 
   34800     225.2689   -2.0819747    2912569.1   -539826.21    36401.136   -576227.34    40.791873   0.55679395 
   34900     225.1152    3.0708011    2912678.4   -539916.87      36376.3   -576293.17    40.979204   0.55677306 
   35000     225.2054    1.6704275    2912560.4    -539899.7    36390.876   -576290.58    41.185595   0.55679561 
   35100    225.10403   -6.9598899    2912644.8   -539949.83    36374.496   -576324.32    41.296888   0.55677947 
   35200    224.52231   -8.1534117    2912540.2   -540038.34    36280.496   -576318.84    41.307918   0.55679947 
   35300    224.64013   -3.2449359    2912426.7   -539956.07    36299.533    -576255.6    41.586691   0.55682117 
   35400    225.19631   -7.5864792    2912472.1   -539964.72    36389.407   -576354.12    41.481993   0.55681249 
   35500    225.00198   -9.6167924    2912730.9   -539957.41    36358.005   -576315.42    41.661793   0.55676301 
   35600    224.94176   -11.674408    2912539.2   -539916.76    36348.275   -576265.04    41.793098   0.55679966 
   35700    225.24486     10.72394    2912077.3   -539872.95    36397.253   -576270.21    41.769484   0.55688797 
   35800    224.86984    5.8489183    2912418.5   -539893.39    36336.652   -576230.05    42.002176   0.55682275 
   35900    225.06545  -0.63134992    2912285.6   -539869.78    36368.262   -576238.04    42.033307   0.55684815 
   36000    225.18816  -0.50273563    2912406.3   -539898.86    36388.091   -576286.95    42.274955   0.55682507 
   36100    225.45462     4.096359    2912606.9   -539810.44    36431.147   -576241.59     42.34974   0.55678672 
   36200    225.32564    2.1831571    2912492.8   -539750.96    36410.305   -576161.26    42.594839   0.55680854 
   36300    225.08205   -7.6035338    2912301.3   -539830.28    36370.944   -576201.23    42.681395   0.55684514 
   36400    225.29754    13.731602    2912332.3    -539876.3    36405.765   -576282.07    42.808423   0.55683922 
   36500    224.80894   -3.4474748    2912510.1   -539940.73    36326.812   -576267.55    43.003989   0.55680524 
   36600    224.96316   -6.7379207    2912632.2   -539887.58    36351.733   -576239.32    43.266655   0.55678189 
   36700    225.06427    7.4384646    2912531.5   -539821.65    36368.071   -576189.72    43.217153   0.55680114 
   36800    224.70229    7.3340107    2912348.4   -539978.31    36309.578   -576287.89    43.441227   0.55683614 
   36900    224.56723   -4.0971859    2912430.3   -539940.66    36287.755   -576228.42    43.414268   0.55682048 
   37000    224.70711     14.84544    2912356.2   -539897.39    36310.357   -576207.75    43.579436   0.55683466 
   37100    224.52958   -2.0558076    2912176.8   -539946.94     36281.67   -576228.61     43.77519   0.55686896 
   37200    225.30772     4.191179    2911934.5   -539873.23     36407.41   -576280.64     43.72172   0.55691528 
   37300    225.10392   0.89660883    2912368.9   -539837.51    36374.477   -576211.99    43.768069   0.55683223 
   37400    224.91756   -5.9984066    2912331.3   -539896.85    36344.364   -576241.22    43.839954   0.55683941 
   37500     225.3226    14.320662    2912578.9   -539891.06    36409.813   -576300.87    43.884921   0.55679207 
   37600    224.57784   -13.871867    2912203.2   -539945.74    36289.469   -576235.21    43.940289   0.55686391 
   37700    224.97288   -3.2213475    2912305.8   -539937.95    36353.303   -576291.26    44.092169   0.55684429 
   37800    224.92291    4.5733379      2912415   -539897.88    36345.228   -576243.11    44.251355    0.5568234 
   37900    225.16829    3.0021267    2912838.5   -539923.11    36384.879   -576307.99    44.392716   0.55674245 
   38000     224.9018   -3.7682287    2912534.4   -540038.71    36341.817   -576380.53    44.639426   0.55680058 
   38100    224.74671    1.8015145    2912509.5   -539996.14    36316.756    -576312.9     44.60141   0.55680534 
   38200    225.23143    10.517714    2912783.2   -539959.36    36395.082   -576354.45    44.635185   0.55675302 
   38300    225.51595   -6.8451418    2912778.3   -539887.04    36441.058    -576328.1    44.790863   0.55675396 
   38400    225.31385    8.5452334    2912324.7   -539859.05      36408.4   -576267.45    45.061666   0.55684068 
   38500     224.9297   -4.8490134    2912515.6   -539841.05    36346.326   -576187.38    45.126915   0.55680418 
   38600    224.92027    4.3174364    2912630.4   -539895.25    36344.802   -576240.05    45.201607   0.55678223 
   38700    224.92471    12.023357    2912830.4   -539899.38     36345.52    -576244.9    45.270563   0.55674401 
   38800    225.33196   -7.3124946    2913267.9    -539826.6    36411.326   -576237.92    45.320584   0.55666039 
   38900    225.31646     8.852556    2912931.4   -539842.92    36408.822   -576251.74     45.37832    0.5567247 
   39000     225.1418   -2.5791493    2912383.7   -539903.34    36380.598   -576283.94    45.415146    0.5568294 
   39100    224.94551    -2.246395    2912608.3   -539824.78     36348.88   -576173.66    45.515016   0.55678645 
   39200    225.11129    2.9110279    2912862.2   -539870.07    36375.669   -576245.74    45.665483   0.55673793 
   39300    225.08194   -1.0823574    2912459.7   -539832.42    36370.927   -576203.35    45.747444   0.55681486 
   39400    225.16867   -6.0159412    2912769.2   -539875.76    36384.942    -576260.7     45.97974    0.5567557 
   39500    225.00627    5.8119068    2912921.7   -539877.15    36358.698   -576235.85    46.128349   0.55672655 
   39600    224.91955    13.709219      2913253   -539851.07    36344.686   -576195.75    46.170225   0.55666324 
   39700    225.02223  -0.39261503    2912750.3   -539882.88    36361.278   -576244.15    46.291632   0.55675931 
   39800    225.21254   -1.8478494    2912864.2   -539860.66     36392.03   -576252.69    46.342592   0.55673755 
   39900     225.0979    -12.79095    2912699.3   -539814.18    36373.504   -576187.68    46.490378   0.55676906 
   40000    225.06699   -10.353357    2912748.7   -539931.51    36368.511   -576300.02    46.606339   0.55675961 
   40100    225.20919   -1.8847274    2913060.3   -539990.66    36391.489   -576382.15    46.633667   0.55670007 
   40200    224.97911   -10.528509      2912541    -539958.8    36354.309   -576313.11    46.798614   0.55679933 
   40300      225.369   -2.9983642    2912781.1   -539856.56    36417.312   -576273.87    46.943575   0.55675342 
   40400    225.44837    1.3624904    2913174.1   -539871.47    36430.138   -576301.61    46.784777   0.55667832 
   40500    224.75675   -2.6483754      2913040   -539909.37    36318.379   -576227.75    46.971182   0.55670394 
   40600     225.1038    8.8419969    2913040.4   -539746.47    36374.459   -576120.93    46.999355   0.55670387 
   40700    225.30107   -3.4713922    2912317.4   -539735.17    36406.336   -576141.51    47.115344   0.55684208 
   40800    225.11988     12.41589    2912273.2   -539801.93    36377.056   -576178.99    47.238063   0.55685052 
   40900    225.12464   -5.8920206    2912344.8   -539869.04    36377.826   -576246.87    47.315496   0.55683683 
   41000    225.21317   -3.8881275    2912758.2   -539896.35    36392.132   -576288.49     47.38002    0.5567578 
   41100    225.05128     9.407298    2912801.2   -539946.12    36365.972    -576312.1    47.308207   0.55674958 
   41200    224.97975    7.8279234    2912609.6   -539840.65    36354.413   -576195.06    47.647256   0.55678621 
   41300    225.08661    3.6833629    2912520.5   -539865.35    36371.681   -576237.03    47.770666   0.55680324 
   41400    225.19969    4.7758895      2912629   -539850.87    36389.953   -576240.82    47.909249   0.55678251 
   41500    224.65151  -0.94119181    2912740.5   -540073.08    36301.372   -576374.45    48.061371   0.55676118 
   41600     224.7626    3.4316549    2912691.1   -539982.56    36319.324   -576301.89    48.209286   0.55677063 
   41700    224.39713    7.6608473    2912794.7   -539939.53    36260.267   -576199.79     48.19723   0.55675083 
   41800    224.64088    5.4798606    2913054.8   -539883.44    36299.655    -576183.1     48.29043   0.55670112 
   41900     225.1242    4.9326547    2912614.3   -539833.82    36377.755   -576211.57    48.357875   0.55678532 
   42000    224.73534    13.165687    2912626.9   -539851.34    36314.918   -576166.26     48.31141   0.55678289 
   42100    225.02385   -6.9781389    2912711.2   -539826.97    36361.539   -576188.51    48.395252   0.55676678 
   42200    225.29299    3.9991305    2912981.4   -539814.41    36405.029   -576219.44    48.475493   0.55671515 
   42300    225.54037    8.5718378      2912988   -539801.69    36445.003   -576246.69    48.714829   0.55671388 
   42400    225.33336   -3.9621098    2912623.7    -539800.4    36411.553   -576211.95    48.790673   0.55678352 
   42500    225.19431     4.682867    2912876.4   -539769.75    36389.085   -576158.83    48.728434    0.5567352 
   42600    225.16683    2.7583643    2912783.5   -539808.44    36384.644   -576193.09    48.909815   0.55675296 
   42700    225.23226    4.3575846    2912719.4   -539840.79    36395.217      -576236    49.118913   0.55676522 
   42800    225.45319   -16.624784    2912591.4   -539785.37    36430.917   -576216.28    49.353245   0.55678968 
   42900    224.88247    10.196111    2912260.4   -539849.54    36338.694   -576188.23    49.266507   0.55685297 
   43000    225.65084    11.093113    2912422.1   -539769.88    36462.854   -576232.73    49.262426   0.55682205 
   43100    225.10047    14.293446    2912248.9   -539858.89     36373.92   -576232.81     49.37899   0.55685516 
   43200    225.03898   0.52860484    2912579.2   -539935.33    36363.984   -576299.31    49.605616   0.55679202 
   43300    224.99613   -18.233276    2912426.1   -539884.47     36357.06   -576241.53    49.692274   0.55682129 
   43400     225.3162    10.205852      2912375   -539822.28     36408.78   -576231.06     49.67528   0.55683105 
   43500     224.9561   -5.8256138    2912750.7    -539874.7    36350.592   -576225.29    49.927864   0.55675923 
   43600    225.05972 0.0015557833    2912590.3   -539788.13    36367.336   -576155.47    49.954224    0.5567899 
   43700    225.12318    4.5090599    2912484.8   -539772.26    36377.591   -576149.85    50.095811   0.55681007 
   43800    225.29644    3.6396353      2912464   -539674.98    36405.588   -576080.57    50.383606   0.55681403 
   43900    225.14743   -3.9301226    2912665.5   -539713.16    36381.509   -576094.67    50.262545   0.55677552 
   44000    225.47495   -2.6828817    2912803.3   -539668.04    36434.433   -576102.47    50.358824   0.55674918 
   44100    225.46868   -4.7852667    2912576.5   -539792.32     36433.42   -576225.74    50.632546   0.55679253 
   44200    225.21758    9.3462592    2912489.4   -539801.26    36392.845    -576194.1     50.80556   0.55680919 
   44300    225.24929   -3.0587912    2912535.3   -539869.11    36397.968   -576267.08    50.883244   0.55680042 
   44400    225.22748    4.6164049    2912622.6   -539866.18    36394.444   -576260.63    50.887283   0.55678373 
   44500    224.88069   -3.7781898    2912344.9   -539885.74    36338.406   -576224.15    50.950352   0.55683682 
   44600    225.08581    20.003296    2912853.9   -539868.94    36371.552   -576240.49    51.101232   0.55673951 
   44700    224.93217   -4.1836211      2912715   -539897.98    36346.725    -576244.7    51.243992   0.55676605 
   44800    224.77797    2.3864018      2912505   -539966.15    36321.807   -576287.96    51.567777    0.5568062 
   44900    224.93545    -14.79011    2912415.8   -539969.67    36347.255   -576316.92    51.681662   0.55682325 
   45000    225.12398    7.4620644    2912671.6    -539895.4     36377.72   -576273.12    51.628356   0.55677435 
   45100    225.49753   -15.887478    2912582.4   -539850.56    36438.081   -576288.64    51.835901    0.5567914 
   45200    224.99649   -6.3624154    2912264.7    -539815.5    36357.118   -576172.62    51.881509   0.55685215 
   45300    225.11088    16.282681    2912440.2   -539787.85    36375.603   -576163.45    52.072453    0.5568186 
   45400    225.11008   -3.2920808    2912688.8   -539833.73    36375.473    -576209.2    52.134358   0.55677106 
   45500    225.50185    10.311237    2912441.9   -539851.08    36438.779   -576289.86     52.43739   0.55681827 
   45600    225.12217   -4.9993275    2912415.2    -539855.4    36377.427   -576232.82    52.383794   0.55682337 
   45700    225.04944   -7.2945268    2912413.7   -539842.57    36365.674   -576208.25    52.483638   0.55682366 
   45800    224.87697  -0.41590758    2912255.4   -539860.79    36337.806    -576198.6    52.735376   0.55685392 
   45900    224.87584    -2.916404    2912016.2   -539793.95    36337.622   -576131.57    52.873681   0.55689966 
   46000    225.14855    11.953115    2912446.4   -539774.79    36381.689   -576156.48    52.840244    0.5568174 
   46100    225.14819   -4.3057477      2912161    -539687.7    36381.631   -576069.33    53.088177   0.55687197 
   46200    225.41506  -0.88769231    2912118.3   -539629.89    36424.755   -576054.64    53.007235   0.55688014 
   46300    225.36432   -0.3090921    2911980.9   -539596.38    36416.556   -576012.93    53.143973   0.55690642 
   46400    225.64015    7.0093329      2912596   -539567.76    36461.127   -576028.89    53.313338   0.55678881 
   46500    225.79304   -9.3989889    2912351.6   -539592.31    36485.832   -576078.14      53.4221   0.55683553 
   46600    225.43162    6.6952856    2912117.6   -539657.53     36427.43   -576084.96     53.44451   0.55688027 
   46700     225.5762    -1.731201    2912282.3   -539672.11    36450.793    -576122.9    53.487446   0.55684879 
   46800    225.59635   0.97917682    2912311.3   -539686.06    36454.049   -576140.11    53.656085   0.55684324 
   46900    224.97376   -8.9410495    2911831.4   -539761.62    36353.446   -576115.07    53.760996   0.55693501 
   47000    225.24053    8.3867452    2911701.4   -539827.34    36396.553   -576223.89    53.920789   0.55695988 
   47100    225.35153   0.06463531    2912068.1   -539781.35    36414.488   -576195.84    54.046608   0.55688974 
   47200    225.15421    4.9545847    2912336.7   -539752.15    36382.605   -576134.76    54.269562   0.55683838 
   47300    225.63734    6.1839395    2912446.9   -539722.15    36460.673   -576182.82    54.114607   0.55681732 
   47400     225.5644   -12.176748    2912598.8   -539839.55    36448.887   -576288.44    54.278203   0.55678827 
   47500    225.47754    2.8300812    2912126.6   -539855.87     36434.85   -576290.72    54.401472   0.55687855 
   47600    225.29576    4.8017128    2912121.6   -539808.75    36405.477   -576214.23    54.541417    0.5568795 
   47700    225.59765    10.234844    2912117.8   -539730.49     36454.26   -576184.75    54.656996   0.55688024 
   47800    225.65054   0.35265742    2911925.6   -539671.34    36462.805   -576134.14    54.567672   0.55691698 
   47900    224.81517   -17.223809    2912074.9   -539715.43    36327.818   -576043.24    54.784813   0.55688844 
   48000    225.54947     0.872942    2912130.2   -539695.24    36446.474   -576141.72    55.082256   0.55687787 
   48100    224.99102   -5.4885783    2912261.7    -539820.4    36356.235   -576176.63     55.16365   0.55685271 
   48200    225.14307   -15.748633    2912314.7   -539842.62    36380.804   -576223.43    55.110102   0.55684259 
   48300     225.5691    5.7092196    2912388.8   -539844.24    36449.646   -576293.89    55.236394   0.55682842 
   48400    224.82831   -3.6462667    2912205.3   -539863.65    36329.942   -576193.59    55.210502   0.55686351 
   48500    225.12591     16.50002    2912055.4   -539860.48    36378.031   -576238.51    55.494096   0.55689217 
   48600    225.42622   -0.4250488    2912022.2   -539819.16    36426.558   -576245.72    55.378124   0.55689851 
   48700    225.08152   -2.1109257    2912500.4   -539891.89    36370.859   -576262.75    55.533062   0.55680709 
   48800    225.04867  -0.69413982    2912187.8   -539862.97     36365.55   -576228.52    55.636142   0.55686686 
   48900    224.95744   -10.895768    2911846.1   -539829.13    36350.809   -576179.94    55.866753   0.55693219 
   49000    225.01499   -4.2498351    2911635.8   -539848.04    36360.108   -576208.15    56.002049   0.55697243 
   49100    225.05557    9.9135985      2911900   -539832.41    36366.664   -576199.07    56.044322   0.55692189 
   49200    225.29936   -7.8381844    2911870.2   -539915.34    36406.059    -576321.4    56.338495    0.5569276 
   49300    224.86271      7.66174    2912177.4   -539891.41    36335.501   -576226.91    56.322679   0.55686884 
   49400    225.01576    4.9521899    2912413.4   -539956.61    36360.232   -576316.84    56.378577   0.55682371 
   49500    225.24948     4.532009    2912435.3    -539881.3    36397.999    -576279.3     56.63753   0.55681953 
   49600    225.54662   -5.2661086    2912395.5   -539860.52    36446.014   -576306.54    56.685687   0.55682713 
   49700    225.45802   -3.2945054    2912277.3   -539905.07    36431.697   -576336.76    56.753762   0.55684974 
   49800    225.12768   -5.6812401    2911987.4   -539901.35    36378.318   -576279.67    56.799077   0.55690517 
   49900     225.5542   -2.0526218    2912044.7   -539926.21    36447.238   -576373.45    56.942952   0.55689422 
   50000    224.99294    8.9157532    2912542.5   -539968.13    36356.544   -576324.68    56.959449   0.55679903 
   50100    225.92776   -5.7690743    2912467.6   -539865.56    36507.602   -576373.16    57.039908   0.55681334 
   50200    225.09655    7.0213996    2912554.3    -539904.7    36373.287   -576277.99    57.171526   0.55679678 
   50300    224.90087    3.0706361    2912440.8   -539914.52    36341.667   -576256.19    57.162346   0.55681847 
   50400     225.1067     5.879465    2912239.1   -539978.16    36374.927   -576353.09    57.336021   0.55685704 
   50500    225.19728  -0.91056084    2911997.5   -539957.59    36389.565   -576347.16     57.44159   0.55690325 
   50600    225.26407    6.3569571    2912542.7   -539987.16    36400.356   -576387.52    57.487867     0.556799 
   50700    225.14817   -4.0521924    2912157.1    -540065.3    36381.628   -576446.92    57.598069   0.55687272 
   50800    224.54464    1.9791527    2912123.5   -540081.01    36284.104   -576365.11     57.62756   0.55687915 
   50900    225.00738    3.0920289    2912510.8   -540081.69    36358.878   -576440.57    57.599624   0.55680509 
   51000    225.12126   -8.7325112    2912231.2   -540074.05    36377.279   -576451.33    57.829409   0.55685855 
   51100    224.71451    1.5426009      2912497   -539952.88    36311.553   -576264.43    57.884745   0.55680773 
   51200    225.50889   -15.813826      2912496   -540004.68    36439.917    -576444.6    57.962395   0.55680792 
   51300      224.898  -0.34866723    2912223.4   -540050.93    36341.203   -576392.13     58.11962   0.55686004 
   51400    224.85534    7.4021721    2911896.3   -540004.51     36334.31   -576338.82    58.178254    0.5569226 
   51500    224.70673   -3.8473593    2911914.4   -540074.04    36310.297   -576384.34    58.312568   0.55691914 
   51600    224.54991    2.2446228    2912360.2   -540048.45    36284.956    -576333.4    58.288518   0.55683388 
   51700    224.66167   -1.4611015    2912315.1   -540061.06    36303.015   -576364.07    58.314998    0.5568425 
   51800    225.26605   -19.590692    2912287.4   -539946.55    36400.676   -576347.23     58.43594   0.55684781 
   51900      225.269    19.069575    2911875.6   -539985.51    36401.154   -576386.66    58.565684   0.55692655 
   52000    224.97869    4.6539792    2911858.2    -540020.4    36354.243   -576374.64    58.530478   0.55692988 
   52100    224.38547    7.5777139    2912005.7   -540076.17    36258.384   -576334.55    58.632616   0.55690167 
   52200     224.6378    2.6657554    2911877.2   -540123.65    36299.157   -576422.81    58.816724   0.55692625 
   52300    225.28032    -6.784184      2912049   -540045.86    36402.982   -576448.84    58.832316   0.55689339 
   52400     225.2379    11.727791    2912418.4   -540110.98    36396.127    -576507.1    59.073806   0.55682276 
   52500    225.00216    9.5625809    2912538.4   -540120.73    36358.034   -576478.76    59.143754   0.55679981 
   52600    225.42063   -6.9128697    2912520.4   -540068.76    36425.655   -576494.41    59.096743   0.55680325 
   52700     224.9521   -6.4184684    2912229.9   -540066.92    36349.946   -576416.86    59.134099    0.5568588 
   52800    225.01624    6.2115417    2912239.5   -540085.37     36360.31   -576445.68    59.141645   0.55685696 
   52900    224.99741   -1.3918742    2912540.8   -540122.63    36357.267    -576479.9    59.320663   0.55679935 
   53000    224.76844  -0.84169562    2912361.1   -540060.12    36320.267   -576380.39    59.394774   0.55683371 
   53100    225.16243    3.4437552    2912334.7   -540028.45    36383.933   -576412.38    59.413224   0.55683876 
   53200      224.955     -3.82966    2912256.6   -540009.75    36350.414   -576360.17    59.420569   0.55685369 
   53300    225.37763    12.325613    2912069.4   -540045.35    36418.706   -576464.06    59.507542   0.55688949 
   53400     225.0792    4.3947784      2911888    -540044.5    36370.483   -576414.99    59.587923   0.55692419 
   53500    225.14855   -2.5142964    2911962.6   -540036.76     36381.69   -576418.45    59.502388   0.55690991 
   53600    224.85764    15.069664    2912169.1   -540117.12    36334.682    -576451.8    59.572984   0.55687043 
   53700    224.45903    5.3914925    2912133.8   -540149.27     36270.27   -576419.54    59.729828   0.55687718 
   53800    225.21763   -6.2422544    2912096.6   -540110.69    36392.852   -576503.55    59.860688   0.55688428 
   53900    224.79356    3.2683098    2912060.3   -540126.24    36324.327   -576450.57    59.879542   0.55689124 
   54000    224.87522  -0.81925573    2911766.8   -540006.57    36337.522   -576344.09    59.960815   0.55694737 
   54100    225.18968    8.1604474    2912494.7   -540080.58    36388.336   -576468.91    60.028135   0.55680817 
   54200    224.76491    -6.067453    2912402.3   -540059.95    36319.698   -576379.64    60.264612   0.55682583 
   54300    224.79051   -1.7189062    2912344.4   -540077.09    36323.834   -576400.92    60.398403   0.55683691 
   54400    224.92769   -1.8747121    2912232.2   -540039.68        36346   -576385.68    60.455243   0.55685836 
   54500    225.17925   -10.031628    2911983.8   -539990.36     36386.65   -576377.01    60.627099   0.55690587 
   54600    225.24342   -2.1055947    2911874.1   -540047.47    36397.019   -576444.48    60.475891   0.55692685 
   54700    224.88599    15.026909    2912087.8   -540039.46    36339.263   -576378.72     60.67077   0.55688597 
   54800     225.5067   -5.8708426    2912433.6   -539948.27    36439.562   -576387.83     60.66289   0.55681985 
   54900    225.40452   -5.2408604    2911911.1   -539968.54    36423.051   -576391.59    60.876358   0.55691976 
   55000    225.00745    9.7966433    2911884.1   -540052.47    36358.889   -576411.36    60.907829   0.55692492 
   55100    224.95267    9.0069734    2912017.5   -540117.58    36350.038   -576467.61    61.226362   0.55689941 
   55200    224.71056    5.8057135    2912149.9   -540161.86    36310.915   -576472.78    61.206024    0.5568741 
   55300    225.23992    12.442444    2911893.4   -540109.73    36396.454   -576506.18    61.405826   0.55692315 
   55400    224.80251   -2.8582135    2912043.5   -540119.57    36325.774   -576445.34    61.504515   0.55689445 
   55500    225.20052   -11.314947    2912449.6   -540046.99    36390.087   -576437.07    61.472298   0.55681679 
   55600     225.1536    2.4581245    2912211.3   -540025.85    36382.506   -576408.36    61.550799   0.55686235 
   55700    225.29677   -1.1694958    2912388.6   -539915.86     36405.64    -576321.5    61.744263   0.55682845 
   55800    225.27148  -0.47266396    2912694.4   -539940.97    36401.554   -576342.53    61.882552   0.55676999 
   55900    225.14897   -9.6615401    2912129.7   -539951.17    36381.758   -576332.93    61.959393   0.55687796 
   56000    225.06222    4.8895006    2912425.7   -539985.97    36367.739   -576353.71    61.968188   0.55682136 
   56100     225.1378    3.2529695    2912490.7   -539959.73    36379.952   -576339.68    62.096468   0.55680893 
   56200    224.92942    5.5281078    2912125.5   -539961.63     36346.28   -576307.91    62.195609   0.55687876 
   56300    224.89779     7.521483    2912130.5   -539887.94     36341.17   -576229.11    62.318397    0.5568778 
   56400    225.37047    1.9673953    2912107.8   -539895.24     36417.55   -576312.79    62.520082   0.55688216 
   56500    225.17757    13.422678    2912009.3   -539932.92    36386.379    -576319.3    62.545802   0.55690098 
   56600    225.04793    9.2343756    2912239.4   -539905.55     36365.43   -576270.98    62.527674   0.55685699 
   56700    225.15885      10.6061    2912454.8   -540014.04    36383.353    -576397.4    62.791686    0.5568158 
   56800    224.97709    3.0193233    2912250.5   -540046.25    36353.984   -576400.23    62.899926   0.55685486 
   56900    224.74807  -0.79294828    2912427.8   -540085.54    36316.977   -576402.52    62.960458   0.55682097 
   57000      224.856    5.5049254    2912389.7   -540003.12    36334.416   -576337.54    63.029158   0.55682824 
   57100    225.01291   -4.0997494    2912277.7   -539935.66    36359.771   -576295.43    62.945029   0.55684966 
   57200    225.40815    7.2724175    2912272.1   -539889.39    36423.639   -576313.03    63.047767   0.55685074 
   57300    224.92579    11.553395      2912104   -539961.35    36345.693   -576307.04    63.281608   0.55688288 
   57400     224.7653  -0.96746148    2912310.5   -540019.16    36319.761   -576338.92    63.386953   0.55684339 
   57500    225.14775   -4.3835988    2912743.6   -540065.41    36381.561   -576446.97    63.432075   0.55676058 
   57600    224.82347    2.0586496    2912449.4   -540077.73     36329.16   -576406.89    63.611313   0.55681684 
   57700    224.72211    -5.540498    2912313.1   -540143.43    36312.781   -576456.21    63.646196   0.55684289 
   57800    225.07557  0.088674746    2912312.7   -540103.05    36369.897   -576472.94    63.622901   0.55684297 
   57900    224.77548    9.5920406      2912332   -540129.89    36321.405   -576451.29    63.714675   0.55683927 
   58000    224.39356    1.2154941    2912545.6   -540175.53     36259.69   -576435.22    63.805738   0.55679845 
   58100    224.21357  0.058216299      2912538   -540146.66    36230.606   -576377.26    63.994095    0.5567999 
   58200    225.12541    1.7096224    2912771.1   -540129.23     36377.95   -576507.18    63.810024   0.55675534 
   58300    225.01653    2.0608436    2912874.7   -540055.41    36360.357   -576415.77    64.003732   0.55673554 
   58400    225.17458    5.2464786    2912323.3   -540001.33    36385.896   -576387.22    64.039172   0.55684095 
   58500    225.21048    5.1325173    2912289.3   -539943.27    36391.696   -576334.97    64.181871   0.55684745 
   58600    224.94234    -11.31275    2912399.6   -539943.07    36348.369   -576291.43    64.189282   0.55682635 
   58700    224.51759   -1.7767515    2911809.5   -539956.32    36279.732   -576236.05    64.503668    0.5569392 
   58800    225.05909    2.0819608    2912085.3    -539877.1    36367.234   -576244.34    64.636384   0.55688645 
   58900    225.36437   -2.7675515    2912269.8    -539913.8    36416.564   -576330.37    64.602437   0.55685118 
   59000      225.022   -2.6696841    2912134.4   -539964.54     36361.24   -576325.78     64.66575   0.55687705 
   59100    225.01703    4.5113515      2912241   -539975.82    36360.437   -576336.25     64.75329   0.55685668 
   59200    224.97975    1.9833069    2912179.1   -539961.22    36354.413   -576315.64    64.907698   0.55686851 
   59300    224.65996     10.39726      2912080   -539982.32    36302.738   -576285.06    64.904184   0.55688746 
   59400    224.82829   -11.235315    2912406.3   -539985.43    36329.939   -576315.37    64.896538   0.55682507 
   59500    225.29862  -0.74078792    2912444.4   -539945.84     36405.94   -576351.78    65.059237   0.55681778 
   59600    225.07487  -0.19757368    2912084.2   -540019.59    36369.783   -576389.37    65.114764   0.55688667 
   59700    224.91832   -2.7029267    2912028.8    -539973.3    36344.486   -576317.79    65.195363   0.55689725 
   59800    224.83145    3.7108375      2912274   -539961.34    36330.449   -576291.79      65.3125   0.55685036 
   59900    224.98518  -0.58449397      2912498   -540001.77     36355.29   -576357.06    65.282347   0.55680754 
   60000    224.72898    3.0513554    2912412.9    -539995.4    36313.891   -576309.29     65.37022   0.55682381 
   60100    225.43839    8.8345947    2912283.3    -539949.4    36428.525   -576377.93    65.351072    0.5568486 
   60200    224.83724    1.1743012    2912277.9   -540030.42    36331.384    -576361.8    65.533852   0.55684962 
   60300    224.98154     2.555261    2912640.3   -539967.69    36354.703   -576322.39     65.66015   0.55678034 
   60400    224.82513    5.2550024    2912539.2   -539923.83    36329.428   -576253.25     65.82894   0.55679967 
   60500    225.58363   -9.7881705    2912166.5   -539903.97    36451.995   -576355.96    65.894086   0.55687092 
   60600    225.46036    6.5210253    2912233.6   -539828.61    36432.075   -576260.69    65.915873   0.55685809 
   60700    225.02767   0.99499032    2912669.3   -539886.95    36362.157   -576249.11     65.85047   0.55677479 
   60800    225.18526   -5.7072073    2912060.5   -539976.95    36387.622   -576364.58    66.033392    0.5568912 
   60900    224.91972    3.0382226    2911867.7   -540001.87    36344.713   -576346.59    66.174614   0.55692806 
   61000    225.03582   -1.0115796    2911880.4   -539943.27    36363.474   -576306.75    66.372448   0.55692564 
   61100    225.46099   0.24362141      2912153   -539932.78    36432.177   -576364.96    66.373299   0.55687351 
   61200    225.31333   -5.4365032    2912105.3   -540021.09    36408.317   -576429.41     66.48974   0.55688263 
   61300    224.81177    2.9048169    2912609.9   -540065.62    36327.269   -576392.89    66.455217   0.55678614 
   61400    224.83085   -5.0102278    2912598.2   -540065.71    36330.353   -576396.07    66.719279   0.55678838 
   61500    225.21177   -15.406155    2912179.1   -540031.42    36391.905   -576423.33    66.755343   0.55686852 
   61600    224.97764   0.29208253    2912256.6   -540093.49    36354.071   -576447.56    66.895991    0.5568537 
   61700    224.84686    3.2189096    2912660.7   -540081.66     36332.94    -576414.6    66.901769   0.55677644 
   61800    225.01976     3.318375    2912697.5   -540033.22    36360.878    -576394.1    67.127904   0.55676941 
   61900    224.91696   -9.8492785    2911988.8   -540113.09    36344.266   -576457.35    67.156161   0.55690491 
   62000    224.72121   -4.4972131    2912211.2   -540211.02    36312.636   -576523.66    67.436495   0.55686238 
   62100    224.96938    5.2580943    2912514.6   -540146.01    36352.738   -576498.75    67.606883   0.55680437 
   62200    225.00262     4.545942    2912929.4   -540107.13    36358.108   -576465.24    67.459843   0.55672508 
   62300     224.5421   -9.9623915    2912605.6   -540127.93    36283.693   -576411.62    67.482814   0.55678697 
   62400    225.09581    2.8544018    2912657.6   -540057.24    36373.168   -576430.41    67.723637   0.55677703 
   62500    224.99895    1.8163796    2912814.6   -540082.11    36357.515   -576439.63    67.626975   0.55674702 
   62600    225.03579   -5.7973345      2912688   -540009.48    36363.468   -576372.95    68.014343   0.55677122 
   62700    224.76096  -0.78222981    2912645.3   -540014.69    36319.058   -576333.75    68.175796   0.55677938 
   62800    224.65287   -2.4911393    2912768.1   -540002.17    36301.593   -576303.76    68.269579   0.55675591 
   62900    225.11815   -8.1822602    2912703.2   -540038.78    36376.777   -576415.55    68.300096   0.55676832 
   63000    224.95663    4.7461942    2912492.9   -540029.66    36350.677   -576380.34    68.333155   0.55680851 
   63100    225.48202   -3.5833708    2912295.9   -539958.28    36435.575   -576393.86    68.470467   0.55684619 
   63200    225.50102   0.97890947    2912295.9   -539925.32    36438.646   -576363.96    68.559585   0.55684618 
   63300    225.69702    1.8850585    2912750.9   -539881.51    36470.317   -576351.82    68.559951   0.55675919 
   63400    225.22547 -0.092085843    2912560.4   -539935.14    36394.119   -576329.26    68.649628   0.55679561 
   63500    224.92823    7.1166629    2912383.4   -539953.86    36346.088   -576299.95    68.832766   0.55682945 
   63600    225.48538   0.85246047    2912713.2   -539868.44    36436.118   -576304.56    68.909155    0.5567664 
   63700    225.14133  -0.94994783    2912491.7   -539973.09    36380.523   -576353.61    68.884813   0.55680875 
   63800    225.07994    -5.302444    2912387.8   -539970.26    36370.603   -576340.86    68.863289   0.55682861 
   63900    224.88481   -5.9466944    2912439.7   -539982.27    36339.072   -576321.34    68.871755   0.55681868 
   64000      224.689   -2.3432097    2912600.1   -540109.69     36307.43   -576417.12    68.999038   0.55678801 
   64100    224.43643   0.57567321    2912552.2    -540103.8    36266.619   -576370.41     69.10521   0.55679718 
   64200    225.16101   -1.7644725    2912513.3   -540103.53    36383.703   -576487.23    69.124334   0.55680461 
   64300    225.01401   -0.7421768    2912362.4   -540006.14    36359.949   -576366.09    69.204236   0.55683347 
   64400    225.13595     -8.91973    2912373.4    -540000.7    36379.654   -576380.35    69.436625   0.55683136 
   64500    225.65699     14.98622    2912551.8   -539862.84    36463.848   -576326.69    69.370113   0.55679726 
   64600     225.1202   -8.1737633    2912136.8   -539892.05    36377.109   -576269.16    69.602369    0.5568766 
   64700    225.21927   -2.5418718    2912204.6   -539875.47    36393.118   -576268.58    69.630751   0.55686363 
   64800    224.87129   -4.5393116    2911949.8   -539940.97    36336.887   -576277.86    69.630698   0.55691236 
   64900    224.67312   -8.1054491    2911880.3   -539962.46    36304.864   -576267.33    69.704082   0.55692565 
   65000     224.9755     1.116455      2912332   -539941.22    36353.727   -576294.95    69.705861   0.55683927 
   65100    225.33607    13.267189    2912207.3   -539888.45    36411.992   -576300.44    69.734836   0.55686313 
   65200    224.79198    3.4897325    2912544.9   -539867.92    36324.071   -576191.99    69.923618   0.55679857 
   65300    225.10579   -3.4900287    2912246.4   -539902.35     36374.78   -576277.13    70.059218   0.55685564 
   65400    225.33206   -2.9684158      2912254   -539859.73    36411.343   -576271.07    70.054263   0.55685419 
   65500    225.18293   -1.1212373    2912367.8    -539868.5    36387.245   -576255.75    70.361174   0.55683244 
   65600    225.37567    -1.313635      2912346   -539775.75     36418.39   -576194.14    70.389304   0.55683661 
   65700    224.84779   -11.964381    2912420.1   -539852.21     36333.09    -576185.3    70.394736   0.55682244 
   65800    224.85186    2.2997519      2912655   -539863.61    36333.747   -576197.36    70.492532   0.55677753 
   65900    224.84646    4.3031226    2912337.7   -539939.62    36332.874    -576272.5     70.76805   0.55683819 
   66000    224.83147   -0.8814435    2912514.3   -539963.17    36330.452   -576293.62    70.969193   0.55680442 
   66100    224.76452   -6.8394383    2912137.6   -539917.02    36319.634   -576236.65    70.932615   0.55687646 
   66200    225.35816    3.9420375    2912403.3   -539792.38     36415.56   -576207.94    71.135582   0.55682565 
   66300    225.11371    9.1507965    2912713.3   -539745.03     36376.06   -576121.09    71.170645   0.55676638 
   66400    225.45512  -0.96067451    2912422.9   -539712.02    36431.228   -576143.25    71.489471    0.5568219 
   66500    225.17868   -6.2277481    2912211.5    -539728.7    36386.558   -576115.26    71.485417   0.55686232 
[...]
   85000    224.89347  -0.66148566    2912015.4   -540050.28    36340.471   -576390.75     86.05919   0.55689982 
   85100    224.92029    7.4655542    2912321.4   -540037.48    36344.805   -576382.28    86.319717   0.55684131 
   85200    225.05663   -3.9361656    2912094.9   -539981.09    36366.837   -576347.93    86.228031   0.55688463 
   85300    225.00522   -3.8275569    2912499.3   -539975.36    36358.529   -576333.89    86.395009   0.55680729 
   85400    224.94561   -6.5451005    2912355.6   -539976.44    36348.897   -576325.33    86.286399   0.55683477 
   85500    224.66841    -12.87201    2911913.8   -540013.25    36304.103   -576317.36    86.645759   0.55691925 
   85600    224.66418   0.40478578    2911854.9   -540004.99     36303.42   -576308.41    86.855062   0.55693051 
   85700    224.97378   0.97779576    2912058.1   -539928.05    36353.448    -576281.5    86.961441   0.55689166 
   85800    225.06682     -10.6354    2912314.1   -539922.52    36368.484   -576291.01    87.022047   0.55684271 
   85900    225.30581   0.97074752    2912094.7   -539971.55    36407.102   -576378.65     87.26333   0.55688466 
   86000    224.88981    11.008117    2912213.2      -539979    36339.879   -576318.87     87.30142     0.556862 
   86100    225.05041   -9.7372395    2912117.4   -539875.86    36365.831    -576241.7    87.476948   0.55688031 
   86200    225.30848   -9.4434437    2911847.4    -539896.8    36407.533   -576304.33    87.487865   0.55693195 
   86300    224.86966   -3.7228002    2911879.2    -539939.6    36336.623   -576276.23    87.538887   0.55692587 
   86400    225.36139     4.856074      2911991   -539891.32    36416.082    -576307.4    87.470198   0.55690449 
   86500    225.18911    4.6469286      2912109   -539938.91    36388.244   -576327.16    87.319401   0.55688192 
   86600    225.24288   -12.120698    2911981.9   -539980.91    36396.932   -576377.84     87.44583   0.55690624 
   86700    225.09042    1.9324376      2911822   -539949.61    36372.296   -576321.91    87.478757   0.55693681 
   86800    225.52264    1.7505984    2912038.8   -539888.08    36442.138   -576330.22    87.725067   0.55689535 
   86900    225.27835   -10.422786    2912055.3   -539848.45    36402.664   -576251.11    87.746891   0.55689219 
   87000    225.13923   -4.2848882    2911953.3   -539926.29    36380.183   -576306.47    87.818618   0.55691169 
   87100    225.32731   0.35540104    2912045.5   -539872.47    36410.576   -576283.05     87.78232   0.55689407 
   87200     225.7047   -9.3165647    2912258.3    -539871.2    36471.558   -576342.76     87.95416   0.55685338 
   87300    225.20064    4.5733378    2912030.1   -539940.24    36390.107   -576330.35    88.062007   0.55689701 
   87400    225.01143   -2.1434628    2912189.4   -539934.39    36359.533   -576293.93    88.105843   0.55686655 
   87500    224.88679    12.538573    2911674.3   -539959.41    36339.392   -576298.81    88.266711   0.55696506 
   87600    224.82613   0.56567188      2912281   -539952.54     36329.59   -576282.13    88.290437   0.55684904 
   87700    225.23041   0.85550607    2912124.7   -539929.46    36394.917   -576324.38    88.500772   0.55687891 
   87800    225.05951   -3.8254692    2912232.8   -539948.93    36367.301   -576316.24    88.778475   0.55685825 
   87900     224.9015    1.1216325    2912238.9    -539964.8    36341.768   -576306.57    88.769774   0.55685707 
   88000    224.88024    1.7608132    2912587.3   -539962.41    36338.334   -576300.75    88.963823   0.55679047 
   88100    224.64529    3.3441703    2912216.1   -539983.09    36300.369   -576283.45    89.151501   0.55686144 
   88200     224.9724    7.9392375    2912602.7   -539999.39    36353.226   -576352.62    89.065503   0.55678753 
   88300    224.68271    -4.553677    2912113.8   -539940.05    36306.415   -576246.47    89.203823   0.55688101 
   88400    225.26699    7.5666375    2912325.8   -539880.45    36400.828   -576281.28    89.065304   0.55684047 
   88500    225.03852    7.7049345    2912635.1   -539962.04    36363.909   -576325.95      89.2313   0.55678133 
   88600    224.75754    6.6256988    2912130.6   -540089.77    36318.507   -576408.27    89.476835   0.55687779 
   88700     225.0622    4.1151385    2912458.3   -539984.64    36367.737   -576352.37    89.461606   0.55681513 
   88800    225.46491    13.908808    2912459.9   -539963.46     36432.81   -576396.27    89.759368   0.55681482 
   88900    224.87421   0.33600634    2912470.5   -539938.87    36337.358   -576276.22    89.997253    0.5568128 
   89000    225.67689    -0.983646      2912386   -539881.73    36467.065   -576348.79    90.173873   0.55682895 
   89100    225.50514   -1.8817511    2912401.5    -539929.8    36439.311   -576369.11    90.221006   0.55682598 
   89200    225.34413   -5.2062781    2912654.4   -539916.24    36413.294   -576329.53    90.173776   0.55677765 
   89300    224.93406  -0.72117935    2912214.1   -540050.69     36347.03   -576397.72    90.174533   0.55686183 
   89400    225.07651   0.47348807    2912132.7   -540063.66    36370.048   -576433.71    90.215331    0.5568774 
   89500    224.69021     27.42396    2912535.1   -540121.98    36307.626   -576429.61    90.321401   0.55680045 
   89600    225.08732   -7.7476706    2912630.5   -540165.25    36371.795   -576537.04    90.370084   0.55678222 
   89700    224.32754    1.9626254    2912385.2   -540210.64    36249.023   -576459.66    90.438405   0.55682912 
   89800     224.4833   0.69274872    2912571.6    -540229.3    36274.191   -576503.49    90.488419   0.55679348 
   89900    224.82569     -2.96349    2912615.4   -540172.16    36329.519   -576501.68    90.548339   0.55678511 
   90000    224.94916    11.122977    2912707.9   -540111.21    36349.471   -576460.68     90.54303   0.55676742 
   90100    224.51809   -8.4982859    2912544.4   -540191.16    36279.814   -576470.98    90.560857   0.55679867 
   90200    224.89583    7.6097878      2912760    -540079.9    36340.852   -576420.75    90.760572   0.55675746 
   90300    224.89301    5.9850656    2912540.2   -540081.49    36340.397   -576421.88    90.993997   0.55679948 
   90400    224.69042    9.9066316    2912599.1   -540137.94     36307.66    -576445.6    90.752959   0.55678821 
   90500    224.50322 -0.035768716    2912497.3   -540142.89     36277.41    -576420.3    90.776797   0.55680767 
   90600    224.96046    7.0948679    2912375.8   -540133.41    36351.297    -576484.7    90.842609   0.55683091 
   90700    224.55591   -4.1912889    2912149.4   -540106.42    36285.924   -576392.35    90.812856   0.55687419 
   90800    225.46514    4.8587381    2912230.5   -540005.21    36432.847   -576438.06    91.019473   0.55685869 
   90900    224.86784   -2.7859084    2912526.3   -540027.16    36336.329   -576363.48    91.356393   0.55680213 
   91000    225.01284    9.2180813    2912588.6   -540037.46     36359.76   -576397.22      91.1996   0.55679022 
   91100     224.6731    8.1222129    2912580.8   -540155.73    36304.861   -576460.59    91.333068   0.55679171 
   91200    225.03677   -7.3059393    2912441.3    -540160.8    36363.627   -576524.43    91.499359   0.55681838 
   91300    224.99397     8.853757    2912713.4   -540152.13    36356.711   -576508.84    91.427124   0.55676637 
   91400    224.88017   -0.8939001    2912162.9   -540123.98    36338.323    -576462.3    91.470281   0.55687161 
   91500    225.22641    12.732633    2912565.5   -540000.21    36394.271   -576394.48    91.724562   0.55679463 
   91600    225.27314   -5.9199305    2912797.3   -539990.24    36401.822   -576392.06    91.661532   0.55675033 
   91700    225.26341    1.7145573    2912988.5   -540011.27    36400.249   -576411.52    91.849373   0.55671379 
   91800    225.25862     -2.95859    2912502.1   -540051.23    36399.476   -576450.71    92.089756   0.55680675 
   91900    224.51034   -2.0978288    2912221.8   -540119.02    36278.562   -576397.58    92.190926   0.55686035 
   92000    225.17427   -2.0002787    2912649.5   -540078.23    36385.846   -576464.08    91.975212   0.55677857 
   92100    224.70831   -3.0746885    2912701.1   -540071.01    36310.552   -576381.56     92.20531   0.55676871 
   92200    224.87804    4.1111806    2912658.4   -540078.17    36337.978   -576416.15    92.038428   0.55677687 
   92300    224.89107    14.719031    2912243.7   -540133.75    36340.084   -576473.83    92.153191   0.55685617 
   92400    225.37985    4.3515621    2912501.6   -540067.21    36419.065   -576486.28    92.239516   0.55680686 
   92500     225.3615      8.46041    2912397.2    -539958.9    36416.101      -576375    92.252319   0.55682681 
   92600    225.41786   -6.1749615    2912326.4   -539966.56    36425.206   -576391.77    92.435672   0.55684035 
   92700    224.93755   -10.086758    2912770.1    -540002.7    36347.595   -576350.29    92.473829   0.55675553 
   92800    225.36237   -3.4714978    2912673.7   -540002.18     36416.24   -576418.42     92.85533   0.55677394 
   92900    225.17216   -5.4603965    2912515.1   -540019.16    36385.505   -576404.67    92.709052   0.55680427 
   93000    225.02724   -7.0912549    2912678.2   -540070.25    36362.088   -576432.34    92.709212    0.5567731 
   93100    225.26794    4.9333873    2912607.2   -540025.37    36400.981   -576426.35    92.774102   0.55678667 
   93200    225.36577   -6.5899107      2913024    -540081.3     36416.79   -576498.09    92.916798     0.556707 
   93300    225.32436   0.56296711    2912611.8   -540009.37    36410.099   -576419.47    93.025043   0.55678578 
   93400    225.23516   -3.0126609    2912575.3   -540040.59    36395.685   -576436.27    93.228852   0.55679277 
   93500    225.33847   -11.875534      2912368   -540060.24    36412.378   -576472.62    93.227573    0.5568324 
   93600    225.23515   -3.6671326    2912234.2   -540088.86    36395.682   -576484.54    93.507401   0.55685797 
   93700    224.96409    6.3013536    2912505.2   -540161.42    36351.882    -576513.3    93.588329   0.55680616 
   93800    224.66518    8.0866421    2912456.2   -540174.81    36303.582   -576478.39    93.695131   0.55681553 
   93900    224.71103   -17.430043    2912581.8   -540147.77    36310.991   -576458.76    93.829289   0.55679153 
   94000    225.15214   -4.0254764    2913017.5   -540092.94     36382.27   -576475.21    94.008862   0.55670825 
   94100    225.28169 -0.074050011    2912953.7   -540066.13    36403.203   -576469.33    94.085556   0.55672044 
   94200    225.04841   -9.6144246    2912674.6   -540092.77    36365.508   -576458.27    93.900492   0.55677378 
   94300    225.06803   -6.6205302    2913011.8   -540083.09    36368.678   -576451.77    94.030139   0.55670933 
   94400    224.91748   -3.5576109    2912667.6   -540058.52     36344.35   -576402.87    94.157564   0.55677511 
   94500    224.86855   -1.8087704    2912412.3   -540018.13    36336.444   -576354.57    94.160326   0.55682393 
   94600    224.98894    13.372015    2912657.5   -539999.13    36355.899   -576355.03    94.253787   0.55677705 
   94700    225.06989   -14.242468      2912558   -539934.28    36368.978   -576303.26    94.351042   0.55679608 
   94800    225.38735    6.5886361    2912379.5   -539982.49    36420.276   -576402.77    94.357178    0.5568302 
   94900    224.89882    4.9084659    2912831.6   -540039.41    36341.336   -576380.74    94.505818   0.55674378 
   95000    225.34658    1.2155218    2912803.7   -540051.36    36413.689   -576465.05    94.432929   0.55674911 
   95100    225.31144   -3.5274479    2912462.1   -540018.83    36408.011   -576426.84    94.497032   0.55681441 
   95200    224.88445    11.899529    2912172.3   -540012.29    36339.014    -576351.3    94.567488   0.55686981 
   95300    225.51585   0.70441462    2912597.6   -539996.07    36441.041   -576437.11    94.663151    0.5567885 
   95400    225.07721    6.6268815    2912610.3   -540047.59    36370.161   -576417.75    94.756841   0.55678608 
   95500    225.40827    6.6221216    2912471.7   -539947.46    36423.658   -576371.12    94.627308   0.55681258 
   95600    225.05569   -10.959716    2912387.9   -540040.43    36366.684   -576407.11    94.983359   0.55682858 
   95700    225.38542    -3.972995    2912181.8    -540034.2    36419.965   -576454.17    95.024204     0.556868 
   95800    225.18894    12.845667    2912002.4   -540049.59    36388.216   -576437.81     95.27181   0.55690231 
   95900    225.21748    4.9143352    2912641.2   -540131.53    36392.828   -576524.36    95.345246   0.55678017 
   96000    225.00338    2.5691641    2912430.4   -540191.78    36358.232   -576550.01    95.244277   0.55682046 
   96100    225.62737    4.5830867    2912911.5   -540114.81    36459.062   -576573.87    95.473669   0.55672849 
   96200    224.99162  -0.99533546    2912517.2   -540205.62    36356.331   -576561.95    95.379419   0.55680388 
   96300    225.01939    1.8288912    2912211.5    -540146.6    36360.819   -576507.42    95.529638   0.55686231 
   96400    225.17334    5.6431137    2912522.5   -540185.32    36385.696   -576571.01    95.575719   0.55680286 
   96500     224.9905    9.8249451    2912705.1   -540107.69    36356.151   -576463.84    95.685005   0.55676796 
   96600    224.84954   -5.5435006    2912481.2   -540073.08    36333.372   -576406.46    95.758862   0.55681076 
   96700    225.06015  -0.82116199    2912143.1   -540111.58    36367.405   -576478.99    96.107184   0.55687541 
   96800    225.20865    13.363829    2912557.8   -540097.74    36391.402   -576489.14    96.110786   0.55679611 
   96900    224.36975   -1.3518729    2912444.2   -540209.29    36255.843   -576465.14    96.173705   0.55681783 
   97000    225.00599    13.222703    2912555.8    -540267.4    36358.653   -576626.05    96.205978   0.55679649 
   97100    225.02961    3.5253675      2912483   -540178.75     36362.47   -576541.22     96.36775   0.55681041 
   97200    224.67861    8.9301656    2912246.3   -540201.37    36305.753   -576507.12    96.384602   0.55685566 
   97300    224.90151   -5.5187114    2912470.9   -540179.93     36341.77    -576521.7    96.597663   0.55681272 
   97400    224.64018    9.3743982    2912570.9   -540192.36    36299.543    -576491.9     96.73268   0.55679361 
   97500    225.00638   0.48345078    2912172.3   -540182.26    36358.716   -576540.98    96.807941   0.55686981 
   97600    224.78354    10.240494    2912466.4   -540178.25    36322.708   -576500.95    96.889348   0.55681357 
   97700    224.92562   0.93972446    2912204.5   -540055.67    36345.666   -576401.34    96.945592   0.55686365 
   97800    225.08897    8.0908947    2912009.6   -540129.92    36372.063   -576501.98    96.964541   0.55690092 
   97900    225.17436    6.9576589    2912499.3   -540074.86     36385.86   -576460.72    96.984888    0.5568073 
   98000    225.00589   -4.9196457    2912361.6   -540043.01    36358.637   -576401.65    97.133382   0.55683362 
   98100    225.28851    17.864815    2912326.5   -540007.53    36404.305   -576411.84    97.359734   0.55684033 
   98200    225.34546   -5.4428764    2912173.4   -540021.55    36413.509   -576435.06    97.412741    0.5568696 
   98300    224.62873   -8.5288283    2912583.4   -540113.56    36297.692   -576411.25    97.419552   0.55679121 
   98400    225.17802    7.5329951    2912529.6   -540088.24    36386.452   -576474.69    97.322518    0.5568015 
   98500     224.7145    4.0633186      2912228   -540118.71    36311.551   -576430.26    97.565159   0.55685916 
   98600    224.83252    14.838898    2912266.8    -540110.3    36330.622   -576440.92      97.5677   0.55685174 
   98700    224.83378  -0.18412708    2912493.5    -540120.4    36330.825   -576451.22    97.802334   0.55680841 
   98800    224.61246    2.6972057    2912228.3   -540147.58    36295.062   -576442.64    97.848358   0.55685911 
   98900     224.5183   -7.3963324    2912695.9   -540207.98    36279.848   -576487.83    97.846372   0.55676972 
   99000    224.84202    6.3648687    2912337.7   -540163.45    36332.157    -576495.6    97.915058   0.55683818 
   99100    224.58826    11.520633    2912445.1   -540152.21    36291.153   -576443.37    98.022983   0.55681765 
   99200     224.8126    11.180176    2912818.5    -540203.1    36327.403    -576530.5    97.931459   0.55674628 
   99300    224.54505   -7.0489785    2912490.9   -540122.34     36284.17   -576406.51    98.106497   0.55680889 
   99400    224.80191    2.6736235    2912424.5   -540107.82    36325.675   -576433.49    98.342635    0.5568216 
   99500    224.96911    5.6113238    2912234.5   -540043.36    36352.693   -576396.05    98.389433   0.55685791 
   99600    225.35724    2.9885249    2912684.1   -540000.73    36415.412   -576416.14     98.35807   0.55677196 
   99700    225.36117    7.0368952    2912966.2   -539848.81    36416.046   -576264.86    98.437471   0.55671805 
   99800    225.00159   -6.4371059    2912106.4    -539887.1    36357.942   -576245.04    98.462821   0.55688242 
   99900    225.36701   -4.5580377    2912031.7   -539913.21    36416.991    -576330.2    98.387466    0.5568967 
  100000    225.45452   0.23494023    2912189.8   -539907.64    36431.132   -576338.77    98.455795   0.55686647 
  100100    225.11366   0.80594802    2912125.3   -540008.12    36376.051   -576384.17    98.594254    0.5568788 
  100200    225.15511    8.1245318    2912325.9   -540000.01    36382.749   -576382.76    98.520028   0.55684044 
  100300    224.98012    3.3265991    2912322.2   -539913.91    36354.472   -576268.38    98.781116   0.55684115 
  100400    225.21562    3.0073491    2912621.3      -539896    36392.527   -576288.53    98.842075   0.55678397 
  100500    225.44602   -6.1101097    2912348.9   -539879.47    36429.757   -576309.23    98.887578   0.55683604 
  100600     225.1016    1.8736541    2912397.6   -539931.22    36374.103   -576305.33    99.029035   0.55682674 
  100700    224.99201    1.6401258    2912426.2   -539844.38    36356.394   -576200.78    99.091353   0.55682128 
  100800     225.2611     4.510709    2912659.7   -539949.96    36399.877   -576349.84    99.108596   0.55677664 
  100850    224.92492   -20.643499    2912399.4   -540010.41    36345.554   -576355.97    99.273053   0.55682638 
Loop time of 2074.16 on 6 procs for 100000 steps with 54211 atoms

Performance: 20.828 ns/day, 1.152 hours/ns, 48.212 timesteps/s
99.4% CPU use with 6 MPI tasks x no OpenMP threads

MPI task timing breakdown:
Section |  min time  |  avg time  |  max time  |%varavg| %total
---------------------------------------------------------------
Pair    | 1204.6     | 1390.5     | 1841.8     | 633.2 | 67.04
Neigh   | 99.635     | 115.15     | 148.06     | 168.3 |  5.55
Comm    | 28.892     | 513.57     | 715.21     |1121.8 | 24.76
Output  | 4.9691     | 4.9933     | 5.0158     |   0.6 |  0.24
Modify  | 34.845     | 36.643     | 40.871     |  34.6 |  1.77
Other   |            | 13.3       |            |       |  0.64

Nlocal:        9035.17 ave       10714 max        8183 min
Histogram: 4 0 0 0 0 0 0 0 0 2
Nghost:        5559.17 ave        6464 max        5087 min
Histogram: 4 0 0 0 0 0 0 0 0 2
Neighs:        0.00000 ave           0 max           0 min
Histogram: 6 0 0 0 0 0 0 0 0 0
FullNghs:     230718.0 ave      282189 max      203919 min
Histogram: 4 0 0 0 0 0 0 0 0 2

Total # of neighbors = 1384306
Ave neighs/atom = 25.535519
Neighbor list builds = 5974
Dangerous builds = 0
write_data 	    ${DIR}/data.${NAME}
write_data 	    run_1/data.${NAME}
write_data 	    run_1/data.pres_density_1
System init for write_data ...

undump              1
unfix               2
unfix               3
unfix               4


################################################
#######         Run Simulation         #########
################################################

reset_timestep      0
timestep	    5.0
log                 ${DIR}/log.run_${NAME}
log                 run_1/log.run_${NAME}
log                 run_1/log.run_pres_density_1
