
# Set production fixes - Nose/Hoover
#
fix                 2 drop nvt temp ${START_TEMP} ${END_TEMP} 1000.0
fix                 2 drop nvt temp 230 ${END_TEMP} 1000.0
fix                 2 drop nvt temp 230 205 1000.0


# divide "droplet" into core and surface
region		core_reg cylinder z 135 135 44.6 20 INF units box
region		surface_reg cylinder z 135 135 44.6 20 INF units box side out
group		core dynamic all region core_reg
dynamic group core defined
group		surface dynamic all region surface_reg
dynamic group surface defined

# compute pressure core
compute        peratom_core core stress/atom NULL
compute        p_core core reduce sum c_peratom_core[1] c_peratom_core[2] c_peratom_core[3]
variable       press_core equal -(c_p_core[1]+c_p_core[2]+c_p_core[3])/(3*1249982.5)


# compute pressure surface
compute        peratom_surf surface stress/atom NULL
compute        p_surf surface reduce sum c_peratom_surf[1] c_peratom_surf[2] c_peratom_surf[3]
variable       press_surf equal -(c_p_surf[1]+c_p_surf[2]+c_p_surf[3])/(3*55530.7)

# compute total pressure of drop
compute        peratom drop stress/atom NULL
compute        p drop reduce sum c_peratom[1] c_peratom[2] c_peratom[3]
variable       press equal -(c_p[1]+c_p[2]+c_p[3])/(3*180513.2)


# compute order parameter
compute             3 all orientorder/atom nnn NULL cutoff 3.5

# compute center of mass of bridge
compute 	4 drop com

# Run 100ns simulation
thermo_style        custom step temp press vol etotal ke pe v_press v_press_core v_press_surf c_4[*]
thermo              200
dump		        1 all custom 400 ${DIR}/prod.${NAME}.dump id type x y z vx vy vz c_3[*] c_2[*]
dump		        1 all custom 400 run_1/prod.${NAME}.dump id type x y z vx vy vz c_3[*] c_2[*]
dump		        1 all custom 400 run_1/prod.pres_density_1.dump id type x y z vx vy vz c_3[*] c_2[*]
run                 ${STEPS}
run                 10000000
Neighbor list info ...
  update every 1 steps, delay 0 steps, check yes
  max neighbors/atom: 2000, page size: 100000
  master list distance cutoff = 6.0032907
  ghost atom cutoff = 6.0032907
  binsize = 3.0016454, bins = 91 91 14
  2 neighbor lists, perpetual/occasional/extra = 1 1 0
  (1) pair sw, perpetual
      attributes: full, newton on
      pair build: full/bin/atomonly
      stencil: full/bin/3d
      bin: standard
  (2) compute orientorder/atom, occasional, copy from (1)
      attributes: full, newton on
      pair build: copy
      stencil: none
      bin: none
Per MPI rank memory allocation (min/avg/max) = 11.24 | 13.23 | 17.19 Mbytes
Step Temp Press Volume TotEng KinEng PotEng v_press v_press_core v_press_surf c_4[1] c_4[2] c_4[3] 
       0    224.92492   -20.127449    2912399.4   -540010.55    36345.554    -576356.1   -882.49253   -53.513808    148.96537    135.01254    134.38111    29.919458 
     200    224.90492   -7.9584464    2912399.4   -539998.24    36342.322   -576340.56   -763.40622   -53.862928    795.04747    135.01253    134.38302    29.922325 
     400    224.99578   -9.5877208    2912399.4   -539931.35    36357.004   -576288.36   -762.82645   -68.499362      1039.06    135.01235    134.38451    29.921827 
     600    225.32735   -7.1686996    2912399.4   -539843.95    36410.582   -576254.53   -669.80895   -37.844484    475.89579    135.01183    134.38483    29.922462 
     800    225.00084    16.956304    2912399.4   -539865.88    36357.822   -576223.71   -336.58519   -24.198344    1434.0002    135.01052    134.38242     29.92135 
    1000    224.88299   -10.203856    2912399.4   -539949.62    36338.779    -576288.4   -772.71613   -48.505276    556.68382    135.00825    134.38123    29.920538 
    1200    225.13061    13.997253    2912399.4   -539979.36     36378.79   -576358.15   -389.83567   -19.995547     1184.204    135.00501    134.38375    29.918916 
    1400    225.19782    2.9711635    2912399.4   -539969.36    36389.652   -576359.01   -460.23144   -1.0361309    179.15064    135.00356    134.38452     29.91723 
    1600    224.66873    19.086909    2912399.4   -539929.94    36304.155   -576234.09   -306.72245   -22.665071    1511.2298    134.99911    134.38339    29.916201 
    1800    225.06175    16.783374    2912399.4   -539856.47    36367.664   -576224.14   -450.38674   -15.602733    1231.4455    134.99702    134.38399    29.918869 
    2000     225.0206    9.8571225    2912399.4   -539795.45    36361.014   -576156.46   -507.57092   -26.120121    1104.9306    134.99457    134.38357    29.922558 
    2200    225.46347    2.0930553    2912399.4   -539780.87    36432.577   -576213.45   -564.11836   -49.509238    1224.2146    134.99327    134.38785    29.925974 
    2400    225.21691    10.198498    2912399.4   -539790.66    36392.735   -576183.39   -437.84798   -41.599779     1471.278    134.99244     134.3913    29.930643 
    2600     224.9458     23.58864    2912399.4   -539803.97    36348.927    -576152.9   -222.41076   -9.1531451    1443.1803    134.98955    134.39287    29.930699 
    2800    224.98901    -5.212026    2912399.4   -539800.49    36355.909    -576156.4   -678.90563   -61.238895    1105.1192    134.98818    134.39212    29.930772 
    3000    224.90664   -8.0762335    2912399.4   -539747.03    36342.599   -576089.63   -714.16812   -46.127211    614.74083     134.9865    134.39453    29.931698 
    3200     225.3515    18.099923    2912399.4   -539651.56    36414.484   -576066.05   -384.53914 -0.040879342    950.20061    134.98474    134.39452    29.932495 
    3400    225.00825    6.7306358    2912399.4   -539649.22    36359.018   -576008.24    -479.3506   -20.733951     819.7155    134.98268    134.39531     29.92743 
    3600    225.32068    7.4701231    2912399.4   -539699.57    36409.503   -576109.07   -453.58848   -49.088246    1496.7474    134.98069    134.39948    29.925716 
    3800    225.21684     23.06264    2912399.4   -539744.42    36392.725   -576137.14   -292.32794   -22.778663    1722.3005    134.97842    134.40129    29.924971 
    4000    225.25708    15.031874    2912399.4    -539793.1    36399.227   -576192.33   -389.52372   -53.043068     1982.358    134.97666    134.40295    29.925536 
    4200    225.23213    17.532224    2912399.4   -539849.39    36395.196   -576244.59   -366.70199     -11.0788    1168.8876    134.97584    134.40188    29.929824 
    4400    224.79501   -9.3497044    2912399.4   -539887.57     36324.56   -576212.13   -720.35878   -36.967469    341.76797    134.97274    134.39962    29.933511 
    4600      225.086    2.6903644    2912399.4   -539888.48    36371.583   -576260.06    -555.9706   -27.644748    763.37714    134.97139    134.40022    29.932301 
    4800    225.24523     28.00044    2912399.4   -539776.47    36397.312   -576173.79    -193.1847    12.065283    1196.9428     134.9718    134.40037     29.93344 
    5000    225.10813     12.30704    2912399.4   -539723.83    36375.158   -576098.99   -420.38681   -36.497462     1467.012    134.97048    134.40214    29.933267 
    5200     225.3191   -6.3805196    2912399.4   -539775.68    36409.249   -576184.93   -653.40375   -18.902035    90.843278    134.97098    134.40271     29.93323 
    5400    224.93763    19.877309    2912399.4   -539851.28    36347.607   -576198.89   -225.40887    9.6927116    824.31778    134.96868    134.40478    29.934289 
    5600    225.00421   -17.980858    2912399.4   -539872.46    36358.366   -576230.83   -824.80017   -40.914078   -22.069935    134.96981    134.40712    29.931845 
    5800    224.77432    15.612325    2912399.4    -539856.8    36321.218   -576178.02   -430.00712   -36.141571    1632.3521    134.96697    134.40947    29.932886 
    6000    225.47782    15.687822    2912399.4   -539790.63    36434.897   -576225.53    -368.3316   -17.089345    1207.4508    134.96745    134.41002    29.935584 
    6200    225.31377    2.6384855    2912399.4    -539703.7    36408.388   -576112.08   -569.08889   -65.088113    1603.4973    134.96792    134.40728    29.930811 
    6400      225.486    12.304329    2912399.4   -539773.92    36436.218   -576210.13   -415.71289   -37.195774    1482.5887    134.96794    134.40928    29.932581 
    6600     225.2024    14.352732    2912399.4   -539865.37    36390.391   -576255.76   -384.83917   -40.620372    1667.1075     134.9708    134.40853    29.930984 
    6800    225.11999    15.062658    2912399.4   -539908.52    36377.075    -576285.6   -318.35961   -8.5233486    981.84451    134.97151    134.40708    29.931487 
    7000    224.97748    24.367705    2912399.4   -539943.73    36354.047   -576297.78   -156.40983    27.462029    659.84103    134.97109    134.40688    29.932617 
    7200    224.80293    11.643108    2912399.4   -539978.83    36325.841   -576304.67   -360.32253   -22.078073    1107.6141    134.96911    134.40516    29.935941 
    7400    224.89485    35.771406    2912399.4   -539977.27    36340.695   -576317.96   -60.843234    5.4977896    1752.3367    134.97093    134.40392    29.933968 
    7600    225.12744   -4.5540296    2912399.4   -539919.61    36378.278   -576297.89   -669.16142   -43.400908    738.10023    134.97383    134.40408    29.934385 
    7800    224.92675 -0.0051493436    2912399.4   -539854.52    36345.849   -576200.37   -613.46276   -40.778676    917.64797    134.97423    134.40587    29.936146 
    8000    225.09392  -0.27439652    2912399.4   -539840.23    36372.861   -576213.09   -602.34262   -36.836536    814.79026    134.97629    134.40584    29.937122 
    8200    224.94889    5.2842323    2912399.4   -539916.04    36349.426   -576265.47   -434.65746   -30.306364    959.32915    134.97975    134.40718    29.940542 
    8400    225.10279    5.0617134    2912399.4   -540006.64    36374.295   -576380.93   -451.40158   -35.817593    1071.7152    134.98089    134.40726    29.940231 
    8600    224.99079   -9.1238161    2912399.4   -540011.49    36356.197   -576367.69   -665.76168    -44.08602    513.85192     134.9777    134.40629    29.934556 
    8800    225.26266   -6.9246491    2912399.4   -539980.41    36400.129   -576380.53   -712.45745   -64.414852    1086.7879    134.97879    134.40454    29.934624 
    9000    225.06965   -4.4365236    2912399.4   -539931.52     36368.94   -576300.46   -578.32829   -56.432588     1037.603    134.97764    134.40101    29.934497 
    9200    225.27167    -14.14313    2912399.4    -539822.1    36401.584   -576223.69    -845.0562   -47.657556     331.0001    134.97746    134.39946    29.936577 
    9400    225.41486    -12.87454    2912399.4   -539793.68    36424.722    -576218.4   -786.22982   -43.264239    298.64089    134.97676    134.40061    29.936644 
    9600    224.83937    1.7370819    2912399.4   -539863.69    36331.729   -576195.42   -484.34366   -41.569641    1026.8266    134.97765     134.4008    29.933426 
    9800    224.68876   -6.1342824    2912399.4   -539914.56    36307.393   -576221.95     -595.087   -42.508416    635.13147    134.97492     134.4011    29.931931 
   10000    225.38351    17.202893    2912399.4   -539921.34    36419.657      -576341   -319.14186   -21.006099    1375.0763    134.97264    134.40074     29.93016 
   10200    225.17834     18.11622    2912399.4   -539925.71    36386.504   -576312.21   -372.33062   -24.456441    1500.6436    134.97017    134.40079     29.92576 
   10400    225.48588      -6.4057    2912399.4   -539919.66    36436.199   -576355.86   -648.84574   -45.872447    696.62006    134.96844    134.40229    29.925804 
   10600    225.35286    3.1060279    2912399.4   -539852.03    36414.703   -576266.73    -501.4808   -41.343355    1093.5296    134.96672    134.40603    29.922905 
   10800    225.15193     15.74615    2912399.4   -539747.02    36382.235   -576129.26   -348.84071   -16.331362    1193.4479    134.96567    134.40705    29.928177 
   11000    225.25592    16.889654    2912399.4   -539736.57    36399.039   -576135.61   -342.33143   -24.249012    1431.6452    134.96441    134.40722    29.925003 
   11200    225.19729   -10.906212    2912399.4   -539787.28    36389.565   -576176.85   -703.17157     -51.6638    590.94521    134.96541    134.40895    29.919584 
   11400    225.08313    10.357634    2912399.4   -539870.22    36371.119   -576241.34   -370.18922   -13.289772    842.37279    134.96234    134.40894     29.91749 
   11600     224.6511   0.71825487    2912399.4   -539923.51    36301.307   -576224.82   -537.90399   -57.823412     1339.261    134.96103    134.40899    29.918747 
   11800    224.75109   -4.5168699    2912399.4   -539908.45    36317.465   -576225.92   -663.39897   -49.682035    881.43577    134.95903    134.41026    29.919915 
   12000    225.19347   -22.646002    2912399.4   -539851.99    36388.949   -576240.94   -825.79665   -75.150498    503.91233    134.95643    134.41291    29.921764 
   12200    225.04044   -28.599669    2912399.4   -539791.62     36364.22   -576155.84   -956.35488   -76.710137    226.76948     134.9542    134.41465    29.921783 
   12400    225.02838    -2.087188    2912399.4   -539756.11    36362.271   -576118.38    -588.3915   -34.059891     657.2138    134.95692     134.4176    29.924102 
   12600    225.68183   -38.496589    2912399.4   -539786.55    36467.862   -576254.41   -1092.0233   -91.861059    48.752688    134.96062    134.41796    29.922972 
   12800    224.57114   -24.611265    2912399.4   -539893.63    36288.385   -576182.01   -895.97347   -76.781608    437.55672    134.96162    134.42023    29.923768 
   13000    225.18519   -7.9486007    2912399.4    -539911.8     36387.61   -576299.41    -592.3663   -37.365815    424.21785    134.96048    134.42392    29.926861 
   13200    224.96795   0.29076236    2912399.4   -539886.81    36352.507   -576239.32   -537.79067   -34.850577    799.72749     134.9597    134.42549    29.932658 
   13400    225.31882    -17.59127    2912399.4   -539830.48    36409.203   -576239.68   -856.03173    -62.44582    483.03689    134.95906    134.42821    29.932215 
   13600      225.527    1.9032688    2912399.4   -539763.66    36442.843    -576206.5   -542.98206   -38.470988    965.79264    134.95967    134.43072    29.930849 
   13800     225.2236   -5.4564972    2912399.4   -539742.06    36393.818   -576135.88   -733.30827   -57.074039    998.54766     134.9613    134.43057    29.929113 
   14000      225.074   -17.306236    2912399.4   -539821.26    36369.643    -576190.9   -756.65228    -34.44858   -132.22504    134.96097    134.42882    29.931809 
   14200    225.09932  -0.37566106    2912399.4   -539915.28    36373.734   -576289.02   -537.71207    -30.81765    673.99562    134.96067    134.42722    29.937211 
   14400    224.94343     1.068955    2912399.4   -539945.46    36348.544      -576294    -509.5328   -15.124938    396.52177    134.96197    134.42679    29.935141 
   14600    225.03559   -19.902357    2912399.4   -539935.44    36363.437   -576298.88   -859.17129   -47.294601    20.777865     134.9608    134.42555    29.930672 
   14800    225.23408   -9.2600029    2912399.4   -539827.74    36395.511   -576223.25   -674.08508   -57.722422    813.66144    134.96276    134.42175    29.935472 
   15000    225.13176   -3.6715959    2912399.4   -539808.08    36378.976   -576187.06   -625.62569   -34.159073    576.34946    134.96085    134.42237    29.937255 
   15200    225.19908   -5.5721836    2912399.4   -539855.02    36389.854   -576244.88   -589.55618   -39.184593    589.79324     134.9574    134.42187    29.934861 
   15400    224.95764   -3.4752275    2912399.4   -539912.69    36350.841   -576263.53   -603.61205   -42.705797      779.033    134.95633    134.42328    29.934197 
   15600    224.71436     4.128365    2912399.4   -539916.07    36311.529    -576227.6   -421.28939   -29.834689    888.09051    134.95868    134.42086    29.935601 
   15800    225.14881    11.822512    2912399.4   -539911.78    36381.731   -576293.51    -364.3863   -18.275725    1031.4333    134.95913    134.41734    29.933243 
   16000    224.91434    9.1533186    2912399.4   -539952.13    36343.844   -576295.98   -376.67658   -29.429621    1142.5145    134.96047    134.41511    29.932339 
   16200    224.79948    7.5149668    2912399.4   -540062.65    36325.283   -576387.93   -422.22236   -7.1992464    556.18815    134.96074    134.40951     29.93191 
   16400    224.90763   -6.9837326    2912399.4   -540077.21    36342.759   -576419.97   -661.25474   -61.921987    1027.5754    134.96334    134.40513     29.93202 
   16600    225.05513   -12.141102    2912399.4   -540008.65    36366.594   -576375.24   -669.14555   -53.697111    571.94867    134.96383    134.40211    29.931842 
   16800    225.44204   -24.813054    2912399.4   -539952.39    36429.115    -576381.5   -929.01083   -71.149501     300.1962     134.9664    134.39745    29.931192 
   17000    224.90446   -16.442705    2912399.4   -539956.87    36342.247   -576299.12   -778.64592   -41.715363    76.637767    134.96691    134.39748     29.93155 
   17200    225.46395   -10.725071    2912399.4   -539999.62    36432.655   -576432.28    -658.2446   -33.594635    193.71296     134.9694    134.39821    29.929238 
   17400    224.93267     7.888337    2912399.4   -540004.75    36346.806   -576351.55   -340.38695   -14.356383    736.87557    134.97187    134.39621    29.931871 
   17600    224.88722   -19.089578    2912399.4   -540014.53    36339.462   -576353.99   -801.81904   -59.206921    331.54885    134.97115    134.39641    29.932701 
   17800    224.74904    9.0070653    2912399.4   -540033.84    36317.132   -576350.97   -287.20886   -29.283765    1131.5608    134.97188    134.39509    29.933118 
   18000     224.8574    12.415537    2912399.4   -540099.42    36334.643   -576434.07   -331.45359   -47.344894    1716.8754    134.96878     134.3948    29.935375 
   18200    224.82113   -4.6797173    2912399.4   -540162.81    36328.782   -576491.59   -481.25689   -50.142181    883.25273    134.96873    134.39269    29.934471 
   18400    225.22751    15.919053    2912399.4   -540168.81    36394.449   -576563.26   -278.98434    -41.60882    1771.5055    134.96862    134.39263    29.934977 
   18600    225.46367    5.9428861    2912399.4   -540043.89    36432.609    -576476.5   -413.02405   -19.608505    753.06715    134.96714    134.39369    29.932341 
   18800    225.09805     8.102739    2912399.4    -539989.4    36373.529   -576362.93   -390.51606      -33.134    1170.7998    134.96698     134.3963    29.928283 
   19000    225.11314   -5.8308682    2912399.4   -540016.83    36375.967    -576392.8    -626.5745   -38.295339     556.2092     134.9673    134.39405    29.931191 
   19200    225.29078    2.0703176    2912399.4   -540090.19    36404.672   -576494.86   -541.69824   -40.741139    1025.6543    134.96689    134.39491    29.927718 
   19400    224.34258    8.0441526    2912399.4   -540159.14    36251.453   -576410.59   -416.88312   -37.360811    1262.8716    134.96934    134.39557    29.925571 
   19600    224.90669    5.1142834    2912399.4   -540146.84    36342.608   -576489.45   -508.14702   -44.883663    1278.5474    134.96623    134.39574    29.930296 
   19800    225.49925   0.15429935    2912399.4   -540098.25    36438.359    -576536.6   -530.34525   -23.839455     544.7128    134.96759    134.39683    29.933923 
   20000    225.13167   -4.3075796    2912399.4   -540067.56    36378.962   -576446.53   -610.75394   -47.735851    848.60421    134.96329    134.39611    29.936501 
   20200    224.87197    5.2030519    2912399.4   -540039.82    36336.997   -576376.82   -439.21687   -29.743942    942.41155    134.96196    134.39215    29.938841 
   20400    225.04089   -10.637593    2912399.4   -540035.99    36364.293   -576400.28   -652.31812   -30.145844    120.66945    134.96251    134.38912    29.942035 
   20600    225.08665   -1.4691554    2912399.4   -540095.87    36371.688   -576467.55   -583.69398   -43.449701    900.98988     134.9623     134.3866    29.942337 
   20800    224.75054   -32.736634    2912399.4   -540140.16    36317.375   -576457.53   -923.93476   -63.411148   -289.55751    134.96107    134.38462    29.940959 
   21000    224.75601     -11.6236    2912399.4   -540111.34     36318.26    -576429.6   -729.65964   -38.566462    258.50271     134.9627     134.3839    29.942277 
   21200    225.01166    -20.99528    2912399.4   -540015.05    36359.569   -576374.62   -861.41681   -68.449657    439.65289    134.96501    134.38268    29.942149 
   21400    225.24643   -8.1141804    2912399.4    -539980.2    36397.505   -576377.71   -680.90711   -48.228161     660.0425    134.96727    134.38201    29.937894 
   21600    225.15164    1.9913148    2912399.4   -539995.17    36382.189   -576377.36    -532.5716   -42.642829    1064.3175    134.96869    134.37948     29.93333 
   21800     224.9851   -25.128355    2912399.4    -540041.5    36355.277   -576396.78   -914.66794   -65.730968    161.68989    134.96931    134.38058     29.93499 
   22000    225.07212   -6.7757543    2912399.4   -540171.67    36369.339   -576541.01   -631.39491   -45.829785    676.25162    134.97001    134.37884    29.934159 
   22200    224.30932   -4.3141977    2912399.4    -540179.8    36246.078   -576425.87   -559.84351     -39.9824    673.72883    134.96948    134.38046    29.936464 
   22400    224.77852    25.522683    2912399.4   -540105.12    36321.896   -576427.01   -164.14177   -4.6883346    1444.1126     134.9692    134.38164    29.938334 
   22600     224.7201   -5.1040563    2912399.4   -540030.94    36312.456    -576343.4   -552.47685   -53.508544    936.77358    134.96724    134.38339    29.940356 
   22800    225.04218   0.38705543    2912399.4   -539990.95    36364.501   -576355.45    -468.3815   -35.833745    826.90862    134.96728    134.38324    29.945317 
   23000    225.14074   -10.600905    2912399.4   -539946.09    36380.427   -576326.52   -626.89817   -47.748827    518.83242    134.96812    134.38124    29.950364 
   23200     225.3234    3.2014882    2912399.4   -539914.59    36409.943   -576324.53   -514.82601   -35.407462    964.92067    134.96911    134.38328    29.954158 
   23400    225.43071    6.2182417    2912399.4   -539930.56    36427.283   -576357.84   -417.31322   -4.9265302    437.02096    134.97058    134.38413    29.956121 
   23600     225.0908    1.9685823    2912399.4   -540013.04    36372.358    -576385.4   -471.31272   -25.294674     672.6225    134.97177    134.38363    29.958541 
   23800     224.9542   -0.5280088    2912399.4   -540037.31    36350.285    -576387.6   -502.03195   -25.699755    550.80291    134.97014    134.38461    29.960568 
   24000    224.94632   -13.530619    2912399.4    -539997.8    36349.011   -576346.81   -734.13655   -46.492249    336.89345     134.9699    134.38565     29.95854 
   24200    225.26565   -3.0479831    2912399.4   -539891.21    36400.611   -576291.82   -544.68434   -17.032401    223.53868    134.96776    134.38293    29.960703 
   24400    225.41794    6.1263222    2912399.4   -539864.71    36425.221   -576289.93   -409.68872   -21.835751    812.82252     134.9646     134.3846    29.966501 
   24600    225.06116   -2.5613753    2912399.4   -539900.22    36367.568   -576267.79   -527.00961   -26.145848    454.20109    134.96051     134.3804     29.96539 
   24800    224.66915     9.853292    2912399.4   -539952.73    36304.224   -576256.96   -312.08713   -39.417842    1404.0582    134.95703    134.37637    29.963983 
   25000    225.42581   -5.1311339    2912399.4    -539961.5    36426.492      -576388   -621.78784   -58.381382    1045.0399    134.95397     134.3731    29.965185 
   25200    224.75448    6.2883726    2912399.4   -539948.45    36318.012   -576266.46   -329.51035    -12.40936    609.13578    134.95398     134.3686     29.96835 
   25400    224.93854   -15.277527    2912399.4    -539946.6    36347.754   -576294.36   -749.55384   -56.443186    469.26713    134.95372    134.36799    29.971599 
   25600    225.49586    5.5902545    2912399.4   -539928.99    36437.811    -576366.8   -447.03193   -37.905366    1146.4307    134.95156    134.36983    29.975448 
   25800    224.91895   -20.684436    2912399.4   -539922.85    36344.589   -576267.44   -896.60214    -64.61046    369.53621    134.95252    134.36948    29.977535 
   26000    225.05033     8.759727    2912399.4   -539975.89    36365.819   -576341.71   -448.86271   -42.058829    1406.1523    134.95151     134.3696    29.980073 
   26200     225.0593    7.4771544    2912399.4   -540051.94    36367.268   -576419.21   -444.73628   -27.193854    1004.2788    134.95246      134.366    29.980815 
   26400    224.90886   0.67505389    2912399.4   -540063.81    36342.958   -576406.76   -467.45154   -38.022819    891.28869    134.95272    134.36393    29.979394 
   26600    225.19839   -13.405128    2912399.4   -539974.26    36389.744      -576364   -721.95968   -50.586339      435.632    134.95327    134.36073    29.985751 
   26800    225.11463   -6.6648952    2912399.4   -539905.46    36376.209   -576281.67   -600.55789   -38.343937    513.56119    134.95434    134.36194    29.983928 
   27000    225.02528   -1.5476131    2912399.4   -539895.58     36361.77   -576257.35   -501.39663    -35.40804    715.85921    134.95657    134.35779    29.983572 
   27200    225.10236    0.2343829    2912399.4   -539906.88    36374.226   -576281.11   -539.86958   -33.325651    762.44487    134.95855    134.35583    29.983603 
   27400    225.11345    11.493434    2912399.4   -539960.06    36376.017   -576336.08   -366.53537   -39.616254    1494.5444    134.95651    134.35588    29.979538 
   27600    224.95166    13.399073    2912399.4    -540052.1    36349.874   -576401.98    -389.1616   -30.582224    1391.1349    134.96026    134.35813    29.977721 
   27800    224.44724   -17.829989    2912399.4   -540067.03    36268.365    -576335.4   -832.20076   -66.389733    559.29338    134.96164    134.35893    29.975497 
   28000    224.93375    -1.994153    2912399.4   -539980.97    36346.981   -576327.95   -561.38449   -27.960402    524.79517    134.96283    134.35907    29.972441 
   28200    224.73892   -10.664419    2912399.4   -539926.84    36315.498   -576242.34   -695.41854   -46.690398    491.67638    134.96126    134.35913    29.969794 
   28400    224.67082     -9.02154    2912399.4   -539922.54    36304.493   -576227.04   -729.01684   -78.211828    1287.3796    134.96184    134.36162    29.971887 
   28600    225.34468   -4.8081922    2912399.4   -539941.63    36413.382   -576355.01   -620.99904   -33.196951    495.08167     134.9624    134.36336     29.97093 
   28800    224.88871   -17.439185    2912399.4   -540016.47    36339.702   -576356.17   -806.35904   -63.199107    507.96953    134.96615    134.36648    29.971236 
   29000    224.65065   -8.6562387    2912399.4   -540071.45    36301.235   -576372.69   -747.03649   -39.544172     436.1389    134.97069    134.36805    29.972047 
   29200    224.96835    11.486595    2912399.4   -540059.93     36352.57    -576412.5   -387.50813   -28.209661     1237.426     134.9713    134.36924    29.973397 
   29400    225.45183   -18.875557    2912399.4   -539928.87    36430.696   -576359.56   -837.53205     -76.0399    721.67976    134.97164    134.37282    29.974928 
   29600    225.53277    5.7049978    2912399.4   -539914.65    36443.775   -576358.42   -496.57524   -33.322182    1049.2822    134.97137    134.37312    29.970108 
   29800    224.90086   -27.636195    2912399.4   -539964.46    36341.665   -576306.12   -962.95217   -80.936655    372.43836    134.96679    134.37604    29.970788 
   30000    225.41492     4.889913    2912399.4   -540021.54    36424.732   -576446.28    -446.6267   -43.525092    1236.1988    134.96528    134.37855    29.966669 
   30200    224.72146     7.185316    2912399.4   -540103.22    36312.676   -576415.89    -465.9514   -54.528213    1604.2626    134.96606     134.3817    29.961944 
   30400    224.73502    11.024593    2912399.4   -540153.54    36314.867   -576468.41   -442.63814   -18.877149     1003.123    134.96821    134.38181     29.96154 
   30600    224.90082   0.52504191    2912399.4   -540030.86    36341.658   -576372.52   -475.17753   -24.311558    574.78392    134.97227    134.38309    29.962339 
   30800     225.1227   -7.3008882    2912399.4   -539946.75    36377.513   -576324.26   -623.56471   -47.920037    695.76117    134.97157    134.38048    29.964854 
   31000    224.95147   -12.134519    2912399.4   -539899.27    36349.843   -576249.12   -682.08503   -64.750721    821.10802    134.97068    134.37806    29.966384 
   31200    225.46485   -10.564581    2912399.4   -539886.73      36432.8   -576319.53   -753.71802    -62.04891    842.62888     134.9721    134.37884    29.965864 
   31400    224.85649   -18.183003    2912399.4   -539935.32    36334.495   -576269.82   -781.29111   -70.604819    635.65954    134.97232    134.38148    29.966271 
   31600    224.88475    10.855408    2912399.4    -539990.8    36339.063   -576329.87   -394.61342   -33.216803     1317.032    134.97222    134.38385    29.966689 
   31800    225.08419    5.9355455    2912399.4   -540014.16    36371.289   -576385.44   -502.06483   -43.870462    1298.8129    134.97069    134.38692    29.964558 
   32000    225.08017    7.1674117    2912399.4   -539924.69     36370.64   -576295.33   -493.14688   -43.242889    1349.2937    134.97054    134.38899    29.963871 
   32200     224.9771    8.3874843    2912399.4   -539853.17    36353.984   -576207.16   -375.99049   -31.966596    1159.4558     134.9701    134.39172    29.961808 
   32400    225.54333    2.8101504    2912399.4   -539880.17    36445.481   -576325.65   -419.51294   -40.453677    1057.9854    134.96812    134.39359    29.962248 
   32600    225.00961    2.2554504    2912399.4   -539959.57    36359.239   -576318.81   -479.91989   -21.425047    600.56341    134.96513    134.39418    29.963377 
   32800    225.32197    18.447945    2912399.4    -540007.5    36409.712   -576417.21   -286.52121    -17.78255    1367.8139    134.96203    134.39434     29.96393 
   33000    225.29658     16.40398    2912399.4   -540019.75     36405.61   -576425.36   -306.43538   -13.554085     1165.433    134.95933    134.39629    29.961981 
   33200    225.01572   -13.091938    2912399.4   -540022.67    36360.226    -576382.9   -722.62877    -56.77354    591.33018    134.95783    134.39562    29.962206 
   33400    225.21543    12.089122    2912399.4   -539964.72    36392.497   -576357.22    -419.2163   -5.5569553     759.1197    134.95543    134.39729    29.957902 
   33600    225.34489    -2.261375    2912399.4   -539863.39    36413.415    -576276.8   -631.38349   -34.851369    665.89425    134.95338    134.39547    29.961241 
   33800    225.54204     3.579965    2912399.4   -539914.94    36445.274   -576360.22   -529.92944   -34.112809     955.6282    134.95308    134.39364     29.96469 
   34000    225.21879    3.3647874    2912399.4   -539984.37     36393.04   -576377.41   -487.03082    -32.36702    905.04556    134.95149    134.39075    29.965903 
   34200    225.09223    15.529048    2912399.4   -540025.45    36372.588   -576398.04    -231.3788   -9.0560972    1018.2971    134.94576    134.39005    29.962021 
   34400    224.66169   -10.028769    2912399.4   -540052.23    36303.018   -576355.25   -712.20019   -37.687608    322.36344      134.943    134.39002    29.962819 
   34600    224.58043    12.157473    2912399.4   -540064.24    36289.887   -576354.13   -443.73099   -20.959481    1109.4116    134.94365    134.38955    29.962384 
   34800    225.08955   -4.3213706    2912399.4   -540046.03    36372.156   -576418.18   -588.28061   -44.434351    773.56496    134.94052    134.39049    29.957297 
   35000    225.31444    22.641715    2912399.4   -539978.57    36408.496   -576387.06   -176.29082   -3.5822408    1268.1176    134.94084     134.3875    29.955008 
   35200    225.15755   -11.726515    2912399.4   -539948.32    36383.145   -576331.47   -715.01033   -68.779883     933.2019    134.94077    134.38666    29.956134 
   35400     224.7095    9.7478984    2912399.4   -539994.19    36310.744   -576304.93   -441.48268   -12.600995    794.88998    134.93879    134.38728     29.96052 
   35600    224.94336    12.476579    2912399.4   -540092.94    36348.533   -576441.47   -377.88339   -13.497198    958.17348    134.93741    134.38877    29.967083 
   35800    224.99884   -10.508899    2912399.4   -540114.08    36357.498   -576471.58   -685.30038   -35.000244    236.69035    134.93975    134.38681    29.965372 
   36000    225.33303   -2.3862199    2912399.4   -540076.09    36411.499   -576487.59   -583.79871   -66.689964    1376.0256    134.94237    134.38761    29.967241 
   36200    225.10146    16.572985    2912399.4   -540038.25     36374.08   -576412.33   -399.55912   -24.622637    1423.4472    134.94628     134.3905    29.967356 
   36400    224.66845   -17.890546    2912399.4   -540013.24    36304.111   -576317.35   -811.82883   -55.869453    319.30845    134.95031     134.3908    29.966485 
   36600     225.0857    10.167028    2912399.4   -539969.41    36371.534   -576340.95   -421.66962   -10.848536    777.42449    134.95353    134.39099    29.965989 
   36800    224.91222    17.962401    2912399.4   -539944.97    36343.501   -576288.47   -286.35644    6.2992439    800.27339    134.95579    134.39234    29.963484 
   37000    224.75271   -21.149429    2912399.4   -539932.21    36317.726   -576249.94   -844.28484   -74.005041    556.61862    134.95422    134.39215    29.960819 
   37200    225.03747    7.3999016    2912399.4    -539922.2    36363.741   -576285.94   -408.73198   -14.498529    714.45843    134.95318    134.39087    29.959847 
   37400    225.05064   -11.151578    2912399.4   -539927.75    36365.868   -576293.61   -731.83431   -54.205495    635.28948    134.95615    134.38957    29.963802 
   37600    225.21204    -15.24556    2912399.4   -539940.71    36391.948   -576332.66   -800.96818   -42.484743    156.74261    134.96032     134.3905    29.961046 
   37800    225.04981     -8.22007    2912399.4   -539961.54    36365.734   -576327.27   -765.55024   -61.314238    949.05336    134.96321     134.3935    29.959191 
   38000    224.76655   -10.640261    2912399.4   -539979.17    36319.963   -576299.13   -734.57355    -58.82381    766.06351    134.96487    134.39066    29.961271 
   38200    225.36662    9.4408898    2912399.4   -539982.47    36416.927    -576399.4   -399.38218   -14.498726    821.50587     134.9668    134.39176    29.959664 
   38400    225.15666   -27.018305    2912399.4   -539933.24    36382.999   -576316.24   -971.08321    -78.75568    355.75141    134.96764     134.3928    29.964471 
   38600     225.4573    2.3362215    2912399.4   -539859.78    36431.581   -576291.36   -535.67971   -48.388956    1211.7506    134.96899    134.39246    29.971494 
   38800      225.101   -3.3902028    2912399.4   -539852.85    36374.006   -576226.86   -641.45546   -52.861189    1012.0877    134.97113    134.39325    29.969056 
   39000    224.97375    8.9487578    2912399.4   -539952.02    36353.443   -576305.47   -440.50848   -33.636382    1226.4792    134.97228    134.39267    29.968651 
   39200    225.08648    13.694939    2912399.4   -540028.31     36371.66   -576399.97   -338.22766    4.6965241    612.53615    134.97182    134.39427    29.967803 
   39400    224.85097    5.7761191    2912399.4    -540026.5    36333.604   -576360.11   -446.96587   -33.391834    1054.5801    134.97608    134.39692    29.966247 
   39600    225.47469   -0.4631142    2912399.4   -539965.15     36434.39   -576399.54    -531.7428   -44.255419    971.88988    134.97904    134.39633      29.9627 
   39800    225.38165   -22.260007    2912399.4   -539888.91    36419.355   -576308.27   -888.65335   -73.723807      492.042    134.98035    134.39793    29.961658 
   40000    225.32341   -19.425473    2912399.4   -539878.85    36409.945    -576288.8   -946.37022   -72.010168    602.13023    134.98121    134.39758    29.964158 
   40200    225.29773    -9.003466    2912399.4    -539881.4    36405.796   -576287.19    -773.9083   -39.496485    416.85456    134.98009    134.39651    29.959274 
   40400    225.16069   -11.063349    2912399.4   -539904.67    36383.652   -576288.32   -725.81498   -43.529534    399.60354    134.98006    134.39724    29.965936 
   40600    224.90169   -1.9676185    2912399.4   -539948.89      36341.8   -576290.69   -630.70337   -40.701189    812.97883    134.98006     134.3978     29.97469 
   40800    224.72175    2.4246587    2912399.4   -540065.54    36312.724   -576378.26   -489.29471   -51.384444    1283.8165    134.97891    134.39477    29.978907 
   41000     224.7655   -2.7498074    2912399.4   -540112.06    36319.793   -576431.85   -648.85111   -35.599987    657.12882    134.97873      134.391    29.978127 
   41200    224.81364   -11.338639    2912399.4   -540060.98    36327.572   -576388.55   -780.78209   -45.932434    439.25421    134.97552    134.39134    29.981482 
   41400    225.42486    6.9220825    2912399.4   -539993.69    36426.339   -576420.02   -468.22669   -22.420227    867.71391    134.97238    134.39209    29.978613 
   41600     224.9995    12.130972    2912399.4   -539958.78    36357.604   -576316.38      -431.48   -11.399383    892.82622    134.96725    134.39171    29.977235 
   41800    225.07057    15.469674    2912399.4   -539967.72    36369.089   -576336.81   -282.63818   -12.075126    1083.1408    134.96387    134.38945    29.978591 
   42000    224.85712    8.1350207    2912399.4   -540050.16    36334.598   -576384.76   -443.39395    -4.977329    538.69308    134.96452    134.39066    29.973212 
   42200    224.73231   -5.6689072    2912399.4   -540100.19     36314.43   -576414.62    -648.7403   -29.533631    367.47961    134.95912      134.392    29.976653 
   42400    224.66131    11.555126    2912399.4   -540017.25    36302.956   -576320.21   -439.61841   -12.642576    890.60902    134.95712    134.39015    29.976415 
   42600     225.1997   -4.9067111    2912399.4   -539944.81    36389.955   -576334.76   -649.89831   -19.946516    191.65062    134.95579    134.38924    29.971959 
   42800     225.3696    1.2614928    2912399.4   -539954.89     36417.41    -576372.3    -592.0569   -30.308921    748.40749    134.95474    134.38865    29.967534 
   43000    224.88544   -6.8099082    2912399.4   -540006.27    36339.173   -576345.44   -590.51871    -21.35494    123.53758    134.95278     134.3922    29.968795 
   43200    224.92232    25.191674    2912399.4   -540058.91    36345.133   -576404.04   -179.00538   0.48560702    1310.2881    134.94924    134.39127    29.967739 
   43400    225.08714   0.63380638    2912399.4   -540143.19    36371.766   -576514.96   -581.78382     -32.3298    760.97694    134.95001    134.39377    29.964884 
   43600    224.52123   -7.1648191    2912399.4   -540203.88    36280.322    -576484.2   -688.15932   -58.849853    948.92504    134.94812    134.39481     29.96368 
   43800    224.59173    3.4507883    2912399.4    -540155.3    36291.713   -576447.02   -524.33906   -32.075948    903.00406    134.94807    134.39518    29.962511 
   44000    224.70214    5.3895681    2912399.4   -540033.43    36309.554   -576342.99   -462.38029   -24.685559    838.33071    134.94725    134.39421     29.96164 
   44200    225.34423       16.603    2912399.4   -539981.21     36413.31   -576394.52    -365.1361   -18.104849    1278.3076    134.94689    134.39401    29.963654 
   44400    225.11892    17.447475    2912399.4   -539963.71    36376.902   -576340.61   -312.91098   -16.026048    1275.8041    134.94628    134.39436    29.963203 
   44600    225.30292   -5.0365561    2912399.4   -540014.75    36406.634   -576421.39   -592.82476   -41.958399    680.32281      134.949    134.39598    29.966299 
   44800    224.76524    3.8817869    2912399.4   -540087.16     36319.75   -576406.91   -432.53943   -20.247299    659.34849    134.94842     134.3967    29.972289 
   45000    224.83918   -5.3054386    2912399.4   -540102.79    36331.699   -576434.49   -607.37269    -46.60681    770.85541    134.94852    134.39918    29.972308 
   45200     224.8134    17.168078    2912399.4   -539979.84    36327.533   -576307.37   -374.49888    -15.51898    1249.7367    134.94785    134.40117    29.974008 
   45400    225.11379    6.1466455    2912399.4   -539914.64    36376.073   -576290.71   -474.84779    -21.02937    795.73699    134.94918    134.40037    29.975512 
   45600    225.04312  -0.57513855    2912399.4   -539910.88    36364.654   -576275.53   -609.44607   -37.528085    814.58395    134.95003    134.39919    29.971412 
   45800    225.14986    -6.346748    2912399.4   -539948.75    36381.901   -576330.65   -684.87539    -31.40331    374.01514     134.9489    134.39849    29.964072 
   46000    224.90431    10.282811    2912399.4   -540048.91    36342.222   -576391.13   -400.23397   -33.393653     1290.982    134.94917    134.39985     29.96023 
   46200    225.27499    13.153349    2912399.4   -540067.06    36402.121   -576469.18   -364.59983    -6.077518    826.65261    134.94774    134.40209    29.956594 
   46400    224.87783    9.0770477    2912399.4   -540061.15    36337.944   -576399.09   -400.40672   -4.7192973    582.29102    134.94565    134.40222    29.957342 
   46600    225.19087    14.298072    2912399.4   -540027.95    36388.528   -576416.48   -383.65533    -8.992115    952.29638    134.94543    134.39872    29.952486 
   46800    225.74366    4.3634903    2912399.4    -539893.1    36477.853   -576370.96   -488.38132   -25.848927     810.7035    134.94516    134.39925    29.953942 
   47000    225.24268   -3.4872039    2912399.4   -539862.45    36396.901   -576259.35   -655.76512   -35.778273      622.468    134.94522    134.40074    29.953394 
   47200    225.12519    10.936611    2912399.4   -539934.11    36377.915   -576312.02   -337.36918   -17.427832    965.88489    134.94561    134.40442    29.952746 
   47400    225.09686   -11.632834    2912399.4   -539994.76    36373.337    -576368.1   -724.67602   -63.691816      823.584    134.94348    134.40457    29.949847 
   47600    224.72912   -1.4316417    2912399.4    -540018.4    36313.914   -576332.32   -528.01242   -27.964764    554.39519    134.94444    134.40212    29.952132 
   47800     224.8671    9.3678815    2912399.4   -540024.12    36336.211   -576360.33   -412.34268   -11.927596    759.80131    134.94543     134.4033    29.956626 
   48000    225.06417    4.2625171    2912399.4   -539924.71    36368.055   -576292.77   -512.78956   -28.922342    874.58961    134.94533     134.4058    29.953672 
   48200    225.68893    22.565539    2912399.4   -539847.06    36469.009   -576316.07   -246.72645   -2.4304235    1238.1953    134.94316    134.40556    29.954829 
   48400    225.36356   -9.2528484    2912399.4   -539853.78    36416.433   -576270.21   -697.80062   -51.528027    674.60237    134.94312    134.40504    29.954483 
   48600    225.09588   -5.4010328    2912399.4   -539946.45    36373.179   -576319.63   -618.92622   -22.653644    226.66189    134.94373    134.40499      29.9559 
   48800    224.89081    7.2920929    2912399.4   -539984.98    36340.042   -576325.02   -508.42591    -20.70028    848.40413    134.94548    134.40929    29.955062 
   49000    224.76213    13.321033    2912399.4   -539974.19    36319.248   -576293.44    -321.6552   -21.329217    1178.7591     134.9465    134.41224    29.954899 
   49200    225.00159    3.2933255    2912399.4   -539936.77    36357.942   -576294.71   -503.39574   -28.145012    806.26125    134.94758    134.41739    29.955305 
   49400     225.4427    2.2148326    2912399.4   -539821.23    36429.222   -576250.45   -560.67732   -30.142464    794.66007    134.94871    134.42267    29.952181 
   49600    225.49048   -11.013014    2912399.4   -539808.35    36436.943   -576245.29   -745.12904   -50.789319    565.65942    134.94905    134.42637    29.955856 
   49800    225.13923    2.9278654    2912399.4    -539845.2    36380.184   -576225.38   -511.21068   -42.643407    1113.4494    134.94898    134.42976    29.954667 
   50000    224.79189    8.1171067    2912399.4    -539892.6    36324.058   -576216.66   -473.75592   -22.898504    941.15483    134.95269     134.4308    29.949012 
   50200    224.69408   -12.907764    2912399.4   -539919.46    36308.251   -576227.71   -765.40967   -52.743657    510.27778    134.95575    134.42943    29.949786 
   50400    224.97006   -1.9691079    2912399.4   -539939.05    36352.847    -576291.9   -583.46824   -27.132407    507.47073    134.95771    134.43231    29.954821 
   50600    224.90297   -10.106312    2912399.4    -539942.2    36342.006   -576284.21   -723.02542   -60.174313    824.46685    134.95735    134.43213     29.95586 
   50800    224.79662     15.75176    2912399.4   -539898.68     36324.82    -576223.5   -341.15819   -45.142682    1842.2779    134.95785    134.43366    29.957742 
   51000    225.01924    3.5677046    2912399.4   -539845.27    36360.795   -576206.07   -564.42879   -49.531816    1302.0633    134.95789    134.43394    29.955874 
   51200    225.24901    3.3108156    2912399.4   -539808.86    36397.923   -576206.78   -447.67932   -45.279335     1192.868    134.95822    134.43294    29.952878 
   51400     224.9874   -3.2978637    2912399.4   -539812.57    36355.649   -576168.22   -568.31852   -52.674788    1012.7347    134.95898    134.43242     29.94789 
   51600    224.67526    3.2262136    2912399.4   -539886.39    36305.211    -576191.6   -559.75915   -43.297247    1143.8146    134.95406    134.43365    29.945793 
   51800    225.13021   -2.9031737    2912399.4      -539948    36378.727   -576326.73   -630.93573    -49.26053    956.58075    134.95161    134.43263    29.941381 
   52000    225.07539    6.8940865    2912399.4   -539945.37    36369.868   -576315.24   -495.24354   -29.555296    1026.8543    134.95152    134.43283    29.939595 
   52200    225.19236    21.406543    2912399.4   -539858.04    36388.769   -576246.81   -269.25056   -8.8821383    1322.6363    134.95204    134.43362     29.94053 
   52400    225.40761   -6.1413091    2912399.4   -539784.89    36423.551   -576208.44   -673.28479   -56.418335    947.87183    134.94944     134.4365    29.940433 
   52600    225.22234   -2.4422521    2912399.4   -539806.55    36393.613   -576200.16   -614.92067   -42.394939    826.21177    134.95102     134.4371    29.942459 
   52800    224.96511   0.20182187    2912399.4   -539866.09    36352.047   -576218.14   -581.94773   -60.523812    1372.9611    134.95224    134.43896    29.945033 
   53000    225.00815   0.63730704    2912399.4   -539875.74    36359.003   -576234.74   -637.21903   -60.064715    1385.4667    134.95355    134.44353    29.948375 
   53200    224.86934    -12.16389    2912399.4   -539850.74    36336.572   -576187.32   -820.03759   -81.944558    1206.5967    134.95347    134.44818    29.946288 
   53400     224.7279   -12.294982    2912399.4   -539801.31    36313.717   -576115.03     -771.866   -66.952425    862.25206     134.9517    134.45003    29.945304 
   53600    225.46278   -13.836539    2912399.4   -539708.29    36432.466   -576140.75   -683.93714   -48.494757    365.92495    134.95143    134.44888    29.948905 
   53800    225.60136    -18.74975    2912399.4   -539686.73    36454.859   -576141.59   -843.62305   -74.926234    703.20956     134.9524    134.44855    29.943974 
   54000     225.1111   -6.0397298    2912399.4   -539820.25    36375.638   -576195.89   -633.06121   -45.345845    703.96029    134.95211     134.4526     29.94334 
   54200    225.23694   -15.786026    2912399.4   -539882.64    36395.973   -576278.61   -799.51601   -44.584503    175.66202    134.95191    134.45032    29.938204 
   54400    224.76776    3.5615566    2912399.4   -539937.29    36320.159   -576257.45   -488.06236    -25.97096    771.39169    134.95078    134.45019    29.940052 
   54600    225.15236    5.3922547    2912399.4    -539961.5    36382.305    -576343.8   -428.92229    -27.76491    907.78706    134.95028     134.4488    29.942986 
   54800    225.08696    21.930514    2912399.4   -539953.07    36371.737   -576324.81   -272.64622   -14.152374    1468.7486    134.95209    134.44709    29.944826 
   55000    225.24332    12.761342    2912399.4      -539926    36397.003   -576323.01   -322.32824   -4.5881622    772.56813    134.95346    134.44841    29.948378 
   55200    225.24691    6.5002232    2912399.4   -539876.09    36397.583   -576273.67   -523.68606   -15.754387    695.54237     134.9524    134.44817    29.948849 
   55400    224.96619   -2.3338886    2912399.4   -539853.54    36352.221   -576205.76    -606.9829    -34.38412    651.57351    134.95263     134.4472    29.954007 
   55600    225.08411   -3.2401628    2912399.4   -539929.97    36371.277   -576301.25   -604.89538   -36.199312    644.90197     134.9504    134.44624    29.951965 
   55800    225.00856   -10.834717    2912399.4   -539994.54    36359.069   -576353.61   -674.44054   -49.953769    556.20245    134.95156    134.44378    29.944143 
   56000    225.21376    16.675642    2912399.4   -539970.56    36392.226   -576362.78   -311.46997   -16.271255    1240.8436    134.95227    134.44125    29.942175 
   56200     225.0951   -13.377316    2912399.4   -539927.73    36373.053   -576300.79   -720.42973   -69.072253    853.20406    134.95097    134.44127    29.939277 
   56400    225.09267   -8.8223894    2912399.4    -539854.7    36372.661   -576227.36   -662.53142    -44.07881    529.49843    134.95358    134.44113    29.940094 
   56600    225.48432    7.8937936    2912399.4   -539737.47    36435.947   -576173.42   -359.59135   -10.131276    642.05561    134.95551    134.43936    29.943221 
   56800     225.3198   -7.7445679    2912399.4   -539770.13    36409.363   -576179.49   -706.23879   -35.175364    385.61218     134.9532     134.4409    29.947312 
   57000    224.91247    5.1996158    2912399.4   -539862.58    36343.541   -576206.13   -471.27183   -11.511651    531.82691    134.94799    134.44323    29.948915 
   57200    224.77575   -4.6186576    2912399.4   -539891.94    36321.448   -576213.39   -626.87861   -32.508518    489.52567    134.94791    134.44257     29.94688 
   57400    225.02003   -5.2523515    2912399.4   -539872.49    36360.922   -576233.41   -577.02187   -33.395449    476.25515    134.94929    134.44366    29.949224 
   57600    225.25445    12.379066    2912399.4   -539818.52    36398.802   -576217.32   -328.88121   -14.479921    975.18006     134.9455    134.44313    29.944766 
   57800    225.37021   -12.452971    2912399.4   -539711.78    36417.507   -576129.28   -760.63342   -65.909203    830.48336    134.94631    134.44469    29.943357 
   58000    225.39029    11.473849    2912399.4   -539732.21    36420.751   -576152.96   -396.86422   -13.631382    908.60406    134.94786     134.4462     29.94825 
   58200    225.07882   -4.0825077    2912399.4   -539805.58    36370.423      -576176   -630.91261   -49.658846    903.69463    134.94301    134.44523    29.947773 
   58400    225.50782    -2.240938    2912399.4   -539832.39    36439.744   -576272.14   -575.53101   -49.899534    1005.6966    134.94003    134.44617    29.949669 
   58600    225.06739   -28.452094    2912399.4   -539875.72    36368.575   -576244.29   -1046.7185   -94.775611    641.15868    134.94037    134.44792    29.946896 
   58800    225.04708    -18.27553    2912399.4   -539925.96    36365.293   -576291.25   -827.86069   -68.273936    578.33923    134.94065    134.44747      29.9512 
   59000    224.87959   -13.969073    2912399.4   -539997.78    36338.228   -576336.01   -731.31268   -46.515187    314.41434    134.93759    134.44409    29.955214 
   59200    224.57737   -8.3465067    2912399.4   -540054.67    36289.393   -576344.06   -701.64667   -47.156668    623.73874    134.93571    134.44539    29.950187 
   59400    224.76093   -14.579388    2912399.4   -540048.38    36319.054   -576367.43   -817.68663   -46.024273      271.355    134.93366    134.44642      29.9503 
   59600    225.07533    27.028983    2912399.4   -539938.79    36369.858   -576308.65    -172.0899    4.5448966    1315.2752    134.93408    134.44596     29.94938 
   59800     225.2008  -0.44204371    2912399.4   -539894.67    36390.132   -576284.81   -580.98397   -40.099523    879.44675    134.93465    134.44544    29.953084 
   60000     224.8297    8.2309667    2912399.4   -539916.42    36330.167   -576246.59   -478.69603    -25.80461    1012.5421    134.93709    134.44463    29.953466 
   60200    224.85419    7.8767196    2912399.4   -540004.85    36334.124   -576338.98    -467.8446   -15.096036    752.91567    134.93506    134.44303    29.953746 
   60400    224.53803    8.0661671    2912399.4   -540065.62    36283.036   -576348.65   -453.74886   -32.168478    1147.1481    134.93456    134.43995    29.956354 
   60600    224.88972    3.1650688    2912399.4   -540039.68    36339.865   -576379.54   -572.32212   -36.777775      993.856    134.93335    134.43937    29.957394 
   60800    224.98343   -12.883071    2912399.4      -539996    36355.008      -576351   -679.35642   -48.258838    410.62068    134.93358    134.44001    29.959435 
   61000    225.36192    18.613659    2912399.4   -539946.24    36416.168   -576362.41   -311.42061   -7.8297454    1152.4698    134.93325    134.43882    29.956013 
   61200    225.37334    8.5906109    2912399.4    -539935.7    36418.013   -576353.72   -465.43927   -49.803589    1571.6154     134.9337    134.44103    29.947493 
   61400     224.9672   -13.280897    2912399.4   -539946.08    36352.386   -576298.46   -736.59907   -36.929842    134.74313    134.93449     134.4414     29.94987 
   61600    225.27941     4.409134    2912399.4   -539962.81    36402.835   -576365.64   -487.85783   -21.913964    724.52232    134.93537    134.44157    29.952647 
   61800    224.79611   -4.9557993    2912399.4    -539970.6    36324.738   -576295.34   -593.63108     -30.1092    417.83566    134.93596    134.44409    29.954129 
   62000    225.10257    13.668593    2912399.4   -539958.89    36374.259   -576333.15   -340.82613   -22.037205    1212.9241    134.93386    134.44566    29.953155 
   62200    225.13646    12.062617    2912399.4   -539920.38    36379.736   -576300.11   -425.74171   -30.139801    1311.0835    134.93045    134.44715    29.950748 
   62400    225.37782    2.2387955    2912399.4   -539855.17    36418.737   -576273.91   -534.51034    -20.68059    582.93236    134.92808    134.44505      29.9524 
   62600    225.49866    5.3810638    2912399.4   -539905.24    36438.263    -576343.5   -428.74136   -38.267297    1143.6063     134.9277     134.4469    29.954483 
   62800    224.95892    8.3935181    2912399.4   -539995.16    36351.047   -576346.21   -421.39825   -10.773622    682.72355    134.92848     134.4462    29.952643 
   63000    224.95225    9.5873968    2912399.4   -540012.09     36349.97   -576362.06   -395.66372   -14.276312    824.18319    134.93026    134.44488    29.951026 
   63200     225.3224   -13.061393    2912399.4   -539995.56    36409.782   -576405.34   -838.20448   -67.623624    837.16489    134.93079    134.44123    29.944421 
   63400    225.06404   -16.301226    2912399.4   -539923.19    36368.034   -576291.22   -802.21498   -50.930724    291.49339     134.9322    134.44058    29.944878 
   63600    225.38776   -13.586657    2912399.4   -539828.79    36420.343   -576249.13   -705.87025    -44.93554    298.91335    134.93396    134.44026     29.95094 
   63800    225.15744   -16.215605    2912399.4   -539874.38    36383.127   -576257.51   -799.61293   -56.443383    420.07254    134.93302    134.43644    29.946312 
   64000    224.91902   -10.633991    2912399.4   -539950.87      36344.6   -576295.47   -678.58284   -30.647411     132.1485    134.93329    134.43639    29.942374 
   64200    225.29005   -12.385247    2912399.4   -539977.96    36404.555   -576382.51   -708.73169    -59.51596    690.12494    134.93561    134.43352    29.947666 
   64400    224.81192   -2.9594575    2912399.4   -540032.62    36327.294   -576359.92     -605.224   -44.526603    847.06931    134.93525    134.43427    29.950422 
   64600    224.72615    1.4653521    2912399.4   -540086.37    36313.433   -576399.81   -556.63344    -57.31424    1366.9824    134.93266    134.43519    29.947731 
   64800     225.0961    4.0946211    2912399.4   -540106.95    36373.215   -576480.16   -538.33544   -41.215246    1142.4943    134.93208    134.43403    29.954146 
   65000    225.21105  0.089068839    2912399.4   -540030.69    36391.788   -576422.48   -598.00284    -39.67371    897.71689    134.93118    134.43444    29.953117 
   65200    225.60514      13.3849    2912399.4   -539949.15     36455.47   -576404.62   -303.27433    4.1752725    608.00888    134.93142    134.43608    29.955171 
   65400    225.37139  -0.88446282    2912399.4   -539972.93    36417.698   -576390.63   -560.75947   -19.601853     394.8458    134.92998    134.43741    29.956321 
   65600    224.64039    6.7598591    2912399.4   -540066.43    36299.577      -576366   -374.19633    6.8891116    199.45978      134.927    134.43783    29.958948 
   65800    225.05705   -15.235403    2912399.4   -540081.24    36366.904   -576448.15   -816.71634   -67.633332    723.36386    134.92261    134.43973    29.960983 
   66000    225.02969    3.0240497    2912399.4   -540049.11    36362.483    -576411.6   -583.06939   -45.598646    1185.0157    134.91872    134.43808    29.959016 
   66200    225.17071    3.9860231    2912399.4   -540006.61    36385.271   -576391.88   -510.68383   -41.938313    1153.0748     134.9193    134.43878    29.957739 
   66400      225.571   -2.6823793    2912399.4   -539920.35    36449.953    -576370.3   -616.78672   -33.206764    606.79433    134.91809    134.43685    29.955606 
   66600    225.57837    12.608569    2912399.4   -539842.84    36451.144   -576293.99   -302.46512   -9.8521618    883.04701    134.91794    134.43839    29.956617 
   66800     225.0385   -4.1423712    2912399.4   -539917.04    36363.907   -576280.94   -605.63942   -32.528731    514.96029     134.9167    134.43778    29.959939 
   67000     224.8294    11.236416    2912399.4   -539985.24    36330.119   -576315.36   -309.94441   -9.4280139    801.53473    134.91511    134.43596    29.959258 
   67200    225.10573   0.60109254    2912399.4   -540029.64     36374.77    -576404.4   -515.05646   -36.863846    861.32148    134.91404    134.43584    29.965811 
   67400    224.58979    8.0791955    2912399.4   -540069.21    36291.399   -576360.61   -412.36294   -27.203586    1036.0729    134.91187    134.43526    29.963156 
   67600    224.89515   -15.670637    2912399.4   -540067.52    36340.742   -576408.26   -788.03254   -66.398844    672.74928    134.90966    134.43807    29.960581 
   67800    225.19701   -11.253034    2912399.4   -539944.58    36389.519    -576334.1   -690.63721   -54.654146    640.06751    134.90518    134.43773    29.958061 
   68000    224.96268   -9.4103945    2912399.4   -539900.46    36351.654   -576252.12   -649.65916   -46.481256    552.73801    134.90373     134.4398    29.956683 
   68200    225.12292   -22.629419    2912399.4   -539918.39    36377.547   -576295.94   -877.50553   -72.918722    454.54531    134.90199    134.44327     29.95472 
   68400    224.90113   -11.282431    2912399.4   -539988.93    36341.709   -576330.64   -752.67679   -77.134239    1144.5471    134.90019    134.44539    29.954739 
   68600    225.24809    3.6077736    2912399.4   -540047.37    36397.775   -576445.14   -534.42379   -52.060436    1361.0834    134.89686    134.44638    29.957036 
   68800    224.49887   -8.9823882    2912399.4   -540026.43    36276.707   -576303.14   -683.81871   -50.205609    659.01979    134.89391    134.44674    29.959479 
   69000    225.23756   -14.599782    2912399.4   -539887.86    36396.072   -576283.94   -800.85259   -59.564849    575.08047    134.89005    134.44707    29.958923 
   69200    225.38417   -6.9347695    2912399.4   -539883.76    36419.763   -576303.53   -606.38352   -44.631658    640.94227     134.8865    134.44836     29.95978 
   69400    225.22895   -14.492896    2912399.4   -539943.93    36394.681   -576338.61   -690.20292   -43.093269    209.91506     134.8842    134.44653    29.963912 
   69600    224.90068    14.882892    2912399.4   -540017.34    36341.636   -576358.97   -346.47883   -8.4750494    971.32917     134.8822    134.44418    29.965064 
   69800    224.90453   -3.4205579    2912399.4   -540022.17    36342.258   -576364.43   -556.14788   -34.845987    604.97785    134.87889    134.44367    29.969201 
   70000    225.13626    5.7242512    2912399.4   -539956.16    36379.704   -576335.86   -425.30639   -10.542983    537.53779    134.87705    134.44348     29.96895 
   70200    225.05976    10.687256    2912399.4   -539836.67    36367.342   -576204.01   -328.19738   -9.8887195     783.1035    134.87386    134.44556      29.9733 
   70400    225.11143    7.6068684    2912399.4   -539816.73    36375.691   -576192.42   -463.94245   -24.275404    945.38822    134.87283    134.44649    29.974608 
   70600    225.20207   0.97765969    2912399.4   -539861.97    36390.338    -576252.3   -501.59826   -40.849116    970.77861    134.87047    134.44901    29.972353 
   70800    225.39581   -12.642617    2912399.4   -539940.94    36421.645   -576362.59   -723.94994    -59.22826     670.1507    134.86625    134.45003    29.974167 
   71000    225.03699   -2.8848117    2912399.4   -540002.11    36363.662   -576365.77   -533.61155    -32.55169    581.43188    134.86171     134.4506    29.973827 
   71200    224.89465   -18.760605    2912399.4   -540011.28    36340.663   -576351.94   -858.22814   -59.782879    361.76707    134.85991    134.44966    29.969467 
   71400    225.31177    -10.43969    2912399.4   -539964.51    36408.064   -576372.57   -682.96502    -30.10422    130.11183    134.85623    134.44581    29.964912 
   71600    225.35486   -8.1562885    2912399.4   -539838.16    36415.026   -576253.19   -697.28675   -37.342185    412.79341    134.85357    134.44559    29.964589 
   71800    225.58449     8.892499    2912399.4   -539838.96    36452.133   -576291.09   -434.35791   -24.279166    1012.8999    134.85174    134.44468    29.961319 
   72000    225.36076    1.6072946    2912399.4   -539896.44     36415.98   -576312.42   -559.87699   -53.077824    1279.0661    134.85179     134.4447    29.957773 
   72200    225.07374     1.961214    2912399.4   -539937.54    36369.601   -576307.14   -510.72917   -25.010351    665.83601    134.85184    134.44348    29.957076 
   72400    224.92931   -7.4269196    2912399.4   -539956.21    36346.262   -576302.47    -621.0454   -50.602709    749.53753     134.8476    134.44427    29.957251 
   72600     225.2828   -5.3131586    2912399.4   -539942.21    36403.384   -576345.59   -677.54779   -37.846882    573.26667    134.84607    134.44779    29.959912 
   72800    225.42382    7.1541601    2912399.4   -539901.53    36426.171    -576327.7   -393.24431   -23.576669    905.91682    134.84218    134.44937    29.957878 
   73000    225.34052    -15.82752    2912399.4   -539902.62     36412.71   -576315.33   -738.28228   -58.629172     489.6279    134.84202    134.45004    29.959842 
   73200    225.29955   -14.512516    2912399.4   -539956.54    36406.089   -576362.63   -801.61383   -51.562659    399.52996    134.84315    134.44813    29.958532 
   73400    224.86447   -3.4024509    2912399.4   -540011.66    36335.785   -576347.45   -615.77199   -55.257248      1065.38    134.84111    134.44886    29.958392 
   73600    225.10359    1.0543805    2912399.4   -539995.83    36374.424   -576370.26   -575.20467   -67.688135    1578.9421    134.84096    134.44983    29.957822 
   73800    225.28538   -11.191215    2912399.4   -539874.32      36403.8   -576278.12   -666.14565   -35.637642     215.2528    134.84295    134.45098    29.953811 
   74000    224.91113    7.0876262    2912399.4   -539838.75    36343.324   -576182.08    -394.0469   -19.784524    817.06708    134.84064    134.44837    29.957126 
   74200    225.20413   -4.3191891    2912399.4    -539840.3    36390.671   -576230.97   -597.22339   -41.111744    698.88829    134.84023    134.44656    29.956122 
   74400    225.18468   -4.9879643    2912399.4   -539869.86    36387.528   -576257.39   -691.78582   -50.946905    885.20035    134.84042    134.44679    29.954857 
   74600    224.93564     9.453891    2912399.4   -539981.81    36347.285    -576329.1   -391.48026   -9.8458894    717.45352    134.84411    134.44421    29.949678 
   74800    224.63746   -5.0148321    2912399.4   -540017.89    36299.103   -576316.99   -650.67888   -37.632914    584.09653    134.84623    134.44406    29.944025 
   75000    225.00388    32.024466    2912399.4   -539970.42    36358.313   -576328.73   -46.190546   -1.2827372    1708.4502    134.84628    134.44546    29.944533 
   75200    225.24805    17.426344    2912399.4   -539918.32    36397.768   -576316.09   -262.64782   -19.304335    1348.4893    134.84883    134.44577    29.946493 
   75400    224.96316    -10.38555    2912399.4    -539884.3    36351.733   -576236.04   -696.23158   -42.490458    411.76247     134.8494    134.44595    29.948839 
   75600    225.22425    4.5810766    2912399.4   -539886.44    36393.921   -576280.36    -435.6346   -30.223831    920.59319    134.84779    134.44544    29.947289 
   75800    225.15013     8.369527    2912399.4   -539913.42    36381.945   -576295.37   -404.91024     -9.11274    644.07924    134.84715    134.44531    29.948088 
   76000    224.64584   -9.1300863    2912399.4    -539970.5    36300.456   -576270.96   -677.28637   -30.924073    217.25084    134.84499    134.44503    29.947519 
   76200    225.06923   -15.128199    2912399.4    -540019.9    36368.871   -576388.77   -758.07083   -45.589163    232.77749    134.84365    134.44402    29.948194 
   76400    224.67503    11.254114    2912399.4   -540066.19    36305.173   -576371.37   -380.58065   -20.939479    1061.5832    134.84348     134.4445    29.951405 
   76600    225.05715    4.7373937    2912399.4   -540102.06     36366.92   -576468.98   -455.73347   -43.036625    1217.2044    134.84554    134.44246    29.952807 
   76800    224.61973     11.62039    2912399.4   -540070.97    36296.238   -576367.21    -378.9858     -14.2725    930.72109     134.8468    134.43782    29.953264 
   77000    225.45205    26.126661    2912399.4   -539977.08    36430.732   -576407.81   -196.09507   -14.652492      1700.08     134.8506    134.43601    29.958356 
   77200    225.09496    2.4347882    2912399.4   -539970.84    36373.029   -576343.87    -514.3827   -22.546203    635.20602    134.84943     134.4372    29.962579 
   77400    224.76241   -5.0583784    2912399.4   -540051.75    36319.293   -576371.05   -614.22556   -31.785635    450.19187    134.84909    134.43755    29.959699 
   77600    225.05047    7.2574696    2912399.4   -540090.44    36365.841   -576456.28   -483.23729   -27.826049    1006.9876    134.85418    134.43793    29.956221 
   77800     224.8487   -4.4399646    2912399.4   -540067.01    36333.238   -576400.25   -620.26622   -48.893566    867.72094    134.86115    134.43899    29.955406 
   78000    224.85261   0.20030632    2912399.4   -540043.72    36333.868   -576377.58   -596.88724   -46.542852    1058.1736    134.86499    134.44002    29.956285 
   78200    224.95136    3.4833001    2912399.4   -540022.86    36349.826   -576372.69   -511.28925   -21.608251    669.08389    134.86402    134.44115    29.956344 
   78400    224.89281    7.1480192    2912399.4   -539984.28    36340.364   -576324.64    -455.1812   -11.201951    627.04287    134.86697    134.44507    29.953403 
   78600     225.8316     15.23105    2912399.4   -539898.71    36492.064   -576390.77   -348.05444   -19.430466    1236.1927    134.86946    134.44622     29.95185 
   78800    225.30429    -6.549971    2912399.4   -539826.46    36406.855   -576233.31    -678.2801   -54.631327    886.21376    134.87045    134.44333    29.951747 
   79000    225.53197    17.819339    2912399.4   -539876.96    36443.647   -576320.61   -362.65698   -9.7301897    1153.5889    134.87112    134.44084    29.953896 
   79200    225.15762    11.840616    2912399.4   -539975.32    36383.155   -576358.48   -384.59006   -22.588396      1129.46    134.86805    134.44038    29.953905 
   79400    225.00925     13.40146    2912399.4   -539984.11     36359.18   -576343.29   -334.86418   -7.0018411    860.47147    134.86723    134.44162    29.950343 
   79600    225.19319     9.426726    2912399.4   -539954.29    36388.903   -576343.19   -431.70983 -0.031050448    495.09918    134.86304    134.44224    29.948702 
   79800    225.29983    18.165511    2912399.4   -539870.04    36406.136   -576276.17   -299.68273    2.3576024    899.65124    134.86264    134.44001    29.942705 
   80000    225.56224    11.190588    2912399.4   -539831.81    36448.537   -576280.35   -365.86393    -30.96221    1283.8607    134.86201     134.4396    29.943414 
   80200    225.13051   -3.1054303    2912399.4      -539880    36378.775   -576258.77   -662.53515   -54.258086    1058.4668    134.85889    134.43676    29.939411 
   80400    225.31063  -0.82487215    2912399.4   -539923.24    36407.881   -576331.12   -526.02572   -31.878095    674.30634    134.85684    134.43438     29.94094 
   80600      225.444    12.496447    2912399.4   -539968.07    36429.432    -576397.5   -302.17011    5.4597355    532.49952     134.8559    134.43483    29.939447 
   80800    224.63583   -13.032351    2912399.4   -540025.11    36298.839   -576323.95   -750.27854   -40.021176     217.3637    134.85346    134.43581    29.939164 
   81000    224.89012    8.4967499    2912399.4   -540030.77     36339.93    -576370.7   -373.80396   -4.4459401    545.70313    134.85144     134.4352    29.941604 
   81200    225.10791   -11.795549    2912399.4    -540020.2    36375.123   -576395.33   -665.69539   -47.737678    455.92637    134.85115    134.43816      29.9423 
   81400    225.01582    2.9735979    2912399.4   -539964.26    36360.241    -576324.5   -486.25094   -35.652469    958.48362    134.84944     134.4416    29.938619 
   81600    225.39509   -11.563796    2912399.4   -539937.27    36421.527    -576358.8   -731.70497   -72.757974    1031.2818    134.84573    134.44273    29.934065 
   81800    225.09168    7.5319389    2912399.4   -540013.48      36372.5   -576385.98   -482.19261   -27.670536     1017.882    134.84397    134.44419    29.932056 
   82000    225.15235    3.8056206    2912399.4   -540090.39    36382.303   -576472.69   -471.31342   -5.0860001    314.07669    134.84067    134.44461    29.934489 
   82200     224.7933   -15.923759    2912399.4   -540115.99    36324.285   -576440.28   -851.86939   -50.563781    303.03047    134.83839    134.44563    29.942993 
   82400     224.8878   -7.2397178    2912399.4   -540094.88    36339.555   -576434.44   -616.13755    -32.40966    349.83455    134.83697    134.44784    29.938202 
   82600    225.13007   -10.917592    2912399.4    -540005.1    36378.704    -576383.8   -659.49923   -35.914027     235.8248    134.83763    134.44742    29.938804 
   82800    225.34112    1.8500502    2912399.4   -539930.19    36412.807   -576342.99    -508.7082   -45.588605    1123.2173    134.83885    134.44722     29.93764 
   83000    225.37841   -9.5684661    2912399.4   -539972.62    36418.833   -576391.45   -715.52089   -37.299595    337.77075    134.83531     134.4491    29.941095 
   83200    225.10285   -8.2402086    2912399.4   -540014.12    36374.305   -576388.42   -748.37011   -57.975332     872.8392    134.83579    134.45131    29.942824 
   83400    225.11936   -7.9383028    2912399.4   -540052.01    36376.972   -576428.98   -700.59591   -41.857173    525.85732    134.83372    134.45274    29.942797 
   83600     225.1442    1.0117356    2912399.4   -540081.88    36380.987   -576462.86   -522.81002   -41.804174    994.06389    134.82958    134.45709    29.941489 
   83800    225.12443   -12.654176    2912399.4   -540088.52    36377.792   -576466.31   -725.79349   -57.127597    622.25905    134.82622    134.46123    29.940379 
   84000    225.30281    20.890533    2912399.4   -540074.73    36406.616   -576481.35   -278.16394   -17.921667    1499.0509    134.82771    134.46338    29.940807 
   84200     224.8863    35.721154    2912399.4   -540060.84    36339.312   -576400.15   -59.519092    11.611149    1612.0909    134.83073    134.46386    29.938405 
   84400    225.33314    14.574464    2912399.4    -540033.1    36411.517   -576444.62   -384.41079   -13.257296    1062.8003    134.83154    134.46699    29.939847 
   84600    224.93521    2.1731134    2912399.4   -539972.53    36347.216   -576319.74   -517.17661   -17.363332     504.8169    134.83266    134.46744    29.940625 
   84800    224.99424      4.06112    2912399.4   -539906.54    36356.755   -576263.29   -482.16155   -11.221153    465.57757    134.83252    134.46818    29.939085 
   85000    225.46202    4.3710423    2912399.4   -539891.58    36432.343   -576323.92   -411.45153   -34.933809     1015.598    134.83295    134.47156    29.940346 
   85200    224.97524   0.84248761    2912399.4    -540026.1    36353.685   -576379.79   -570.57023   -27.207779    656.62613     134.8313    134.47589    29.937985 
   85400    225.14831   -4.5544399    2912399.4   -540073.09    36381.651   -576454.74   -634.67687   -51.472027    919.75762    134.82923    134.47762    29.938713 
   85600    224.66639   -3.2086637    2912399.4   -540051.52    36303.778    -576355.3   -611.03167   -34.882879    616.92142     134.8272    134.48001    29.938775 
   85800    225.05509    10.678286    2912399.4   -539965.53    36366.587   -576332.12   -355.66581   -22.464501    1065.7108     134.8228    134.48117    29.935529 
   86000    225.66522    10.155809    2912399.4   -539925.06    36465.179   -576390.24   -389.60877   -1.0436942    556.13149    134.82233     134.4808    29.934933 
   86200    224.95236    13.325814    2912399.4   -539944.32    36349.987   -576294.31   -354.08537   -3.5604518    779.03928    134.81844    134.47999    29.932711 
   86400    224.99257   -6.3128688    2912399.4   -540011.38    36356.484   -576367.87   -693.30746    -48.12127    752.10918     134.8193     134.4818    29.933993 
   86600     224.6147   -10.091249    2912399.4   -540137.84    36295.425   -576433.27   -747.56063   -56.109318    733.75479    134.82005     134.4813    29.939169 
   86800    224.31483    5.0203366    2912399.4   -540116.28    36246.969   -576363.25   -474.12659   -11.701156    526.69002    134.81982    134.48301    29.942506 
   87000     225.1319   0.83526945    2912399.4   -540036.59    36378.999   -576415.59   -531.09667   -37.851236    895.82916    134.81952    134.48415    29.942921 
   87200    224.93125  0.044226136    2912399.4   -539978.74    36346.576   -576325.32   -623.66865   -45.597776    1028.7143    134.81816    134.48461    29.940881 
   87400    225.50872    1.1258455    2912399.4   -539949.53    36439.889   -576389.42   -566.09032    -49.13114    1164.9768    134.81436    134.48535    29.940193 
   87600    225.14365   -13.553297    2912399.4   -539931.92    36380.898   -576312.81   -742.29534    -57.69599    587.89754    134.81299    134.48969    29.936968 
   87800     225.2538   -8.2152101    2912399.4   -539850.73    36398.697   -576249.43   -724.94363   -52.523567    751.43238    134.81194    134.49168    29.937141 
   88000    225.27982    9.0978941    2912399.4   -539799.32    36402.901   -576202.22   -465.57419   -24.994904    1039.7833    134.81169    134.49364    29.933933 
   88200     225.1561   -1.1033521    2912399.4   -539869.65     36382.91   -576252.56   -542.17227   -37.874534    794.67939    134.81261      134.497    29.928373 
   88400     225.2381    8.3233326    2912399.4   -539954.13     36396.16   -576350.28   -380.43293   -39.331538    1321.8743    134.81075    134.49838    29.927499 
   88600    225.05943  -0.59296103    2912399.4   -539955.11    36367.289    -576322.4   -600.85164   -28.783701    616.81526     134.8103    134.49786    29.928239 
   88800    225.17312   -7.2388401    2912399.4    -539910.1    36385.659   -576295.76   -654.66366   -42.191246    570.06171    134.81239    134.49956    29.930372 
   89000    225.24833    4.2176823    2912399.4   -539839.79    36397.814    -576237.6     -587.384    -58.02396    1527.3085    134.81074    134.50038    29.929254 
   89200    225.18146    19.459054    2912399.4   -539779.74    36387.008   -576166.75   -253.99386    12.634357    736.16599    134.81286    134.50022    29.930061 
   89400    225.25339   0.34133459    2912399.4   -539785.04    36398.631   -576183.68   -541.18377   -28.411201    657.43105    134.81482    134.49764    29.932239 
   89600    225.24042   0.28976538    2912399.4    -539897.8    36396.535   -576294.34   -550.12582     -24.3371    563.01941    134.81443    134.49965    29.934645 
   89800    224.66342    11.965489    2912399.4   -539968.41    36303.298   -576271.71   -361.41714   -23.745138    1162.0471     134.8114    134.49904    29.931663 
   90000    225.03053    7.0945135    2912399.4   -539994.99    36362.618   -576357.61   -457.64299   -47.431001    1439.7438    134.80668    134.49998    29.931752 
   90200    224.95502    16.910152    2912399.4   -539951.36    36350.418   -576301.78   -350.22806   -17.602128    1283.1005    134.80386    134.50107    29.931673 
   90400    224.49927   -5.9094523    2912399.4   -539847.69    36276.772   -576124.47   -644.91047   -59.323151    1025.4186    134.80079    134.49913    29.929223 
   90600    225.26704   -2.6784415    2912399.4   -539821.63    36400.836   -576222.46   -564.55833   -31.362321     565.4829     134.7966    134.49981    29.925461 
   90800    225.18301   -6.6048047    2912399.4   -539862.92    36387.258   -576250.17   -683.38707   -57.907057     957.0738    134.79372    134.50126    29.928438 
   91000    225.25569   -1.5443931    2912399.4   -539902.37    36399.002   -576301.38   -613.83754   -47.904086    997.31103    134.79241    134.50203    29.930927 
   91200    225.01471    20.298827    2912399.4   -539954.46    36360.062   -576314.53   -340.40708   -29.290115    1723.9189    134.79135    134.50179    29.934876 
   91400    224.62151    19.721403    2912399.4   -540047.78    36296.526   -576344.31   -274.73906   -7.0857158    1193.8193    134.78865    134.50001    29.938673 
   91600    224.98089    11.600917    2912399.4   -540007.21    36354.597   -576361.81   -386.72472   -7.1876494     770.2215    134.79045    134.49713    29.938057 
   91800    225.38168    4.4227794    2912399.4   -539920.35     36419.36   -576339.71   -511.79926   -23.069107    751.23995     134.7915    134.49899    29.937251 
   92000    224.78193    1.1822746    2912399.4   -539898.37    36322.447   -576220.82   -548.41495   -37.404491    903.97231    134.79062    134.49919    29.938736 
   92200    225.42318   -6.2766136    2912399.4   -539891.09    36426.067   -576317.16   -620.84894   -37.678314    518.94226    134.79032    134.49711    29.936323 
   92400    225.26036    4.0956095    2912399.4   -539902.62    36399.758   -576302.38   -454.03993   -17.151062    600.86723    134.78941    134.49533    29.933246 
   92600    224.81432    10.559016    2912399.4   -539957.02    36327.682    -576284.7   -419.95312   -16.740545    930.61067    134.78927    134.49225    29.935876 
   92800     224.6311    12.959039    2912399.4   -540044.36    36298.076   -576342.43   -397.27644   -19.235784    1112.6511    134.79357    134.48776    29.935374 
[...]
 2391000    224.47438   -18.383992    2912399.4   -540788.32     36272.75   -577061.07    -802.3086   -27.678037   -341.15303    134.39888    134.71304    29.884586 
 2391200    224.44134     -15.3594    2912399.4   -540737.34    36267.412   -577004.75   -726.18024   -52.063594    366.38961    134.39631    134.71439     29.88609 
 2391400    224.75846    12.192303    2912399.4      -540671    36318.655   -576989.65   -294.51198   -13.140005    935.22383    134.39417    134.71865    29.886255 
 2391600    224.52932   -30.300889    2912399.4   -540670.35    36281.628   -576951.98   -985.22567   -75.011461    99.309398    134.39209     134.7183    29.888065 
 2391800    224.43281    7.4231183    2912399.4   -540801.01    36266.034   -577067.05   -395.33396    -33.46881    1142.6925    134.39131    134.71732    29.885297 
 2392000    224.08476   -22.220356    2912399.4   -540863.31    36209.792    -577073.1    -846.0523   -66.483543    331.14501    134.38906    134.71683    29.882277 
 2392200    224.55811      2.82479    2912399.4   -540880.74    36286.281   -577167.03   -471.66239   -31.526096    857.79551      134.384    134.71851    29.885109 
 2392400    224.22647   -4.1225133    2912399.4   -540871.81    36232.691    -577104.5   -563.52717   -8.7516734      -19.214    134.38036    134.71888    29.884463 
 2392600    224.42593   -13.939867    2912399.4   -540809.66    36264.922   -577074.58   -701.08706   -34.737525     50.83384    134.37755    134.71818    29.885346 
 2392800    224.34098    -9.728519    2912399.4   -540721.69    36251.194   -576972.88   -699.28927   -39.539491    379.79602    134.37233    134.71971    29.883951 
 2393000    224.41966   -13.265403    2912399.4   -540704.49    36263.908    -576968.4   -690.55352   -61.319754    684.56665    134.37019     134.7211    29.884346 
 2393200    224.62699   -10.336984    2912399.4    -540700.2     36297.41   -576997.61   -688.09999   -37.556453    303.24637    134.36884    134.72171    29.882802 
 2393400    224.70504   -18.336227    2912399.4    -540726.6    36310.022   -577036.62    -783.5803   -47.537395    108.38136    134.36475    134.72365    29.878587 
 2393600    223.82911   -6.9584945    2912399.4      -540812    36168.481   -576980.48   -659.49699   -41.396208    566.86877     134.3636    134.72354    29.877155 
 2393800    224.19286   -17.414025    2912399.4    -540824.1     36227.26   -577051.36   -761.07231     -43.3481    62.447805    134.36257    134.72302    29.871665 
 2394000    224.42628   -35.081942    2912399.4   -540729.06    36264.978   -576994.03   -1043.6075   -79.380464   -53.095599    134.36293    134.72279     29.86956 
 2394200    224.38515   -5.8665396    2912399.4   -540677.41    36258.332   -576935.74   -672.57787   -26.824243    296.12679    134.36432    134.72235    29.874445 
 2394400    224.46023   -19.463437    2912399.4    -540652.7    36270.464   -576923.16   -783.39436   -54.781049    212.31587     134.3625     134.7188    29.877765 
 2394600    224.43043   -4.3754857    2912399.4   -540644.76    36265.648   -576910.41   -616.78468   -27.324147    385.58029    134.36172    134.71478    29.874217 
 2394800    223.97262   -20.590628    2912399.4   -540706.78    36191.671   -576898.45   -794.70359   -27.665758   -457.16008    134.36127    134.71302    29.872176 
 2395000    224.35532    -7.823798    2912399.4   -540786.06    36253.512   -577039.57   -635.92899   -33.845787    351.52837    134.35746    134.71171    29.874296 
 2395200    223.88461   -14.019049    2912399.4   -540774.72     36177.45   -576952.17   -763.63342   -40.753891    182.10791    134.35715    134.71056    29.876211 
 2395400    224.16054   -10.732519    2912399.4   -540676.91    36222.038   -576898.95   -688.17973   -30.168314    116.19667    134.35636     134.7084    29.877023 
 2395600    224.34899   -16.036432    2912399.4   -540631.04    36252.489   -576883.53   -757.07293   -50.119122    287.11197    134.35439    134.70812    29.881659 
 2395800    224.51587    4.4924018    2912399.4   -540614.61    36279.454   -576894.06   -417.62513   -13.951413    549.65434    134.35264    134.70816    29.882989 
 2396000    224.43885   -8.0573114    2912399.4   -540620.25     36267.01   -576887.26   -633.69243   -54.383433    801.57876    134.34999    134.71031    29.885419 
 2396200    224.09966   -12.637225    2912399.4   -540674.45      36212.2   -576886.65   -674.64361   -31.735689    51.582411    134.35003    134.71034    29.887608 
 2396400    224.03238   -14.313078    2912399.4   -540739.13    36201.328   -576940.46   -738.60008    -51.26787    403.35418     134.3513    134.70993    29.885515 
 2396600    224.03863   -19.264281    2912399.4   -540702.91    36202.338   -576905.25   -822.96496   -50.483123    126.01568    134.35202    134.70804    29.887252 
 2396800    224.69058 -0.057640028    2912399.4   -540593.57    36307.686   -576901.26   -473.46758   -32.201049    721.81473     134.3512    134.70566    29.885301 
 2397000    224.76947   -8.8388684    2912399.4   -540597.82    36320.434   -576918.25   -630.21768    -27.68867    159.69612    134.35162    134.70317    29.889044 
 2397200    224.35013    -17.46871    2912399.4   -540666.16    36252.674   -576918.83   -780.50531   -56.580759     357.4437     134.3518    134.70243    29.889671 
 2397400    224.12723   -21.069943    2912399.4   -540724.99    36216.655   -576941.64   -830.47503   -73.082127    540.01282    134.35186    134.69913    29.892514 
 2397600    224.76602   -11.741324    2912399.4   -540731.57    36319.877   -577051.44   -727.31754   -32.025969    105.10356    134.35331    134.69938    29.891915 
 2397800    224.63173   -25.995243    2912399.4   -540723.53    36298.177   -577021.71   -944.74141   -66.811127     140.5386    134.35297    134.70123    29.887618 
 2398000    224.18169   -2.2812889    2912399.4   -540697.11    36225.454   -576922.56   -568.95998   -43.170076    852.10189    134.35331     134.7004     29.88607 
 2398200    225.01191   -9.8350878    2912399.4   -540584.14    36359.611   -576943.75   -673.91968   -57.560254    779.84981    134.35454    134.69779    29.888274 
 2398400    224.65974   -9.7925344    2912399.4   -540574.33    36302.703   -576877.03   -669.36978   -20.745203   -46.616218    134.35499    134.69858    29.893326 
 2398600    224.52096   -13.319521    2912399.4   -540661.78    36280.278   -576942.06    -757.4148    -40.87865    221.60413    134.35652    134.69616    29.891997 
 2398800    225.01409   -12.307179    2912399.4   -540724.62    36359.962   -577084.58   -633.95035   -39.465854    242.89636    134.35661    134.69015    29.893389 
 2399000    224.53085   -23.785062    2912399.4   -540757.78    36281.876   -577039.66    -831.5574   -52.686824   -61.479382    134.35869    134.68691    29.895308 
 2399200    224.22556   -21.597165    2912399.4   -540752.31    36232.543   -576984.85   -872.56768   -65.200305    334.94387    134.35669    134.68626    29.898648 
 2399400     224.5768   -21.045211    2912399.4   -540692.86      36289.3   -576982.16   -878.86656   -66.431434    391.60442     134.3556     134.6861    29.901536 
 2399600     224.9977   -23.918436    2912399.4    -540619.3    36357.313   -576976.61   -837.53294   -59.281625    79.972967    134.35745    134.68551    29.899285 
 2399800    224.94809   -31.364177    2912399.4   -540642.69    36349.297   -576991.99   -985.58328   -66.364007   -151.10855    134.35996    134.68329    29.896419 
 2400000    224.41455   -20.348997    2912399.4   -540759.58    36263.083   -577022.66    -755.4142   -55.265557    176.77739    134.36213    134.67974    29.895753 
 2400200    224.50854   -15.917942    2912399.4   -540774.94    36278.271   -577053.21   -733.92259   -60.812232    534.02568    134.36695    134.67704    29.899567 
 2400400     224.1052   -21.353057    2912399.4   -540788.07    36213.095   -577001.16   -813.61104   -37.508435   -275.59072    134.36817    134.67758    29.903429 
 2400600    224.54128   -19.282028    2912399.4   -540773.22    36283.561   -577056.78   -809.84526    -37.07969   -176.62306    134.36861    134.67449    29.902587 
 2400800    224.51355   -24.670673    2912399.4   -540685.46     36279.08   -576964.54   -915.25582   -71.766408    321.55004    134.36531     134.6693    29.898449 
 2401000    224.88265   -30.120676    2912399.4   -540664.36    36338.722   -577003.08   -923.97608    -60.30702   -222.23238    134.36624    134.66717    29.892849 
 2401200    224.22643   -8.3442146    2912399.4   -540758.87    36232.684   -576991.55   -610.96526   -34.656007    342.47211    134.36443    134.66742     29.89195 
 2401400    224.31135   -10.548401    2912399.4   -540807.22    36246.407   -577053.62   -678.36386   -19.746859   -108.73138    134.36466    134.66739    29.893749 
 2401600    224.28835   -25.676749    2912399.4   -540787.03     36242.69   -577029.72   -875.89511   -62.182755    53.059054    134.36197    134.66646    29.893268 
 2401800    224.26334   -18.776417    2912399.4   -540732.19    36238.649   -576970.84   -815.59397     -34.2007   -214.91084    134.35829    134.66364    29.896088 
 2402000    224.96633   -7.0235653    2912399.4   -540689.93    36352.244   -577042.17   -627.81311   -22.398753    135.82796    134.35707    134.66218    29.897069 
 2402200    224.82218   -15.561271    2912399.4    -540739.7    36328.951   -577068.65   -781.08156   -57.461305    477.30335    134.35657    134.66087    29.896636 
 2402400    223.94973    -25.89109    2912399.4   -540850.31    36187.972   -577038.28   -819.75874    -56.66051   -82.486793      134.359    134.65987    29.894696 
 2402600    224.15583    -25.89631    2912399.4   -540844.43    36221.276    -577065.7    -894.3722    -51.51135   -198.66694    134.36338    134.66073    29.898318 
 2402800    224.06652   -17.822474    2912399.4    -540767.6    36206.844   -576974.45   -795.02066   -65.452658    538.59423     134.3654    134.65994    29.893414 
 2403000    224.37684   -26.252206    2912399.4   -540697.85    36256.988   -576954.84   -914.32416   -58.301883   -64.479238    134.36614    134.65983    29.891856 
 2403200    224.61265   -14.288054    2912399.4   -540685.16    36295.094   -576980.26   -751.57813   -74.627613    930.48872    134.36525    134.65995    29.891213 
 2403400    225.03315   -16.665271    2912399.4   -540695.16    36363.042    -577058.2   -717.01012    -54.51296    353.03572    134.36495    134.65972    29.891518 
 2403600    224.34378   -19.534084    2912399.4   -540749.43    36251.647   -577001.08   -859.42101   -79.037148    754.60956    134.36314    134.65779     29.88999 
 2403800    224.06997   -16.550553    2912399.4   -540851.27    36207.401   -577058.67   -697.40605   -53.134981    328.03431    134.36392     134.6602    29.891813 
 2404000    224.12818   -15.587311    2912399.4   -540843.66    36216.808   -577060.47   -757.74603   -57.380959    474.12908    134.36467     134.6633     29.89397 
 2404200    224.07005   -21.993263    2912399.4   -540772.52    36207.414   -576979.93   -857.74967   -66.595116    345.56674    134.36633    134.66088    29.891424 
 2404400    224.44393   -17.258869    2912399.4   -540714.86     36267.83   -576982.69   -747.18308   -45.737462    124.36918    134.36584    134.65983    29.889945 
 2404600    224.47852   -15.698866    2912399.4   -540717.84    36273.419   -576991.26    -708.0175   -59.206445     509.3696    134.36393    134.66197    29.887804 
 2404800    224.41649     1.243432    2912399.4   -540731.06    36263.397   -576994.46   -493.72617   -6.3341784    207.79466    134.36244    134.66381    29.887451 
 2405000     224.4626   -9.4062462    2912399.4   -540783.21    36270.847   -577054.05   -638.30341   -37.729476    355.95515    134.36277    134.66248    29.883794 
 2405200    224.07235   -5.6640968    2912399.4   -540865.36    36207.786   -577073.15   -638.74605   -36.916048    533.90829    134.36135    134.66382    29.882382 
 2405400    224.18996   -22.290144    2912399.4   -540900.32    36226.791   -577127.11   -839.25835   -58.672888    151.66889    134.35984    134.66265    29.881385 
 2405600     224.5378   -6.3938698    2912399.4   -540793.93    36282.999   -577076.92   -607.77162   -35.552491    464.94081    134.35884    134.66277    29.880889 
 2405800    224.86398   -1.4536895    2912399.4   -540710.91    36335.707   -577046.61    -501.7006   -46.476476    969.93297    134.35974    134.66338    29.886969 
 2406000    224.44769   -18.456711    2912399.4   -540736.87    36268.438    -577005.3   -791.29021   -80.027972    833.41735    134.35822    134.66289    29.893127 
 2406200    224.25986    5.9054409    2912399.4   -540790.42    36238.086   -577028.51   -397.74177   -14.805664     642.9925    134.35439    134.66416    29.894286 
 2406400    224.10014    -30.54161    2912399.4   -540823.98    36212.277   -577036.26   -1026.0691   -67.221263   -88.671053    134.35283    134.66496    29.893564 
 2406600     224.3178    3.0119224    2912399.4   -540799.33    36247.449   -577046.78    -458.2326   -14.289053    479.60835    134.35176    134.66499    29.891243 
 2406800    224.80989   -5.9741606    2912399.4    -540706.9    36326.966   -577033.87   -604.68284      -17.353    77.287057    134.35458    134.66467    29.891845 
 2407000    224.46609   -1.0019014    2912399.4   -540668.93    36271.411   -576940.34   -512.76842   -28.407359    586.89633    134.35512    134.66407     29.88815 
 2407200    224.70044   -8.9772521    2912399.4   -540711.58     36309.28   -577020.86   -633.99622   -25.189654     96.18613    134.35342    134.66474    29.886141 
 2407400    223.97721     3.796004    2912399.4   -540831.05    36192.413   -577023.46   -471.97117    -14.70405    530.07229    134.35312    134.66286    29.881626 
 2407600    224.41554   -6.1921323    2912399.4   -540844.22    36263.243   -577107.47   -649.14572   -12.485376   -43.713857    134.35378    134.66294    29.885241 
 2407800    224.40905    3.0739539    2912399.4   -540811.02    36262.194   -577073.21   -451.90239   -19.755969    605.92065    134.35474    134.65926    29.883244 
 2408000    224.61916   -14.084117    2912399.4   -540756.24    36296.146   -577052.39   -703.84061   -41.059557     185.5758    134.35633    134.66028    29.880628 
 2408200    224.39669     1.343016    2912399.4   -540711.02    36260.197   -576971.22   -512.49775   -20.356132    528.64826    134.35544    134.66015    29.882891 
 2408400    224.47467    -32.64037    2912399.4   -540686.93    36272.797   -576959.73   -977.76221   -69.119535   -156.01436    134.35387    134.66231      29.8816 
 2408600    224.23437    -3.061201    2912399.4   -540723.53    36233.967   -576957.49   -550.18054   -32.768812     577.0682     134.3561    134.66063    29.886613 
 2408800    224.54175   -25.080344    2912399.4   -540806.08    36283.638   -577089.72   -898.22047   -42.354872   -361.98232    134.35617    134.66163    29.883432 
 2409000    224.30701   -21.994358    2912399.4   -540841.18    36245.706   -577086.89   -838.23478   -62.788954    259.83353     134.3577    134.66243    29.884044 
 2409200    223.82156   -10.413211    2912399.4   -540807.52    36167.261   -576974.78   -746.07542   -29.502637    117.95906    134.35899    134.66301    29.887986 
 2409400    224.64741   -12.022579    2912399.4   -540695.39     36300.71    -576996.1    -701.2156   -52.842132    558.91945     134.3599    134.66442    29.889451 
 2409600    224.59486   -9.9693909    2912399.4   -540687.69    36292.218    -576979.9   -649.49529   -28.213612    112.22033    134.35807    134.66625    29.888308 
 2409800     224.6231    -15.88545    2912399.4   -540713.99    36296.783   -577010.78   -784.59077    -51.80865    333.06134    134.35911    134.66707    29.888451 
 2410000    224.15952   -27.415929    2912399.4   -540753.19    36221.872   -576975.06   -937.29737   -77.510563    306.87005    134.36131    134.66748    29.885527 
 2410200    224.35286   -13.468605    2912399.4   -540846.98    36253.114    -577100.1    -692.0157   -41.120922    219.23862    134.36485    134.66898    29.888314 
 2410400    224.35156   -11.007688    2912399.4   -540912.13    36252.904   -577165.03   -588.08392   -37.024201     256.0893    134.36665    134.66848    29.888536 
 2410600    224.16473   -15.797349    2912399.4   -540863.18    36222.714   -577085.89   -757.19316   -48.005093    252.06479     134.3659    134.66754    29.885489 
 2410800    224.29732   -11.611004    2912399.4   -540801.39     36244.14   -577045.53   -675.38472   -63.156712    812.68387    134.36736    134.66742    29.880877 
 2411000    224.12255    -28.70081    2912399.4   -540748.68    36215.899   -576964.58   -894.09088    -65.56227   -29.470786    134.36774    134.66957    29.882005 
 2411200    224.47744   -20.586103    2912399.4   -540701.48    36273.245   -576974.73   -847.34996   -77.901371    673.86861    134.36799    134.66849    29.883659 
 2411400    224.34652   -21.977989    2912399.4    -540664.8     36252.09   -576916.89   -909.24658   -52.368631    26.133121    134.36776     134.6678    29.880734 
 2411600    224.60561   -22.908996    2912399.4   -540682.76    36293.956   -576976.71   -831.94938   -53.474531    2.1984672    134.36814    134.67114    29.877863 
 2411800    224.11454   -7.0406918    2912399.4   -540819.91    36214.604   -577034.52    -608.6225    -38.88852    506.11037    134.36715    134.67117    29.878957 
 2412000    224.34011   -2.3433094    2912399.4   -540828.67    36251.054   -577079.72   -558.00163   -30.832138    571.12516    134.36664    134.67128    29.878083 
 2412200    224.35506   -7.3620134    2912399.4   -540794.02     36253.47   -577047.49   -683.46453   -34.269418    385.28325    134.36773    134.67216     29.87751 
 2412400    224.66666   -4.8559309    2912399.4   -540744.12    36303.821   -577047.94   -634.56734   -40.739035    662.34839    134.36513     134.6718     29.88418 
 2412600     224.7366    -8.267148    2912399.4   -540701.35    36315.123   -577016.47   -629.67774   -32.011783    286.99316    134.36418    134.66865    29.888144 
 2412800    224.77021   -16.437407    2912399.4   -540723.55    36320.553   -577044.11   -798.68751   -56.910143    418.94645    134.36552    134.66624    29.891026 
 2413000    224.27264    1.7099763    2912399.4   -540810.49    36240.152   -577050.64   -516.81566   -34.981612    877.11008    134.36595    134.66312    29.889948 
 2413200    224.38473   -10.236828    2912399.4   -540844.07    36258.264   -577102.33   -661.54113   -43.626087    445.12518    134.36576     134.6661    29.892288 
 2413400    223.79798   -22.807976    2912399.4   -540779.47    36163.451   -576942.92   -814.26419    -41.51388   -261.73475    134.36728    134.66642    29.896425 
 2413600    224.59017   -7.6348224    2912399.4   -540692.14    36291.462    -576983.6   -629.52207   -30.448128    284.95903    134.36664    134.66767    29.903823 
 2413800    224.11932   -17.302008    2912399.4   -540676.58    36215.377   -576891.96   -801.77638   -64.963364    554.87699    134.36711    134.66948    29.900773 
 2414000    224.48708    8.4255856    2912399.4   -540667.97    36274.803   -576942.77   -360.15116   -11.224584    694.55642     134.3683    134.67099    29.902903 
 2414200    224.27189    6.7857271    2912399.4   -540698.77     36240.03    -576938.8   -434.08388   -10.233991    586.25332     134.3669    134.67252    29.900974 
 2414400    224.27998   -2.1446933    2912399.4   -540790.39    36241.338   -577031.73   -511.08197    -38.04972    744.00793    134.36741    134.67406    29.898914 
 2414600    224.06974   -17.341543    2912399.4   -540821.52    36207.365   -577028.88   -816.95657   -57.597377    386.99695    134.36798    134.67261    29.901384 
 2414800    224.05233    -13.28079    2912399.4   -540762.82    36204.551   -576967.37    -755.3472 