
# Set production fixes - Nose/Hoover
#
fix                 4 water temp/csvr ${START_TEMP} ${END_TEMP} 500.0 928347
fix                 4 water temp/csvr 240 ${END_TEMP} 500.0 928347
fix                 4 water temp/csvr 240 227 500.0 928347


## divide "droplet" into core and surface
#region		core_reg cylinder z 135 135 44.6 20 INF units box
#region		surface_reg cylinder z 135 135 44.6 20 INF units box side out
#group		core dynamic all region core_reg
#group		surface dynamic all region surface_reg

## compute pressure core
#compute        peratom_core core stress/atom NULL
#compute        p_core core reduce sum c_peratom_core[1] c_peratom_core[2] c_peratom_core[3]
#variable       press_core equal -(c_p_core[1]+c_p_core[2]+c_p_core[3])/(3*1249982.5)


## compute pressure surface
#compute        peratom_surf surface stress/atom NULL
#compute        p_surf surface reduce sum c_peratom_surf[1] c_peratom_surf[2] #c_peratom_surf[3]
#variable       press_surf equal -(c_p_surf[1]+c_p_surf[2]+c_p_surf[3])/(3*33365)

## compute total pressure of drop
compute        peratom water stress/atom NULL
compute        p water reduce sum c_peratom[1] c_peratom[2] c_peratom[3]
variable       press equal -(c_p[1]+c_p[2]+c_p[3])/(3*50320)


# compute order parameter
compute        3 all orientorder/atom nnn NULL cutoff 3.5

# compute center of mass of bridge
compute 	4 water com

# Run simulation
thermo_style        custom step c_2 press vol etotal ke pe v_press c_1[4] c_4[*]
thermo              200
dump		     1 water custom 400 ${DIR}/prod.${NAME}.dump id type x y z vx vy vz c_3[*] c_peratom[*]
dump		     1 water custom 400 run_23/prod.${NAME}.dump id type x y z vx vy vz c_3[*] c_peratom[*]
dump		     1 water custom 400 run_23/prod.ibeam_cooling_23.dump id type x y z vx vy vz c_3[*] c_peratom[*]
run                 ${STEPS}
run                 5200000
Neighbor list info ...
  update every 1 steps, delay 0 steps, check yes
  max neighbors/atom: 2000, page size: 100000
  master list distance cutoff = 6.67472
  ghost atom cutoff = 6.67472
  binsize = 3.33736, bins = 48 13 9
  2 neighbor lists, perpetual/occasional/extra = 1 1 0
  (1) pair sw, perpetual
      attributes: full, newton on
      pair build: full/bin/atomonly
      stencil: full/bin/3d
      bin: standard
  (2) compute orientorder/atom, occasional, copy from (1)
      attributes: full, newton on
      pair build: copy
      stencil: none
      bin: none
Per MPI rank memory allocation (min/avg/max) = 6.145 | 6.611 | 7.275 Mbytes
Step c_2 Press Volume TotEng KinEng PotEng v_press c_1[4] c_4[1] c_4[2] c_4[3] 
       0    241.94128   -394.74524    181563.75   -13313.197    995.22979   -14308.427   -806.64887    33.269784     78.72935    25.135265    16.352083 
     200    240.66513   -462.63214    181563.75   -13347.736    989.98032   -14337.717   -1098.5459    35.065851    78.731291    25.130677    16.382817 
     400      233.464   -418.82629    181563.75   -13336.195    960.35835   -14296.554   -926.54948    35.666708    78.730313    25.125111    16.388362 
     600    229.61375    -320.0958    181563.75   -13419.131    944.52025   -14363.651   -554.43413    37.412487    78.730209    25.126468    16.374932 
     800     231.3576   -355.72971    181563.75   -13421.606    951.69364     -14373.3    -722.1273    37.535826     78.72823    25.129064    16.356206 
    1000    234.24709   -352.10668    181563.75   -13324.339    963.57961   -14287.919   -691.63662    38.942263    78.725286    25.126743    16.349756 
    1200    226.20392   -410.19105    181563.75   -13395.644    930.49385   -14326.138   -928.23471    38.922071    78.730214    25.125972    16.320308 
    1400     252.8959   -354.52785    181563.75   -13272.966    1040.2918   -14313.258   -665.07616    41.883652    78.733025    25.124511    16.352974 
    1600    248.01976   -428.82636    181563.75   -13269.133    1020.2337   -14289.366   -941.99421    43.698226    78.735667    25.124781    16.370656 
    1800     246.0917   -346.88715    181563.75   -13307.345    1012.3026   -14319.647   -706.37074    44.613541    78.735877    25.122909    16.366707 
    2000    253.72765    -245.5498    181563.75   -13186.812    1043.7132   -14230.525    -286.7648    46.152592     78.73314    25.119813    16.372977 
    2200    242.83783   -453.38365    181563.75   -13211.041    998.91776   -14209.959   -1053.0779     48.57765    78.730586    25.120236    16.393134 
    2400    238.37855   -228.25435    181563.75   -13249.782    980.57444   -14230.356    -269.0501    50.046074    78.728953     25.12113    16.408837 
    2600    244.96824   -337.48559    181563.75   -13288.038    1007.6812   -14295.719   -631.03787    51.401017    78.726395      25.1214    16.397116 
    2800    238.96172   -310.61305    181563.75   -13254.176    982.97331   -14237.149   -582.67185    50.760549    78.728308    25.122619    16.402295 
    3000    231.42563    -276.3175    181563.75   -13320.112    951.97347   -14272.086   -410.16165    51.747002    78.723803    25.121839    16.382733 
    3200     232.5707   -333.14493    181563.75   -13321.753    956.68374   -14278.436   -686.77335    52.982609    78.719571    25.116628    16.370663 
    3400    243.20537   -301.40996    181563.75   -13292.976    1000.4296   -14293.405   -497.82604     52.84939    78.720804    25.115378    16.381523 
    3600    238.30757   -473.76012    181563.75   -13269.951    980.28245   -14250.233   -1162.2792    54.376228    78.725157    25.117099    16.394751 
    3800     235.0561   -444.61254    181563.75    -13323.18    966.90747   -14290.088   -1035.0977     54.98011    78.730868    25.117187    16.380159 
    4000    242.41409   -422.37472    181563.75   -13364.535     997.1747    -14361.71   -970.49921     56.07346    78.732467    25.116099    16.383393 
    4200    241.90339   -558.67922    181563.75   -13285.859    995.07393   -14280.933   -1445.6586    57.153663    78.732518    25.112958    16.370828 
    4400    246.65484   -400.93857    181563.75   -13271.099    1014.6191   -14285.719   -883.72344    57.998325    78.733726    25.113511      16.3792 
    4600    239.93723   -579.44073    181563.75   -13352.442    986.98606   -14339.428   -1497.4533    59.533407      78.7309    25.113309    16.362968 
    4800    243.02257   -299.48245    181563.75   -13325.044    999.67768   -14324.722   -469.78976    60.104351    78.733105    25.114341    16.383021 
    5000    239.37783   -319.62465    181563.75   -13352.957    984.68496   -14337.642   -564.99979     61.90981     78.73542    25.113085     16.38349 
    5200    235.21115   -398.10263    181563.75   -13361.803    967.54526   -14329.348   -869.09148    62.949381    78.736005    25.115879    16.397397 
    5400    231.39012   -262.15921    181563.75   -13347.439    951.82738   -14299.266   -361.84297    63.376866    78.738138    25.111435    16.405539 
    5600    234.00746   -443.40126    181563.75   -13386.796    962.59387    -14349.39   -981.76502     64.49285    78.742091    25.109133    16.390533 
    5800     250.2796   -237.73144    181563.75   -13278.917    1029.5296   -14308.447   -304.51608    64.816947    78.743535     25.10625    16.358773 
    6000    226.70211   -503.18675    181563.75   -13435.438     932.5432   -14367.981   -1238.4872     66.46691    78.746052    25.102573    16.362267 
    6200      239.416    -273.5837    181563.75    -13369.76    984.84198   -14354.602   -417.27569    65.762035    78.750633    25.102531    16.363711 
    6400     242.5995   -423.27589    181563.75    -13336.05    997.93739   -14333.988   -953.02451    66.959032    78.754982    25.106123    16.374285 
    6600    239.28922   -332.20122    181563.75   -13391.795     984.3205   -14376.115   -575.11699    68.023604    78.757205    25.105875    16.365588 
    6800    231.84156   -344.65348    181563.75   -13361.798    953.68439   -14315.483   -670.39649    69.391402    78.757914    25.109623    16.355542 
    7000    231.12884   -380.16872    181563.75   -13386.855     950.7526   -14337.607   -840.19175    70.212718    78.756025    25.112808     16.33849 
    7200    238.69939   -526.94617    181563.75   -13301.239    981.89422   -14283.133   -1315.4764    71.389127    78.755488    25.116234    16.305759 
    7400    237.20725   -372.61571    181563.75   -13368.282    975.75625   -14344.038   -746.41067    72.326947    78.756843    25.117672     16.31534 
    7600    241.78719   -285.26931    181563.75   -13388.975    994.59593   -14383.571   -457.28071    74.218854    78.757586    25.119019    16.328664 
    7800    245.60793   -257.58604    181563.75   -13333.246    1010.3126   -14343.558   -337.31895    75.295613    78.755094     25.12158    16.321219 
    8000    234.64907   -420.90137    181563.75   -13332.692    965.23314   -14297.925   -916.56659    76.814186    78.753917    25.118863    16.305826 
    8200    234.67919   -290.80497    181563.75   -13343.997    965.35705   -14309.354   -497.26911    77.330766    78.756412    25.123425    16.353893 
    8400    238.36395    -390.9216    181563.75   -13352.304    980.51439   -14332.818   -873.14893    78.396276    78.756011    25.125908    16.371576 
    8600    246.30819   -419.13877    181563.75    -13270.45    1013.1931   -14283.643   -943.62777    78.616974    78.752962    25.129915    16.382046 
    8800    242.84879   -489.86414    181563.75   -13296.984    998.96284   -14295.947   -1172.0975    80.543643    78.753735     25.13355    16.359375 
    9000    237.36161   -307.88668    181563.75   -13275.589    976.39121   -14251.981   -554.46531     81.78986    78.757289    25.133708    16.362417 
    9200    238.88247   -294.50268    181563.75   -13331.703    982.64731    -14314.35    -476.8964    82.013879    78.756999    25.136795    16.362598 
    9400    239.45806   -316.89193    181563.75   -13353.596      985.015   -14338.611   -557.44485    83.189427    78.752307    25.138525    16.389926 
    9600    226.96749   -259.65089    181563.75   -13375.706    933.63482    -14309.34   -359.10032    84.361095    78.749493    25.138023    16.412048 
    9800    231.36741   -265.96149    181563.75   -13345.277    951.73397   -14297.011   -345.69802    85.143741    78.749879    25.139663    16.393153 
   10000    242.30495   -309.57831    181563.75   -13234.986    996.72576   -14231.712   -492.87485    86.341816    78.748491    25.142381    16.374731 
   10200    236.81119   -225.68096    181563.75   -13270.844    974.12705   -14244.971   -197.53582    87.030197    78.744045     25.14268    16.385413 
   10400    240.04462   -397.15596    181563.75   -13270.006    987.42782   -14257.434   -805.64402    87.270207    78.740644    25.144916    16.383477 
   10600    240.70747   -432.96101    181563.75   -13232.488    990.15448   -14222.643   -961.61114    89.185713    78.738253    25.143915    16.389055 
   10800    244.85163   -246.02954    181563.75   -13283.579    1007.2016   -14290.781   -353.32961    90.417569    78.738112    25.144618    16.406611 
   11000    240.52309   -371.63879    181563.75    -13284.64    989.39604   -14274.036   -747.36393     91.02238    78.736244    25.147909    16.393945 
   11200    241.03858   -331.47154    181563.75    -13292.09    991.51651   -14283.607   -629.94821    92.315517    78.738521    25.146825    16.391933 
   11400    241.79078   -549.66472    181563.75   -13276.589    994.61071   -14271.199    -1407.008    93.568862    78.737311    25.143896    16.395277 
   11600     240.0723    -324.4435    181563.75   -13249.226    987.54171   -14236.768   -605.49127     95.64443    78.735192    25.141495    16.393728 
   11800    244.04836   -422.78703    181563.75   -13252.622    1003.8973   -14256.519   -972.75221    98.672993    78.732776    25.138419    16.377764 
   12000    243.10501   -470.21661    181563.75   -13200.991    1000.0168   -14201.008   -1089.6894    99.815378    78.731707    25.137456    16.361817 
   12200    251.51695    -344.4774    181563.75   -13268.935    1034.6195   -14303.554   -659.56746    101.53951    78.735147    25.135136    16.359471 
   12400    242.61496   -269.20168    181563.75   -13217.898    998.00096   -14215.899   -384.44885    102.16376    78.733473    25.136657    16.356789 
   12600    244.43069   -395.88234    181563.75   -13195.931      1005.47   -14201.401   -843.05669    103.69044    78.734103    25.131885    16.370966 
   12800    242.38596   -228.59054    181563.75   -13294.039    997.05898   -14291.098   -240.29486    104.59236    78.737876    25.131944    16.350088 
   13000    234.58717   -487.36065    181563.75   -13327.225    964.97852   -14292.203   -1198.2796    105.26156      78.7378    25.129796    16.347776 
   13200    236.51417   -479.84786    181563.75   -13284.489    972.90528   -14257.394   -1159.6941    105.95169    78.738246    25.124851    16.361492 
   13400    242.88802    -527.7595    181563.75   -13235.684    999.12422   -14234.808   -1284.3197    106.07257    78.736926    25.124865     16.37097 
   13600    239.97223   -309.19976    181563.75     -13267.6    987.13006    -14254.73   -580.11352    107.38369    78.735184    25.124295     16.35566 
   13800    239.35298   -522.53033    181563.75   -13343.276    984.58278   -14327.859   -1294.8145    108.47301    78.733953    25.124932    16.358624 
   14000    239.31014   -449.55731    181563.75    -13307.49    984.40652   -14291.896   -1088.8707     109.8736    78.735377    25.122538    16.330197 
   14200    229.89737   -463.14935    181563.75   -13360.814    945.68693   -14306.501   -1086.6201    109.85824    78.733235      25.1202     16.36729 
   14400    233.53496   -423.66928    181563.75   -13401.598    960.65024   -14362.248   -903.91683    111.76226    78.731004    25.122705     16.36208 
   14600    243.25855   -336.88028    181563.75   -13409.198    1000.6484   -14409.847   -591.38717    113.26987     78.73318    25.121708    16.361449 
   14800    236.31057    -429.0187    181563.75   -13368.305    972.06775   -14340.373   -952.20571    113.94531    78.735844    25.120195    16.359251 
   15000    238.26788   -343.25352    181563.75   -13375.767    980.11919   -14355.887   -632.31207    114.99248    78.734492    25.121221    16.351976 
   15200    233.74539    -504.9292    181563.75   -13414.341    961.51585   -14375.857    -1240.865    116.69601     78.73107    25.114673    16.389278 
   15400    242.33565   -416.87005    181563.75   -13334.176    996.85201   -14331.028   -914.31131    118.18311     78.72729    25.111569    16.380426 
   15600     232.0112   -343.23941    181563.75    -13383.25    954.38222   -14337.632   -640.76009    118.78683    78.729321    25.107215    16.406406 
   15800    246.64024   -381.88657    181563.75   -13307.913     1014.559   -14322.472   -731.50791    120.21477    78.730905     25.10458    16.422246 
   16000    232.02614   -354.11376    181563.75   -13361.188    954.44366   -14315.632   -715.90502    119.71345    78.733509    25.104193    16.433201 
   16200    236.08585    -318.1289    181563.75   -13265.654    971.14337   -14236.797   -522.38733     119.6598     78.73603    25.104922    16.434801 
   16400    248.85323    -245.7373    181563.75   -13254.256    1023.6622   -14277.918    -272.4925    121.33747    78.733629     25.10507    16.430452 
   16600    238.38154   -331.36931    181563.75   -13285.788    980.58671   -14266.375   -594.66717     124.5457    78.732726    25.105345    16.417847 
   16800    238.10954   -480.41369    181563.75   -13271.764    979.46786   -14251.232   -1187.9531    125.90382    78.736523    25.107836    16.417263 
   17000    246.09057   -319.37114    181563.75    -13311.15     1012.298   -14323.448   -548.10183     127.1227    78.739685    25.104392    16.409377 
   17200    236.54233    -405.2595    181563.75   -13332.563    973.02111   -14305.584   -879.33424    127.60218    78.743394    25.097768    16.428547 
   17400     238.6972   -338.06881    181563.75   -13308.626    981.88519   -14290.511   -707.77291    128.36283    78.744601    25.097331    16.440355 
   17600    252.74001   -378.00153    181563.75   -13231.171    1039.6505   -14270.822   -800.34274    128.82604    78.743642    25.097693    16.434639 
   17800    236.73909   -387.32039    181563.75    -13261.91     973.8305    -14235.74   -822.10604    128.34766    78.744981    25.097623    16.441215 
   18000    233.69656   -432.28676    181563.75   -13273.269    961.31498   -14234.584   -983.37208    130.72451    78.745394     25.09873    16.454364 
   18200    243.86838   -339.86957    181563.75   -13259.334     1003.157   -14262.491   -676.13026    132.37173    78.745478    25.100845    16.465372 
   18400    236.91813   -325.52258    181563.75   -13282.374    974.56697   -14256.941   -560.09332    132.77928    78.745762    25.098735    16.469915 
   18600     247.7535   -325.36997    181563.75   -13254.043    1019.1384   -14273.181   -566.13094    133.78542    78.750779    25.101745    16.459329 
   18800    233.35295   -332.42344    181563.75   -13274.659    959.90151    -14234.56   -624.46101    135.83835    78.754745    25.100882    16.453753 
   19000    234.09917   -421.11228    181563.75   -13261.339     962.9711    -14224.31   -934.56071     136.0661    78.757793    25.097953    16.446038 
   19200    247.17926   -532.86268    181563.75   -13234.572    1016.7763   -14251.349   -1316.6615    137.16918    78.758305    25.097223    16.437939 
   19400    238.34553   -274.08119    181563.75   -13233.599    980.43861   -14214.038   -399.24337    138.38327    78.757835    25.097251      16.4442 
   19600    236.06682   -363.57353    181563.75   -13281.745    971.06507    -14252.81   -720.13998    138.42817    78.759076     25.09859    16.441618 
   19800    240.31682   -325.93623    181563.75   -13272.763    988.54751   -14261.311   -618.05208    140.74765      78.7564    25.099195    16.431503 
   20000    234.76154   -234.19064    181563.75   -13314.444     965.6958    -14280.14   -258.72379    142.36669    78.756555    25.098677    16.433483 
   20200    234.66494   -413.97528    181563.75   -13298.842    965.29843    -14264.14   -895.11882    144.72093    78.756224    25.098251    16.375714 
   20400    230.25551   -366.37835    181563.75   -13330.873    947.16016   -14278.033   -711.70062    145.37506    78.754577    25.098936    16.373685 
   20600     241.2035    -297.2686    181563.75   -13270.999    992.19489   -14263.193   -493.03296     148.3947    78.753843    25.101223    16.364361 
   20800    235.46774   -332.83856    181563.75   -13307.508    968.60074   -14276.109    -623.7945    150.10945    78.754762    25.099184    16.359336 
   21000    233.59303   -450.84441    181563.75   -13255.627    960.88912   -14216.516   -1045.9437    152.55995    78.756149    25.096088    16.366079 
   21200    247.87681   -178.08897    181563.75   -13267.592    1019.6457   -14287.238   -83.454908     153.4338    78.759697    25.092967    16.348253 
   21400    241.34066   -267.13134    181563.75    -13338.02     992.7591   -14330.779   -378.93679    154.68923     78.76081    25.088784    16.346483 
   21600    242.45235   -179.53316    181563.75   -13292.336    997.33209   -14289.668   -74.692883    154.54528    78.759485    25.089434    16.345377 
   21800    246.52368   -335.95309    181563.75    -13292.56    1014.0796    -14306.64   -626.44339    154.52112    78.758251     25.09142    16.340923 
   22000    241.17032   -301.60223    181563.75   -13316.871    992.05841   -14308.929    -487.5471    156.62836    78.755451    25.086174    16.329213 
   22200    242.90766   -341.55835    181563.75   -13303.687    999.20502   -14302.892     -681.933    157.91172    78.760336    25.085501    16.361643 
   22400    248.79567   -292.89188    181563.75   -13317.627    1023.4254   -14341.052   -496.86173    159.56434    78.760786    25.084505    16.376745 
   22600    237.97927   -374.13337    181563.75   -13339.785    978.93199   -14318.717   -772.68171    160.83951    78.757805    25.079713    16.340235 
   22800    247.00174   -186.08403    181563.75   -13327.213    1016.0461   -14343.259   -157.37873    162.19257    78.753876    25.079925    16.332397 
   23000    238.80115   -349.95978    181563.75   -13347.649    982.31278   -14329.962    -714.3653    162.78262    78.752615    25.080126    16.312202 
   23200    235.55663   -446.14893    181563.75   -13330.376     968.9664   -14299.342   -1049.8961    161.42712    78.754206    25.080367    16.288202 
   23400    237.57905   -282.59908    181563.75   -13278.655    977.28568    -14255.94   -411.57998    160.12296    78.759262    25.080688    16.281791 
   23600     233.1605   -283.00542    181563.75   -13321.119    959.10986   -14280.228   -453.78082     161.2814    78.757149    25.081029    16.281246 
   23800    241.35032   -337.73963    181563.75   -13355.559    992.79885   -14348.358   -641.95365    162.86336    78.756985    25.080212    16.291096 
   24000     240.1249   -202.58361    181563.75   -13270.862    987.75806    -14258.62   -170.26879    163.42582     78.75593     25.08381    16.316711 
   24200    244.83714    -285.2271    181563.75    -13234.37     1007.142   -14241.512   -443.22143    166.15148     78.75248    25.088346    16.347962 
   24400    250.08954   -314.99675    181563.75   -13238.392    1028.7478    -14267.14   -553.65881    165.34536    78.755603    25.091553    16.361566 
   24600    239.34451   -461.94537    181563.75   -13279.974    984.54793   -14264.522   -1084.7409    166.63688    78.757684    25.094214    16.335995 
   24800    239.05074   -395.94895    181563.75   -13283.953     983.3395   -14267.292   -840.44513    168.35052    78.757587    25.098914     16.35009 
   25000    231.11298   -430.93503    181563.75   -13299.624    950.68738   -14250.311   -987.00256    169.06294    78.758181    25.104119    16.341533 
   25200    246.98984   -389.43472    181563.75   -13243.116    1015.9971   -14259.113   -827.46355    169.63119    78.756043    25.103055    16.330791 
   25400    235.48685    -308.5176    181563.75   -13280.502    968.67937   -14249.181   -546.99153    170.69015    78.757811    25.100136    16.314923 
   25600    240.69506   -353.91099    181563.75   -13253.707    990.10343    -14243.81   -714.90446    170.76777    78.758769    25.097792    16.317236 
   25800     234.9861   -412.63173    181563.75   -13258.143    966.61951   -14224.762   -918.56213    170.61117    78.758572    25.096817    16.317919 
   26000    234.54957   -421.16278    181563.75   -13286.641    964.82385   -14251.465   -943.26038    170.58448    78.759792    25.097694    16.319627 
   26200    243.72107   -208.18256    181563.75    -13253.26     1002.551   -14255.811   -165.42086    173.59921    78.757175     25.09788    16.333443 
   26400    237.06621   -413.21306    181563.75   -13318.616     975.1761   -14293.792   -901.71205    174.62071    78.753526    25.098252    16.366469 
   26600    230.68599   -368.15701    181563.75   -13331.129    948.93095    -14280.06   -709.48862    176.88057    78.752279    25.098344    16.366751 
   26800    246.09218   -394.72656    181563.75    -13280.43    1012.3046   -14292.735   -877.77481    177.37737    78.752891    25.099309    16.325049 
   27000    230.17634   -436.67431    181563.75   -13323.205     946.8345   -14270.039   -971.61339    179.34332    78.754223    25.100339    16.319213 
   27200    249.16055   -407.45342    181563.75   -13247.486    1024.9264   -14272.413   -902.15803    179.92921    78.758668    25.099567    16.336714 
   27400    246.18276   -410.44144    181563.75   -13227.023    1012.6772     -14239.7   -918.78968    181.21601    78.759972    25.098939    16.324179 
   27600    242.42041   -305.49703    181563.75   -13255.795    997.20068   -14252.996   -535.44221    184.31939    78.758842    25.097984    16.321936 
   27800    239.48533    -460.5061    181563.75     -13359.8    985.12718   -14344.927   -1109.2931    185.91716    78.759029    25.097264    16.294124 
   28000    239.11704   -185.24141    181563.75   -13315.959     983.6122   -14299.571   -101.46883    187.18802    78.760776    25.098159    16.311083 
   28200    244.56532    -239.2611    181563.75   -13289.119    1006.0238   -14295.142   -277.07931    189.53064    78.760084    25.102328    16.301521 
   28400    244.33825   -198.03983    181563.75   -13290.487    1005.0898   -14295.577   -149.43081    189.67229    78.759555    25.104865    16.295945 
   28600    238.24233   -312.18437    181563.75   -13304.512    980.01409   -14284.526   -543.30007    191.72467    78.762958     25.10613    16.281753 
   28800    230.00919   -453.65529    181563.75   -13352.179    946.14693   -14298.326   -1033.3902    193.70962    78.765085     25.10421    16.283361 
   29000    243.71506   -330.51951    181563.75   -13302.814    1002.5263    -14305.34   -619.03538    193.56828    78.768733    25.101259    16.301696 
   29200     240.1814   -225.33245    181563.75   -13317.761    987.99048   -14305.751   -277.35368    193.51867    78.771434    25.095774    16.304217 
   29400    238.54466   -569.32147    181563.75   -13281.814    981.25773   -14263.072   -1400.9246    196.37672    78.770993    25.096557    16.285922 
   29600    234.47418   -373.06917    181563.75   -13308.447    964.51371   -14272.961   -714.94249     196.2087     78.77278    25.099407    16.290694 
   29800    249.42258   -457.42057    181563.75   -13265.475    1026.0042   -14291.479   -1069.1282    198.02825     78.77286    25.099447    16.313652 
   30000    236.01646   -417.35794    181563.75   -13294.433    970.85791   -14265.291   -923.36228    198.23017    78.772234    25.097583    16.344714 
   30200    238.70025   -468.70368    181563.75   -13326.561    981.89774   -14308.459   -1076.9606    198.91763    78.771492    25.101634    16.361232 
   30400    238.60018   -279.73246    181563.75   -13370.841    981.48609   -14352.327   -441.74207     199.8753    78.771015    25.105008    16.361291 
   30600    236.99673   -434.16734    181563.75   -13361.935    974.89026   -14336.825   -1013.0602    200.54612    78.769057    25.105295    16.335563 
   30800    236.25007   -419.51531    181563.75   -13313.335    971.81889   -14285.153   -914.50855    199.40152    78.767303    25.103514    16.324599 
   31000    232.76973   -214.50224    181563.75   -13295.958    957.50243   -14253.461   -228.55057    199.21065    78.767105    25.100305    16.323587 
   31200    248.98985   -329.37666    181563.75   -13264.217    1024.2242   -14288.442   -642.07264    202.17213    78.765777    25.102377    16.321207 
   31400    240.31339    -166.2643    181563.75    -13286.45    988.53344   -14274.983    1.1900232    202.15446    78.769188    25.102102    16.299493 
   31600    248.51515    -418.6764    181563.75   -13232.863    1022.2715   -14255.135   -907.69621    203.70095    78.769617    25.100323    16.282183 
   31800    235.25162   -478.03945    181563.75   -13279.691    967.71175   -14247.403   -1175.6712    204.08297    78.766612    25.100041    16.295799 
   32000    239.35804   -442.37373    181563.75   -13254.164    984.60359   -14238.767   -1000.7018    204.74407    78.765389    25.100822    16.330172 
   32200    240.98081   -489.28205    181563.75   -13316.973    991.27887   -14308.251   -1181.9236    205.19465    78.763499     25.10151    16.341469 
   32400    239.60664   -534.02964    181563.75   -13320.916    985.62618   -14306.542   -1296.4329    208.25183    78.761336    25.099463    16.342161 
   32600     242.4195   -442.05771    181563.75   -13283.849    997.19693   -14281.046   -1048.8358    210.16286     78.76214    25.099729    16.310067 
   32800    232.68249   -378.78265    181563.75   -13338.104    957.14357   -14295.247   -777.83814    212.26123    78.757564    25.100521    16.295145 
   33000    248.86818   -443.58804    181563.75   -13302.299    1023.7237   -14326.023    -985.1518    212.12738    78.753482    25.096953    16.307437 
   33200    240.80125   -465.48565    181563.75   -13329.538    990.54024   -14320.078   -1092.4707    210.81439    78.753495    25.099072    16.308177 
   33400    242.16732   -349.36533    181563.75    -13316.88     996.1596    -14313.04   -646.72573    211.63314    78.758356    25.095572    16.307021 
   33600    238.19315   -465.45157    181563.75   -13347.762    979.81176   -14327.574   -1077.8311    213.59641    78.759142    25.091422    16.307351 
   33800    243.05618   -435.28609    181563.75   -13321.299    999.81592   -14321.114   -961.29717    215.55848     78.76064    25.088869    16.315566 
   34000    239.98232   -299.63798    181563.75   -13340.511    987.17156   -14327.683   -508.27726    213.40855    78.759376    25.089158    16.335242 
   34200    235.41575   -282.17222    181563.75    -13362.83     968.3869   -14331.217   -443.72244    214.10485    78.758852    25.089931    16.354079 
   34400    244.70216    -359.8695    181563.75   -13368.242    1006.5867   -14374.829     -707.124    214.04733     78.76069    25.087307    16.357719 
   34600    238.89026   -363.25424    181563.75    -13335.49    982.67933   -14318.169   -705.96797    214.88358    78.762238     25.08445    16.361392 
   34800    242.44541   -142.11711    181563.75   -13309.275    997.30352   -14306.579    52.640517    214.03712     78.76486    25.082337    16.349867 
   35000    236.49347   -466.89947    181563.75   -13311.261    972.82013   -14284.081   -1074.1201    217.84604    78.763482     25.08418    16.342687 
   35200    241.56585   -376.46839    181563.75   -13277.978    993.68545   -14271.664   -778.58251     218.2602     78.76292     25.07802    16.362722 
   35400    242.36257    -388.2293    181563.75   -13224.231    996.96275   -14221.194   -814.64232    219.08136    78.763766    25.076385    16.351849 
   35600    231.46214   -418.87244    181563.75   -13266.266    952.12366    -14218.39   -945.97127    220.77127    78.761336    25.076472    16.374909 
   35800    247.42301   -402.54353    181563.75   -13238.377     1017.779   -14256.156    -859.3852    219.79134    78.762658    25.076988    16.373537 
   36000    234.73799   -325.25412    181563.75    -13296.54    965.59891   -14262.139   -615.69655    221.56794    78.761445    25.077488    16.404056 
   36200    236.07819    -461.9264    181563.75   -13309.489    971.11183     -14280.6    -1028.145    220.07083    78.760013    25.076727    16.446779 
   36400    239.32771   -496.97989    181563.75   -13284.842    984.47881   -14269.321   -1179.6096    219.09055    78.759697    25.078595    16.431512 
   36600    243.69196   -358.02576    181563.75   -13313.295    1002.4312   -14315.727   -729.41711    221.04716    78.758314    25.079289    16.442385 
   36800    229.07627   -299.35296    181563.75   -13343.196    942.30935   -14285.505   -461.60693    222.98803     78.75301     25.07834     16.42322 
   37000    239.77368   -205.69059    181563.75   -13304.377     986.3133    -14290.69   -143.68901     224.8565    78.750149    25.076553    16.437131 
   37200    235.46013   -317.18457    181563.75   -13352.144    968.56944   -14320.713   -558.46653      227.517    78.750772      25.0776    16.453069 
   37400    238.48228   -299.42268    181563.75   -13262.968    981.00114   -14243.969   -503.69031    227.68743    78.749709    25.077526     16.43816 
   37600    239.23893   -371.23928    181563.75   -13232.744     984.1136   -14216.858   -748.49942    226.66606    78.749111     25.07715    16.425991 
   37800    240.38328   -391.08334    181563.75   -13311.887    988.82091   -14300.708   -840.35133    225.72207    78.751768    25.075331    16.416773 
   38000    236.72525   -699.77316    181563.75    -13316.67    973.77355   -14290.444   -1979.3386    227.01878    78.749623    25.076068    16.410165 
   38200    243.06535   -346.44834    181563.75   -13287.105    999.85367   -14286.959   -673.16108    229.59433    78.745656    25.075757    16.438126 
   38400    244.72223    -376.9566    181563.75   -13279.165    1006.6693   -14285.834   -753.66965    230.19139    78.748447    25.071953    16.433863 
   38600    240.05146   -198.79068    181563.75   -13316.076    987.45596   -14303.532   -171.77322    229.92859    78.748889    25.069013    16.432058 
   38800    240.44441   -343.58855    181563.75   -13291.501    989.07238   -14280.573   -667.22178    230.57676    78.749016    25.070035    16.447141 
   39000    245.37006   -427.49494    181563.75   -13250.504    1009.3341   -14259.838   -984.48662    231.71372    78.749099    25.069871    16.440512 
   39200    234.03172   -307.20578    181563.75   -13311.831    962.69365   -14274.524   -498.45518    230.22947    78.747033    25.071332    16.432194 
   39400    242.11287   -270.40369    181563.75   -13261.947    995.93562   -14257.883   -390.35635    231.12615    78.747416    25.069233    16.447193 
   39600    245.52494   -218.41678    181563.75   -13286.661    1009.9712   -14296.632   -220.82891    234.06707    78.750881     25.07289    16.452245 
   39800    249.23523   -337.91704    181563.75     -13199.4    1025.2336   -14224.634   -626.60164     237.5504    78.752359    25.074585    16.456232 
   40000    234.97842    -457.4563    181563.75   -13294.952    966.58793    -14261.54   -1103.3635    239.10433    78.751554    25.077741    16.444459 
   40200    234.62792   -427.77738    181563.75    -13322.14    965.14615   -14287.287   -943.26749    239.48311    78.750842    25.076225     16.44212 
   40400     246.8272   -284.79838    181563.75   -13224.475    1015.3281   -14239.803   -426.30905    238.26479    78.749611    25.073616    16.403814 
   40600    228.61525   -320.48634    181563.75   -13350.401    940.41293   -14290.814   -586.65366    237.05432    78.747073    25.067772    16.392246 
   40800    245.04959   -334.40801    181563.75   -13276.466    1008.0159   -14284.482   -655.29902    236.69931    78.748805    25.070486    16.395848 
   41000    244.77479   -291.67962    181563.75   -13259.508    1006.8855   -14266.393   -436.20274    237.97793    78.750735    25.068118     16.38667 
   41200    238.09842   -477.68505    181563.75   -13249.878    979.42209     -14229.3   -1150.7249    238.62541    78.750087    25.070717    16.376269 
   41400    241.31681   -383.14887    181563.75   -13238.303    992.66102   -14230.964    -805.7854    241.35273    78.747559    25.073659    16.377021 
   41600    245.06177    -291.7438    181563.75    -13213.01     1008.066   -14221.076   -483.26997    242.87814    78.751823     25.06913    16.398848 
   41800    245.99974   -368.13072    181563.75   -13280.225    1011.9243   -14292.149   -756.65938    244.58431    78.753703    25.072429    16.399723 
   42000    235.40378   -126.67041    181563.75   -13290.742    968.33764   -14259.079    108.57014    244.70935    78.755027    25.076124    16.382995 
   42200    236.51246   -528.28404    181563.75   -13279.803    972.89824   -14252.701   -1304.3416    245.94436    78.756881    25.076471    16.361112 
   42400    236.50998   -294.32993    181563.75   -13288.668    972.88801   -14261.556   -513.89446     246.0563     78.75696    25.072611    16.379053 
   42600    240.27289    -220.4773    181563.75   -13279.217    988.36681   -14267.584     -245.612    248.83328    78.757767    25.070105     16.39202 
   42800    240.86269   -206.32923    181563.75   -13272.197      990.793    -14262.99   -147.83066     250.0048     78.75887    25.071643    16.393272 
   43000     247.9805   -362.12812    181563.75     -13237.3    1020.0722   -14257.372   -744.12897    251.63922    78.757677    25.074333    16.383101 
   43200    239.18268   -240.64664    181563.75   -13262.248    983.88224   -14246.131   -272.85367     252.2338    78.756507    25.073661    16.400831 
   43400    236.81684    -306.0733    181563.75   -13299.226    974.15029   -14273.377    -522.0664    253.06705    78.758722    25.071423    16.404241 
   43600    238.80328   -385.66234    181563.75   -13320.275    982.32158   -14302.597   -809.06752    255.70358    78.760306    25.067739    16.401398 
   43800    240.35583   -421.64361    181563.75   -13293.449      988.708   -14282.157   -960.11184    257.34708    78.761236    25.062552    16.391816 
   44000    231.28612   -371.94696    181563.75   -13354.059    951.39958   -14305.459   -768.82288    257.86067    78.760431     25.05655    16.409905 
   44200    242.00301   -444.71019    181563.75   -13301.376    995.48372    -14296.86   -984.62778    260.54691    78.762237    25.052807    16.399112 
   44400    257.66233   -429.30475    181563.75   -13248.752    1059.8986    -14308.65   -1002.9958    261.45101    78.760478    25.050782    16.421216 
   44600    228.60503   -356.88429    181563.75   -13295.419    940.37089    -14235.79    -694.3953    262.03931    78.761854    25.049784    16.430892 
   44800    233.36758   -334.70259    181563.75   -13283.683     959.9617   -14243.645   -609.01167    262.64368    78.764297     25.04878    16.449405 
   45000     242.3748   -304.52982    181563.75   -13269.245    997.01306   -14266.258   -527.42992    261.86681    78.761918    25.050127    16.428996 
   45200    249.23508   -305.22704    181563.75   -13172.993     1025.233   -14198.226   -498.30619    262.74788    78.766287     25.04956    16.429422 
   45400    239.25447   -428.69233    181563.75   -13175.156    984.17755   -14159.333   -1015.5032    263.57979    78.765174    25.047856    16.424082 
   45600    244.46245   -429.68903    181563.75   -13202.151    1005.6007   -14207.751   -958.41335    266.23387    78.762361    25.049776    16.423484 
   45800    240.70973   -276.78458    181563.75   -13267.019    990.16377   -14257.182   -413.01105    267.14173    78.761226    25.050093    16.444615 
   46000    235.41325   -280.64521    181563.75   -13249.573    968.37661   -14217.949   -465.06381    268.61148    78.762395    25.051718    16.447965 
   46200    243.12878   -290.60768    181563.75   -13212.482    1000.1146   -14212.597   -499.41293    269.88138    78.762275    25.057452    16.433398 
   46400     243.9146   -239.15708    181563.75   -13209.592     1003.347   -14212.939   -286.35365     271.9088    78.757969    25.057913    16.466815 
   46600     239.7445   -256.60285    181563.75   -13278.837     986.1933    -14265.03   -316.43217    271.92234    78.755708    25.058619    16.458583 
   46800    241.69595    -218.2114    181563.75   -13238.681    994.22059   -14232.901   -160.35258    274.64392    78.757717    25.057651    16.459606 
   47000    247.10688   -358.91782    181563.75   -13198.399    1016.4785   -14214.877   -735.06684    276.19174    78.755405    25.053946    16.443785 
   47200    242.64221   -356.79718    181563.75   -13314.307    998.11307    -14312.42   -686.00984    277.47695    78.754621    25.049638     16.46898 
   47400     239.3952   -386.94821    181563.75   -13273.818    984.75644   -14258.575   -770.19983    279.81468    78.760001    25.047205     16.43997 
   47600    246.15473   -406.97747    181563.75   -13287.501    1012.5619   -14300.063   -835.46966    280.24874    78.760032    25.044899    16.441579 
   47800    237.43021   -418.63568    181563.75   -13287.751    976.67343   -14264.425   -920.85394    279.01412    78.765064    25.039762    16.440333 
   48000    243.37682   -238.29689    181563.75   -13288.977    1001.1349   -14290.112   -326.60083    277.97811    78.766229    25.036186    16.456261 
   48200    238.23117   -402.31828    181563.75   -13259.443    979.96819   -14239.412   -864.60245    280.14821    78.767201    25.039501    16.456631 
   48400    233.62049   -209.20054    181563.75   -13270.053    961.00208   -14231.055    -182.8979    279.37438    78.766619    25.042582    16.460167 
   48600     242.3289   -260.80257    181563.75   -13243.086    996.82426    -14239.91   -346.13427    280.35111    78.765206    25.045817    16.455261 
   48800    240.33907   -282.23942    181563.75    -13247.54    988.63906   -14236.179   -433.03137    281.77685    78.769105    25.046921    16.455134 
   49000    247.40264   -397.97314    181563.75   -13210.775    1017.6952    -14228.47   -838.01015    284.19739    78.767794    25.047923    16.476297 
   49200    243.56158   -358.69065    181563.75   -13218.465    1001.8949    -14220.36   -732.34459    285.26559      78.7642    25.047378    16.482915 
   49400    241.01977   -458.83736    181563.75   -13240.835    991.43913   -14232.274   -1105.4336    287.02473    78.762244    25.045285    16.483558 
   49600    242.72195   -434.85845    181563.75   -13248.963    998.44108   -14247.404   -976.31843    289.52433    78.761466    25.042117    16.496074 
   49800    241.52771   -417.61266    181563.75   -13280.074    993.52853   -14273.602   -865.57562    290.47987    78.760234    25.042858    16.474533 
   50000    230.60235    -415.8274    181563.75   -13292.123     948.5869    -14240.71   -914.41536    293.54292    78.761733    25.041828    16.466222 
   50200    239.98525   -272.93838    181563.75   -13220.297    987.18363    -14207.48   -375.94674    295.53911    78.760422    25.036467      16.4463 
   50400    242.45604    -331.8212    181563.75   -13245.143    997.34723    -14242.49   -640.51998    296.37633    78.760084    25.037925    16.464606 
   50600    235.86309    -383.4307    181563.75    -13326.33    970.22705   -14296.557   -757.17178    298.13875    78.758299    25.038767    16.429931 
   50800    238.35162   -386.33588    181563.75   -13336.935    980.46367   -14317.398   -791.46888    298.09447    78.758553    25.035803    16.457563 
   51000    243.17136   -395.65433    181563.75   -13251.346    1000.2898   -14251.636   -834.32382    300.22342    78.755526    25.033258    16.460991 
   51200    233.46959   -418.99992    181563.75   -13336.546    960.38133   -14296.927   -916.56496    301.72538    78.760538    25.029687    16.454694 
   51400    233.23899   -459.63514    181563.75   -13312.242    959.43275   -14271.674   -1088.5733    305.37487     78.76204    25.026599      16.4532 
   51600    241.29799   -346.41373    181563.75   -13327.364     992.5836   -14319.947   -643.91898     306.6072    78.763311    25.026051    16.450431 
   51800    238.22921   -287.98643    181563.75   -13295.322    979.96013   -14275.282   -473.86117    306.40514    78.763294    25.029456    16.452848 
   52000    234.98023   -428.82287    181563.75   -13293.393    966.59536   -14259.989   -935.16998    306.66926    78.759934    25.028625    16.468633 
   52200    232.30636   -290.29845    181563.75   -13289.606    955.59635   -14245.202   -473.63897    308.44362    78.762846    25.029268     16.43597 
   52400    240.48491   -289.03916    181563.75   -13290.258    989.23896   -14279.497    -477.7669    310.12204    78.764358    25.027832    16.447071 
   52600    235.45361   -351.97566    181563.75   -13294.573    968.54264   -14263.115   -704.54296    309.85376     78.76476    25.027706    16.468876 
   52800     230.9122    -351.2001    181563.75   -13351.818    949.86145    -14301.68   -667.12634    309.96661    78.765161    25.026233    16.491731 
   53000    236.65488   -286.02371    181563.75   -13329.677    973.48409   -14303.161   -450.48042    311.95492    78.761518    25.020659    16.498246 
   53200    236.22211   -336.89768    181563.75   -13290.293    971.70386   -14261.997   -643.86313    313.79426    78.761158    25.016566    16.481307 
   53400    238.92681   -137.76232    181563.75   -13280.853    982.82971   -14263.682     34.72576    312.11924    78.757893    25.015405    16.491628 
   53600    246.44865   -352.30511    181563.75    -13232.27    1013.7709   -14246.041   -720.20971    314.55431    78.759145    25.016111    16.514593 
   53800    233.75992   -294.37622    181563.75   -13237.397    961.57561   -14198.973   -504.04771    315.36112      78.7631    25.016064    16.484354 
   54000    238.58385   -410.57475    181563.75   -13198.219    981.41893   -14179.638    -902.5254    316.59219    78.764765    25.016681    16.456948 
   54200    236.17638   -311.23928    181563.75   -13299.784    971.51574     -14271.3     -559.353    317.67747     78.76339    25.016682    16.413354 
   54400    240.04901   -499.98393    181563.75   -13293.918     987.4459   -14281.364   -1191.9183    320.07316    78.761702    25.016679    16.432297 
   54600    238.85171   -428.82038    181563.75   -13261.699    982.52077    -14244.22   -963.18433    320.98781    78.764018    25.017042    16.422026 
   54800    247.24495   -519.97464    181563.75   -13217.105    1017.0465   -14234.152   -1281.2648    323.30881    78.765084    25.021379    16.421003 
   55000    235.39103   -240.13127    181563.75   -13254.684    968.28519   -14222.969   -259.80283    324.66345    78.766297    25.018445    16.414122 
   55200    239.27848   -219.27771    181563.75   -13252.521    984.27628   -14236.797   -224.93847    326.47643    78.763773     25.01621    16.401822 
   55400    242.24202   -471.74523    181563.75   -13243.131    996.46687   -14239.598   -1077.6392    328.71992    78.763814    25.019791    16.410454 
   55600    235.88422   -393.05635    181563.75   -13270.354    970.31396   -14240.668   -812.32443    329.86986    78.764249    25.019116    16.420686 
   55800    234.34508   -373.73319    181563.75   -13326.271    963.98266   -14290.253   -741.22799    330.57609     78.76254    25.014803    16.410932 
   56000    233.19945    -441.3411    181563.75   -13367.679     959.2701   -14326.949   -959.83017    333.27245    78.762397    25.011352    16.410371 
   56200    237.62855   -324.99891    181563.75   -13292.869    977.48928   -14270.358   -593.47751    333.19427    78.758106    25.007375     16.42223 
   56400       239.92   -277.53397    181563.75   -13309.933     986.9152   -14296.848   -411.91268    336.55592    78.759921    25.005562    16.414116 
   56600    237.46116   -441.43238    181563.75   -13347.429    976.80072    -14324.23   -983.74173    339.50242    78.764007    25.008422    16.403044 
   56800    233.01289   -161.99424    181563.75   -13364.034    958.50268   -14322.537    12.502892    340.32981    78.766833    25.013122    16.367202 
   57000    238.07367   -557.24042    181563.75   -13370.538     979.3203   -14349.858   -1468.5296    344.70029    78.769103    25.010638    16.385831 
   57200    239.24004   -397.90842    181563.75   -13377.001    984.11818   -14361.119   -859.96243    343.18369    78.771671    25.010963    16.419422 
   57400    234.55786   -421.29581    181563.75   -13353.307    964.85795   -14318.165   -916.85047    343.80767    78.773899    25.006932    16.446292 
   57600    245.62237   -424.52134    181563.75   -13257.208     1010.372    -14267.58   -957.99696    344.51649    78.776021    25.001572    16.426698 
   57800    235.94747   -310.70533    181563.75   -13295.015    970.57415   -14265.589   -557.03117    344.77739    78.777371    24.998888    16.432144 
   58000    242.91811   -419.00245    181563.75   -13279.071    999.24799   -14278.319   -928.64218    345.17797    78.777385    24.995798    16.440231 
   58200    243.75025   -425.39399    181563.75   -13307.097     1002.671   -14309.768   -976.22663    345.32953    78.775994    24.995098    16.452686 
   58400    242.48651   -538.81836    181563.75   -13320.251    997.47259   -14317.723   -1359.6889    348.94269    78.774812    24.990003    16.454097 
   58600    240.13633   -387.87654    181563.75   -13311.045    987.80507    -14298.85   -818.95638    347.67605    78.777221    24.988589    16.438425 
   58800     239.0609   -405.41913    181563.75   -13345.329    983.38127    -14328.71   -870.41588     348.1551    78.775536    24.985242    16.466524 
   59000    239.95486   -410.74825    181563.75   -13341.576     987.0586   -14328.635   -903.42261    348.28941    78.781416    24.984423    16.447653 
   59200    244.45928   -364.64279    181563.75   -13335.373    1005.5876    -14340.96   -688.82398    351.36646    78.786901    24.984356    16.469645 
   59400    235.23771   -296.58215    181563.75   -13343.588    967.65451   -14311.242    -514.0048    353.20778    78.785952    24.984182    16.462172 
   59600     244.5137   -300.59107    181563.75   -13294.634    1005.8115   -14300.446   -511.59453    355.83106    78.782204    24.989373    16.462214 
   59800    239.10071   -332.87569    181563.75   -13311.962    983.54506   -14295.507   -589.16152    354.95449    78.781033    24.990472    16.449059 
   60000    235.18364   -407.14625    181563.75   -13335.219    967.43212   -14302.651   -932.21067    354.24307    78.782396    24.991331     16.45421 
   60200    242.47698   -314.98671    181563.75   -13288.531    997.43339   -14285.964   -528.58085    356.10304    78.777819    24.987642    16.443145 
   60400    229.08253   -259.92781    181563.75   -13350.739     942.3351   -14293.074    -322.3448    355.66529    78.773624     24.98453    16.410863 
   60600    236.93565   -371.54279    181563.75   -13333.005    974.63904   -14307.644   -734.45756    354.81335    78.770099    24.978802    16.404302 
   60800    239.62132   -281.90784    181563.75   -13341.646    985.68657   -14327.333   -438.82943    355.15887      78.7638    24.975557    16.424064 
   61000     230.2287    -374.7786    181563.75   -13389.611    947.04986   -14336.661   -777.71494    357.22695    78.764181    24.974318    16.415168 
   61200     244.2263   -259.96544    181563.75   -13360.652    1004.6293   -14365.281   -341.94856    358.16397    78.759863    24.974722    16.414528 
   61400    237.21901   -408.88156    181563.75   -13339.468    975.80464   -14315.273   -875.07741    360.05749    78.765749    24.966927    16.402123 
   61600    245.92353   -456.01862    181563.75   -13336.764    1011.6109   -14348.375   -1068.4866    359.83666    78.768062    24.960953    16.405379 
   61800    240.06725   -315.82671    181563.75   -13289.082    987.52094   -14276.603   -560.48271    361.97692    78.765716    24.959195    16.399608 
   62000    237.03175   -299.09415    181563.75   -13355.397    975.03434   -14330.431   -512.54279    362.94329    78.766505    24.954726    16.351339 
   62200    244.15243   -313.89052    181563.75   -13275.363    1004.3254   -14279.689   -557.04914    365.86458    78.770113    24.953124    16.363132 
   62400    247.26901   -373.42026    181563.75   -13261.257    1017.1455   -14278.403   -751.61016    365.70569    78.768929    24.952781    16.342467 
   62600    236.24306   -378.30793    181563.75   -13350.472    971.79003   -14322.262    -752.1588    366.90527    78.769266    24.949295    16.333214 
   62800     241.0028   -324.50979    181563.75    -13336.08    991.36934   -14327.449   -634.44956     368.0274    78.771486    24.943344    16.303001 
   63000    240.06917   -378.70639    181563.75   -13316.223    987.52884   -14303.751   -739.56882     369.4063      78.7711     24.94077    16.311625 
   63200    241.66553   -307.74699    181563.75   -13372.536    994.09547   -14366.631   -524.78027    367.24244    78.767494    24.937266    16.299454 
   63400    246.61064   -222.21715    181563.75   -13316.903    1014.4373   -14331.341    -238.9018    366.69548    78.764391    24.935466    16.332275 
   63600    243.92644   -446.56878    181563.75   -13253.898    1003.3958   -14257.294   -1014.4007    370.16665     78.76121    24.935749    16.326453 
   63800    240.26425   -277.89015    181563.75   -13294.152    988.33127   -14282.483   -411.34401    368.19845    78.759034    24.930021    16.328443 
   64000    236.77254   -581.06156    181563.75   -13314.482    973.96807    -14288.45    -1457.027    371.84832    78.760427    24.930382    16.296533 
   64200    246.12469   -487.60347    181563.75   -13294.491    1012.4383    -14306.93   -1183.6069    372.37372    78.759661    24.929299    16.279469 
   64400    237.90033   -408.79173    181563.75   -13279.302    978.60726   -14257.909   -881.04488     374.3324    78.762844    24.929767    16.296611 
   64600    234.38963   -218.97564    181563.75   -13295.776    964.16593   -14259.942   -160.16217    370.77937    78.764896    24.926453    16.316558 
   64800    248.27921   -399.03792    181563.75   -13280.573     1021.301   -14301.874    -903.0782    371.00962    78.764905    24.931217    16.323738 
   65000    238.88537   -379.30244    181563.75   -13356.099    982.65922   -14338.758    -794.0739    371.40851    78.763325    24.926958    16.307294 
   65200    232.67668   -308.74561    181563.75     -13332.3    957.11966   -14289.419    -579.8779    370.20546    78.764101    24.928369    16.298953 
   65400    259.34749   -279.95203    181563.75   -13210.793    1066.8305   -14277.623   -445.82416    370.52078    78.762825    24.928123    16.300891 
   65600    239.02597   -474.18544    181563.75    -13257.92     983.2376   -14241.158   -1112.8334    372.87702    78.760352    24.932419    16.307901 
   65800    243.45981   -366.43363    181563.75   -13241.822    1001.4763   -14243.298   -759.03482    372.71585     78.75956     24.93392    16.291633 
   66000    236.55433   -214.66536    181563.75   -13277.287    973.07046   -14250.357   -189.89068    373.55156    78.759491    24.936172    16.332933 
   66200     236.9418   -394.19368    181563.75   -13281.613    974.66433   -14256.277   -816.69622    376.57178    78.763859    24.938371     16.35541 
   66400    235.10858   -379.91467    181563.75   -13330.739    967.12334   -14297.862   -775.97255    378.89182    78.766154    24.935855    16.370495 
   66600    232.30917   -400.01492    181563.75   -13300.499    955.60791   -14256.106   -853.65624    380.93325    78.765814    24.936534    16.370035 
   66800    232.53133   -399.02048    181563.75   -13324.761    956.52179   -14281.283   -862.36163    383.56008    78.766154    24.936125    16.358332 
   67000    233.25801   -317.44373    181563.75    -13352.03    959.51097   -14311.541   -538.30819    382.93004    78.767331     24.93772    16.379963 
   67200    238.35978   -444.30069    181563.75   -13357.802    980.49723   -14338.299   -1002.0526    382.61006    78.767874    24.938866    16.381057 
   67400    241.33677   -398.15725    181563.75   -13321.589     992.7431   -14314.333   -818.98543    384.22496    78.769627    24.941145    16.393116 
   67600    234.15821   -327.97225    181563.75   -13364.513    963.21397   -14327.727   -599.87561     382.7635     78.77083    24.940558    16.401399 
   67800    235.26791   -217.23533    181563.75   -13315.554    967.77874   -14283.332   -177.29104     386.0793     78.77209    24.944241    16.424815 
   68000    233.26809   -288.11946    181563.75   -13330.128    959.55248   -14289.681   -484.91785    385.31477    78.774662    24.942353    16.408405 
   68200    247.90959   -466.15585    181563.75   -13321.289    1019.7805    -14341.07   -1087.3262    386.51541    78.773893    24.943444    16.394567 
   68400    244.70908   -527.67663    181563.75   -13255.634    1006.6152    -14262.25   -1301.8911    386.17245    78.775807    24.940596    16.381607 
   68600    232.54602   -267.43428    181563.75    -13337.22     956.5822   -14293.802   -414.68427    384.63769    78.776852    24.937089    16.372772 
   68800    245.60009    -417.8277    181563.75   -13243.357    1010.2803   -14253.638   -907.17183     388.0537    78.777253    24.937078    16.381971 
   69000    246.32693   -292.11259    181563.75   -13232.986    1013.2702   -14246.256   -460.01139    388.46395    78.775775    24.936794    16.384151 
   69200    239.91274   -286.64397    181563.75   -13233.348    986.88534   -14220.233   -423.78891    387.96978    78.774244    24.936223     16.40835 
   69400    235.01187    -381.5444    181563.75   -13306.691    966.72554   -14273.417   -827.15214    390.46706    78.774266    24.938521    16.386078 
   69600    244.60197   -312.60042    181563.75   -13260.038    1006.1746   -14266.213   -564.59773    389.78314    78.771665    24.940897    16.371303 
   69800    240.39377   -310.91828    181563.75   -13270.655    988.86407   -14259.519   -545.73114      392.803     78.77321     24.93893    16.373422 
   70000    234.19561   -263.75454    181563.75   -13326.276    963.36784   -14289.644   -420.69876     394.9992    78.773279     24.93826     16.36862 
   70200    240.21451   -432.29956    181563.75   -13284.433    988.12668    -14272.56   -992.18703    394.81158     78.76943    24.936972    16.347727 
   70400    233.98722   -464.26245    181563.75   -13260.975    962.51062   -14223.485    -1080.563    396.15189    78.770267    24.935252      16.3218 
   70600    239.18805   -441.68348    181563.75   -13258.903    983.90434   -14242.808   -1002.2453    396.51183    78.769344     24.93434    16.323259 
   70800    242.27987   -174.23397    181563.75   -13277.664    996.62256   -14274.287   -73.966068    396.24031    78.769129    24.935235    16.344911 
   71000     243.6782   -357.68458    181563.75    -13270.89    1002.3746   -14273.265   -757.96916    398.48149    78.767367    24.936499    16.363841 
   71200    255.85547   -276.14394    181563.75    -13162.15     1052.466   -14214.616   -490.07347    397.24167    78.767409    24.936654    16.345007 
   71400    237.29884   -414.95142    181563.75   -13259.568      976.133   -14235.701   -907.93838    399.21298    78.769689    24.937002    16.349414 
   71600    240.05214   -482.47929    181563.75   -13284.712    987.45876   -14272.171   -1148.6345    399.22833    78.771798    24.936779    16.339517 
   71800    236.34832   -510.73549    181563.75   -13267.368    972.22306   -14239.591   -1264.0348    401.53965    78.772654     24.93595    16.345427 
   72000    249.26258     -171.182    181563.75   -13236.527    1025.3461   -14261.873   -55.779534    400.69758    78.772173    24.933481    16.367553 
   72200    238.07089   -238.60316    181563.75   -13277.657    979.30887   -14256.966   -330.54862    404.66264    78.770205    24.935672    16.331662 
   72400    245.15814   -328.63011    181563.75   -13297.751    1008.4624   -14306.213   -598.35819    405.71127    78.770622    24.941929    16.331559 
   72600    248.25074   -498.73607    181563.75   -13286.298    1021.1839   -14307.481   -1210.3719    407.03583    78.768422    24.944528    16.327153 
   72800    236.39163   -353.21205    181563.75   -13340.833    972.40117   -14313.234   -677.67422    406.39213    78.767604    24.945671    16.337898 
   73000    244.73482   -290.69222    181563.75   -13272.821     1006.721   -14279.542   -469.56141    407.56892    78.767874    24.949606    16.367825 
   73200    247.16378   -395.27697    181563.75   -13236.117    1016.7126    -14252.83   -804.35962    411.93329    78.765359    24.950404    16.376078 
   73400    237.78081   -455.39411    181563.75   -13282.984    978.11562   -14261.099   -1007.5662    414.64278    78.763436     24.95385     16.38796 
   73600    237.40847   -379.84577    181563.75   -13275.573    976.58396   -14252.157   -829.49667    415.63866    78.759127    24.958596    16.412019 
   73800     239.0706   -319.54446    181563.75   -13195.755    983.42117   -14179.177   -604.68993    417.92222    78.756461    24.955514    16.411282 
   74000    247.64397   -402.57239    181563.75   -13222.292    1018.6879    -14240.98    -837.4179    418.50214    78.758811    24.957513    16.394751 
   74200    234.28117   -323.35928    181563.75   -13217.267    963.71979   -14180.987   -574.07874    419.81878    78.757503    24.957192    16.360088 
   74400    242.27285   -378.90657    181563.75   -13277.188    996.59369   -14273.781   -780.70927    419.37345    78.755622     24.96149    16.337866 
   74600    242.23087   -358.93434    181563.75   -13267.386    996.42101   -14263.808   -687.41691    417.75044    78.758914    24.961512    16.342175 
   74800    245.46747   -357.20905    181563.75   -13246.042    1009.7348   -14255.777   -715.85258    419.48145    78.759203    24.962046    16.330484 
   75000    240.24713   -366.28116    181563.75   -13300.776    988.26086   -14289.037   -738.45118    418.94122    78.756825    24.960337    16.336483 
   75200    238.83355   -458.39691    181563.75   -13318.677    982.44609   -14301.123   -1075.0193    419.30125    78.758496    24.962946    16.330897 
   75400    246.21333   -401.40344    181563.75   -13282.616    1012.8029   -14295.419   -884.07637    419.32608    78.757506    24.967803    16.323041 
   75600    241.00101   -417.70256    181563.75    -13338.18    991.36196   -14329.542   -932.06067    420.79831    78.757396    24.971198    16.335812 
   75800    241.93523   -130.39154    181563.75   -13314.621    995.20489   -14309.826      45.5072     419.9316    78.756392    24.975701    16.331646 
   76000    241.40216   -260.23397    181563.75   -13336.242    993.01211   -14329.254   -318.81833    421.71504      78.7593    24.974173     16.35183 
   76200    227.77087    -328.7822    181563.75   -13371.364    936.93954   -14308.303   -586.04107    422.77726    78.763883    24.976188    16.348189 
   76400    233.69883   -442.90054    181563.75   -13401.869    961.32431   -14363.193   -988.04884    425.39698     78.76732    24.976302    16.367477 
   76600    237.53846   -366.35518    181563.75   -13357.066     977.1187   -14334.185   -715.08321    427.07823    78.766996    24.977343    16.369453 
   76800    246.18547   -309.25039    181563.75   -13301.173    1012.6883   -14313.862   -551.67475    427.23489    78.767966    24.977961    16.373462 
   77000    243.52371   -314.67092    181563.75   -13351.784    1001.7392   -14353.523   -529.42659    429.91259    78.768148    24.978011     16.40982 
   77200    252.55867   -321.22749    181563.75   -13335.232    1038.9046   -14374.137   -562.18791    427.52771     78.76574    24.979831    16.398594 
   77400    238.23998   -450.47104    181563.75   -13316.299    980.00441   -14296.303   -1025.7967    428.45788    78.763904    24.978024    16.375575 
   77600     241.2501   -417.95465    181563.75    -13324.66    992.38659   -14317.047   -913.61982    426.40781    78.761637    24.977982      16.3605 
   77800    231.89046   -428.27907    181563.75   -13298.785    953.88555    -14252.67   -993.87674    425.45559    78.759284    24.977855    16.361525 
   78000    232.70412   -410.11766    181563.75    -13346.72    957.23257   -14303.953   -850.32759    428.50895    78.756505    24.975108    16.393829 
   78200    241.04026   -398.67923    181563.75   -13285.264    991.52341   -14276.787   -837.73541    428.62997    78.756466    24.968824    16.419084 
   78400    245.64063   -349.14927    181563.75   -13293.042    1010.4471   -14303.489   -676.14287    428.95871    78.754542    24.971928    16.412293 
   78600    235.19381   -284.99578    181563.75   -13349.888    967.47393   -14317.362   -469.65808    427.50127     78.75477    24.970509     16.40393 
   78800    237.83276   -290.92587    181563.75   -13336.546    978.32932   -14314.875   -488.19257    425.33705     78.75741    24.969405    16.400147 
   79000      236.922   -530.50798    181563.75   -13303.738    974.58289   -14278.321   -1348.3007    428.37862    78.758736    24.964713    16.405481 
   79200    245.97104   -287.28376    181563.75     -13275.2    1011.8063   -14287.006   -484.44746    428.45078    78.756707    24.961496    16.382023 
   79400    232.59237   -419.75748    181563.75   -13314.609    956.77287   -14271.381     -902.589    432.51421    78.755094    24.956394    16.399327 
   79600    235.88638   -449.15166    181563.75   -13287.776    970.32283   -14258.098   -1089.3378    432.56162    78.752472    24.955893    16.398872 
   79800    238.44836   -404.77938    181563.75   -13296.381    980.86158   -14277.243   -857.84904     432.9833     78.75022      24.9541    16.399889 
   80000    239.41145   -439.30629    181563.75   -13309.444    984.82326   -14294.267   -1010.1641    431.76045    78.753202    24.949489    16.400496 
   80200     246.0173   -331.90642    181563.75   -13259.497    1011.9966   -14271.494   -621.71483     433.3551    78.752244    24.945552    16.362851 
   80400    242.18791    -219.1499    181563.75   -13282.989    996.24431   -14279.234   -227.60963    434.80879    78.752483    24.942232     16.36389 
   80600    245.38979    -271.8985    181563.75   -13222.846    1009.4153   -14232.262   -377.18197    438.68341    78.751444    24.939441    16.380418 
   80800    241.26307   -357.68594    181563.75   -13307.565    992.43994   -14300.005   -702.58345    440.01923    78.747765    24.942616    16.371746 
   81000    247.81173   -367.33211    181563.75   -13248.098     1019.378   -14267.476   -703.01194    440.88246     78.74727    24.945625    16.382944 
   81200     247.7493   -398.13728    181563.75   -13277.239    1019.1212    -14296.36   -833.79518    441.30111    78.743962    24.940804    16.402852 
   81400    237.29238   -304.63892    181563.75   -13333.561    976.10646   -14309.667   -478.30389    438.56307    78.745433    24.939345    16.418798 
   81600    244.41391   -377.56659    181563.75   -13283.905     1005.401   -14289.306   -768.89412     443.1186    78.746305     24.94025    16.436811 
   81800    240.50439   -103.71092    181563.75   -13287.972     989.3191   -14277.291    199.38582    439.77887     78.74824     24.94225    16.445146 
   82000    246.16578    -202.3888    181563.75   -13267.535    1012.6074   -14280.142   -159.43154    443.71076    78.749105    24.944166    16.458529 
   82200    240.72266   -315.41885    181563.75   -13294.037    990.21696   -14284.254   -569.63369    444.89085      78.7452    24.942115    16.469012 
   82400    236.73923   -468.00269    181563.75   -13337.964    973.83107   -14311.795   -1116.4493    447.07528    78.743075     24.93848    16.441768 
   82600    240.66934   -285.69172    181563.75   -13338.042    989.99763   -14328.039   -428.20456    445.71591    78.739183    24.935967    16.467508 
   82800    240.15794   -325.03499    181563.75   -13301.129    987.89399   -14289.023   -593.48809    446.39902    78.741173    24.937816    16.455977 
   83000     241.6279   -386.55467    181563.75   -13295.841    993.94067   -14289.782   -804.23667    445.69491    78.743034    24.936138    16.456568 
   83200    239.80826   -382.87246    181563.75    -13302.94    986.45555   -14289.396   -765.02541    447.95764    78.745625    24.934659    16.436954 
   83400    242.00496   -294.04598    181563.75   -13294.222    995.49172   -14289.714   -451.38621     448.5844    78.748339    24.938512     16.45163 
   83600    240.41027   -408.03256    181563.75   -13267.601    988.93192   -14256.533   -926.83449    449.05368    78.749231     24.93633    16.461556 
   83800    230.02925   -232.53375    181563.75   -13326.074    946.22942   -14272.304   -291.21589    452.21472     78.75067    24.935592    16.433461 
   84000    244.02377   -260.73442    181563.75   -13362.736    1003.7961   -14366.532   -357.38024    452.75036    78.752059    24.936641    16.445107 
   84200     231.9189   -427.43735    181563.75   -13367.696    954.00254   -14321.699   -954.01629     454.7775    78.750507    24.939758    16.443454 
   84400    236.07751   -493.81228    181563.75   -13333.293    971.10907   -14304.402   -1214.9772    456.79616    78.750589    24.939814    16.450274 
   84600    242.74218   -238.77761    181563.75     -13314.9    998.52428   -14313.425    -270.1874    457.33375     78.75011    24.943384    16.456407 
   84800    236.28811   -362.71431    181563.75   -13345.099    971.97534   -14317.074   -738.27826    459.26543    78.751701    24.945601    16.461107 
   85000     232.5307    -425.5555    181563.75   -13360.751    956.51918    -14317.27   -941.87115    459.95162    78.755365    24.947003    16.459013 
   85200    243.43054    -411.8192    181563.75   -13237.731    1001.3559   -14239.086   -935.66199    460.58728    78.758655    24.943662    16.454243 
   85400    232.25061   -353.90384    181563.75   -13308.142    955.36705   -14263.509    -705.8008    459.19915    78.761009    24.947156    16.461661 
   85600    237.78665   -365.56248    181563.75   -13311.694    978.13964   -14289.834    -765.7235    460.86728    78.761023    24.949391     16.45069 
   85800    236.49289   -281.44892    181563.75   -13263.686    972.81774   -14236.504   -447.44074    462.54224    78.759802    24.948312      16.4589 
   86000    244.04045   -427.40533    181563.75   -13234.546    1003.8648   -14238.411   -979.36131    463.90999    78.754473    24.952222    16.463958 
   86200    235.07528   -265.77555    181563.75   -13283.873    966.98636   -14250.859   -370.72448    465.95009    78.755448    24.952219    16.438966 
   86400    240.20359     -471.611    181563.75   -13290.197    988.08174   -14278.279   -1113.0806    468.82172    78.754297    24.951529    16.429969 
   86600    241.41535   -384.91728    181563.75   -13257.337    993.06636   -14250.403   -829.02662    467.69857    78.751054    24.949917    16.425285 
   86800    242.48802   -437.12472    181563.75   -13287.694    997.47882   -14285.173    -974.7223     470.2142    78.752055    24.953378    16.449834 
   87000    234.59316   -361.58794    181563.75   -13319.653    965.00315   -14284.657   -733.55548    471.66055    78.754828    24.953968    16.461142 
   87200    239.74546   -232.53631    181563.75   -13275.843    986.19725   -14262.041   -229.00879     471.0465    78.755664    24.952843    16.463079 
   87400     242.9987   -194.55927    181563.75   -13295.504     999.5795   -14295.084   -155.09279    470.75092    78.754507    24.953641    16.467076 
   87600    239.27318   -385.38114    181563.75   -13290.911    984.25452   -14275.165   -762.46976    473.62263    78.757116    24.953123    16.457969 
   87800    235.96291    -302.3214    181563.75   -13304.751    970.63764   -14275.388    -512.2579    472.39382    78.761692    24.950675    16.457704 
   88000    239.92203   -342.08184    181563.75   -13223.352    986.92354   -14210.276   -644.08666      475.333    78.761764    24.947375    16.444941 
   88200    235.83081   -273.11243    181563.75   -13220.463    970.09427   -14190.557   -441.34261    474.28348    78.760056    24.951589    16.439072 
   88400    235.41339   -340.57889    181563.75   -13275.855    968.37717   -14244.232   -627.17994    474.54698    78.761235    24.955584    16.440111 
   88600    237.44901   -405.21937    181563.75   -13340.218    976.75076   -14316.968   -893.35775    475.66708    78.761987    24.956137    16.437609 
   88800    235.24064   -387.29033    181563.75   -13357.572    967.66656   -14325.238   -821.25174    474.58204    78.759742     24.95983    16.442127 
   89000    233.13605   -287.75711    181563.75   -13350.439    959.00932   -14309.449   -499.94651    475.29428    78.760473    24.962543    16.436518 
   89200    230.81624   -536.73422    181563.75   -13337.641    949.46672   -14287.108   -1322.5196    480.62119    78.756961    24.965929    16.444263 
   89400    241.45357   -189.57012    181563.75   -13292.295    993.22358   -14285.519   -112.19259    479.36362    78.755929    24.970073    16.431254 
   89600    232.04874   -518.61237    181563.75   -13347.742    954.53665   -14302.278   -1290.0272    479.50826    78.756392    24.972594     16.41313 
   89800    240.16448   -397.40673    181563.75    -13270.45    987.92088   -14258.371   -838.32696    478.71651    78.756064    24.971256    16.433651 
   90000    242.10101   -410.18435    181563.75   -13218.244    995.88682    -14214.13   -936.34178    480.04894    78.757862    24.972098    16.432582 
   90200    239.55046   -348.93683    181563.75   -13297.964    985.39509   -14283.359   -666.05087    481.94145       78.761    24.969787    16.466803 
   90400    232.58108   -362.42389    181563.75   -13342.078    956.72643   -14298.804   -713.39107    481.52739    78.762447    24.970186    16.467414 
   90600    240.94525   -339.00104    181563.75   -13240.387    991.13257    -14231.52   -635.67803    484.62791    78.761128    24.974293    16.478915 
   90800    240.25501   -327.25452    181563.75   -13239.267    988.29326    -14227.56   -622.65959    486.17231    78.762001    24.978895    16.474167 
   91000    237.00335   -282.47897    181563.75   -13288.255    974.91752   -14263.173   -467.11377    485.33362    78.763704    24.979289    16.445502 
   91200    235.68793   -357.19127    181563.75   -13294.896    969.50651   -14264.403   -751.95138     485.7244    78.764477    24.987189    16.422285 
   91400    226.99553   -502.36243    181563.75   -13331.394    933.75017   -14265.144   -1180.7372    487.83668    78.765184    24.987879    16.415122 
   91600    240.23111   -261.18623    181563.75   -13222.924    988.19498   -14211.119   -409.18407    488.23849    78.767261    24.986205    16.408263 
   91800    242.09606   -358.27583    181563.75   -13262.021    995.86646   -14257.887   -700.88865    488.27322    78.769165    24.987764    16.351859 
   92000     248.1143   -253.44051    181563.75   -13256.675    1020.6226   -14277.298   -370.12868    487.95299    78.770046    24.988447    16.357425 
   92200    237.31782   -211.88892    181563.75   -13277.271    976.21108   -14253.483    -165.9355    486.47682    78.771468    24.989335    16.351555 
   92400    248.48285    -357.5847    181563.75   -13225.634    1022.1386   -14247.773   -719.07624    488.03601    78.770995    24.990236    16.349145 
   92600    241.84139   -441.23184    181563.75   -13278.484    994.81888   -14273.303   -1017.8914    490.21403    78.772935    24.992034    16.375322 
   92800    230.72974   -288.02475    181563.75   -13319.599    949.11092    -14268.71   -460.28042    490.42823    78.774536    24.990212    16.384365 
   93000    232.47463   -396.23213    181563.75   -13341.702    956.28856   -14297.991   -798.05598    491.38545    78.778928    24.987341    16.376719 
   93200    239.77693   -268.81272    181563.75   -13322.502    986.32669   -14308.828   -407.54048    491.51976    78.783598    24.987372    16.371192 
   93400    236.86559   -237.72896    181563.75   -13320.426    974.35083   -14294.777    -288.6285    491.27388    78.785328    24.990411    16.339214 
   93600    241.62975   -361.10265    181563.75   -13290.404    993.94827   -14284.352   -712.36841    490.16305    78.785733    24.990598    16.346193 
   93800    246.21555   -545.08982    181563.75   -13238.116    1012.8121   -14250.928   -1359.4148    495.14795     78.78433    24.993527    16.377279 
   94000    238.50505   -354.94326    181563.75   -13307.664    981.09477   -14288.759   -732.25763    494.41116    78.782681    24.993309    16.373571 
   94200    250.07543   -310.75053    181563.75   -13231.381    1028.6897   -14260.071   -549.68486    496.20712    78.786681     24.99489    16.362329 
   94400     247.2537   -371.50142    181563.75   -13245.909    1017.0825   -14262.991   -731.78658    498.96214    78.788934    24.993572     16.36258 
   94600    243.08267   -316.28963    181563.75   -13255.806    999.92489   -14255.731   -549.64742    502.08109    78.790149    24.992736    16.359897 
   94800    252.56785   -311.38875    181563.75   -13222.145    1038.9424   -14261.087   -538.77463    503.03963    78.788899    24.993925     16.36446 
   95000    239.90398   -309.67082    181563.75   -13292.966    986.84931   -14279.815   -568.27701    502.53876    78.792496    24.993675    16.361525 
   95200    229.59366   -333.83073    181563.75   -13300.249    944.43761   -14244.687   -593.67989    504.79474    78.800258    24.991733    16.349592 
   95400     243.3099   -406.80137    181563.75   -13278.596    1000.8596   -14279.455   -906.69921    502.99866    78.801661    24.992211    16.330582 
   95600     229.3146    -372.7084    181563.75   -13269.178     943.2897   -14212.468   -771.36206    503.74564    78.804694    24.989765    16.322356 
   95800    235.02003   -158.28173    181563.75   -13258.794     966.7591   -14225.553   -11.092562    504.09893    78.806408    24.990116    16.306464 
   96000    242.92295   -298.82915    181563.75   -13303.697    999.26788   -14302.965   -550.83802    507.48695    78.811786    24.990818    16.311249 
   96200    243.22476   -224.35814    181563.75   -13301.981    1000.5094    -14302.49   -259.79439    507.98363    78.813544    24.993252    16.303604 
   96400    238.86868   -257.59717    181563.75   -13291.496    982.59059   -14274.087   -339.31379    506.90535    78.815651    24.994648    16.294704 
   96600    234.51596   -479.78526    181563.75   -13315.303    964.68561   -14279.988   -1089.0401    509.43037    78.817437    24.994623    16.293515 
   96800    240.38416    -337.0138    181563.75   -13288.293    988.82455   -14277.117   -613.91729    509.50347    78.817323    24.995961    16.299472 
   97000    243.22472   -193.07345    181563.75    -13300.13    1000.5092   -14300.639   -98.903333     513.5244     78.81365    24.994404    16.314713 
   97200    246.95977   -406.76121    181563.75   -13251.884    1015.8734   -14267.757   -851.56067    515.11011    78.813321    24.991696     16.29529 
   97400    230.36567   -438.50305    181563.75    -13344.58    947.61331   -14292.194   -1007.3788    516.42847    78.812117    24.987892    16.292926 
   97600    235.06882   -327.38893    181563.75   -13315.731    966.95978    -14282.69   -580.70066    517.91336    78.808687    24.988841    16.287911 
   97800    238.50996    -257.2147    181563.75   -13337.433    981.11497   -14318.548   -378.12718    516.09124    78.806878    24.985687    16.294233 
   98000     240.7238   -313.77114    181563.75   -13366.791    990.22166   -14357.012   -530.04734    518.04708     78.80534    24.984814    16.307535 
   98200    238.87799   -472.53269    181563.75   -13357.294     982.6289   -14339.923   -1121.5759    519.03215    78.800223    24.985418    16.297354 
   98400    241.60554   -157.32736    181563.75   -13303.684     993.8487   -14297.532   -29.715581    517.35858    78.801022    24.980284    16.316627 
   98600    245.31717   -257.44516    181563.75   -13292.292    1009.1165   -14301.408   -361.10345    517.24849    78.798908    24.976055    16.313582 
   98800    251.16501   -491.52683    181563.75   -13188.455    1033.1718   -14221.627   -1217.9294    519.47317    78.794627      24.9693    16.324042 
   99000    244.83119   -352.05704    181563.75   -13222.458    1007.1175   -14229.576   -684.37962    519.06969    78.791997    24.968796    16.337507 
   99200    238.54562   -151.63579    181563.75   -13233.002    981.26168   -14214.264    22.916453     520.6109    78.790802    24.966664    16.308814 
   99400    245.41365   -384.51759    181563.75   -13223.119    1009.5134   -14232.632   -803.64815    520.91166    78.790129    24.964278    16.309164 
   99600    239.44265   -272.43541    181563.75   -13210.876    984.95163   -14195.828   -443.16191    523.28917    78.793768    24.964567     16.32529 
   99800    244.20178   -325.85215    181563.75   -13216.015    1004.5284   -14220.544   -586.98157    525.12932    78.797508    24.963292    16.341123 
  100000    242.57077   -242.28145    181563.75   -13242.004     997.8192   -14239.823   -313.65864    526.25172    78.799057    24.956245    16.361063 
  100200    247.49916   -477.43171    181563.75   -13208.054    1018.0922   -14226.147   -1142.7328    526.86629    78.798107    24.951123    16.342643 
  100400    244.45681   -418.11488    181563.75   -13241.324    1005.5775   -14246.901   -920.02089    526.32874    78.797097    24.951033    16.352106 
  100600    234.38437    -536.2804    181563.75   -13282.573     964.1443   -14246.717   -1345.9325    529.40919    78.796133    24.951858    16.359335 
  100800    234.67819   -387.87516    181563.75   -13239.497    965.35294    -14204.85   -813.82437    531.42122     78.79342    24.951008    16.350322 
[...]
 5175800    225.60445   -373.03038    181563.75    -14734.37    928.02795   -15662.398   -681.94654    7169.2364    78.461663    26.184169    16.350255 
 5176000    227.31408   -419.93726    181563.75   -14687.177    935.06053   -15622.238   -841.51439    7174.1946    78.461511    26.183671    16.346273 
 5176200    229.63115   -338.90102    181563.75   -14707.639    944.59183   -15652.231   -560.95384    7172.8944     78.46087    26.184129     16.35271 
 5176400    225.42242   -271.84921    181563.75   -14743.242    927.27914   -15670.521   -354.25171    7171.1858    78.461434    26.185073    16.354451 
 5176600    222.92927     -365.984    181563.75    -14695.37    917.02354   -15612.394   -663.24242    7174.5759    78.461161    26.185744    16.350186 
 5176800    219.66475   -421.67243    181563.75   -14715.079    903.59487   -15618.674   -885.22812    7174.7023    78.461171    26.185889    16.346273 
 5177000     226.4375   -269.21783    181563.75   -14732.001     931.4547   -15663.455    -322.2726    7170.5347     78.46143    26.188356    16.348017 
 5177200    229.29194   -272.56176    181563.75   -14683.664    943.19647   -15626.861   -318.16051    7173.2991    78.461808    26.188322    16.347931 
 5177400    231.26622   -444.83716    181563.75   -14711.519    951.31774   -15662.836   -936.91891    7175.4471    78.462752    26.188061    16.351789 
 5177600    231.69878    -334.9715    181563.75   -14719.556    953.09707   -15672.653   -527.25314    7171.8413    78.463838    26.188219    16.346949 
 5177800    222.23355   -268.52462    181563.75   -14735.615    914.16168   -15649.777   -304.61424    7170.6366    78.462972    26.189215    16.352292 
 5178000    226.74864   -429.16798    181563.75   -14717.763     932.7346   -15650.498   -890.98431    7174.1751    78.462927    26.189109    16.351525 
 5178200    225.68929   -389.87761    181563.75   -14740.901    928.37692   -15669.278   -733.56737    7175.0661    78.462732    26.189054    16.352096 
 5178400    234.92641   -252.06459    181563.75   -14717.618    966.37397   -15683.992   -282.72746     7172.944    78.463784    26.190796    16.344661 
 5178600    236.51499   -287.30387    181563.75   -14707.166    972.90862   -15680.075   -380.22704    7172.6194    78.463897    26.191364    16.350155 
 5178800    227.03792   -445.08349    181563.75   -14677.742    933.92453   -15611.666   -935.69288    7177.9684     78.46316    26.191874    16.345403 
 5179000    235.16938   -284.92058    181563.75   -14677.074    967.37346   -15644.447   -369.90653    7174.9046    78.464295    26.192859    16.348387 
 5179200     226.3466   -248.30249    181563.75   -14714.614     931.0808   -15645.695   -238.28338    7173.6451    78.464378     26.19305    16.352639 
 5179400    231.17522   -409.97322    181563.75   -14722.971    950.94339   -15673.915   -819.30076    7174.9557    78.464885    26.193347    16.349435 
 5179600    224.08277   -374.81615    181563.75    -14750.53    921.76848   -15672.299   -695.26069    7177.1665    78.464698     26.19355    16.346872 
 5179800    227.80504   -243.50668    181563.75   -14706.727    937.08011   -15643.807   -222.12755    7170.1214    78.465117    26.195708    16.349466 
 5180000    226.60147   -381.42655    181563.75   -14734.088     932.1292   -15666.218   -698.93018    7173.3616    78.465518    26.195958     16.35371 
 5180200    220.72139   -483.80056    181563.75   -14721.544    907.94138   -15629.486   -1088.5373    7177.1756    78.465661    26.195938    16.349235 
 5180400    229.73343    -271.0683    181563.75   -14704.943    945.01255   -15649.956   -354.88386    7170.0928    78.465671    26.196313    16.351186 
 5180600     225.3917   -272.66819    181563.75   -14762.767    927.15278    -15689.92   -345.59733    7172.5518    78.466869    26.197278    16.347374 
 5180800    223.33128   -444.47001    181563.75   -14733.144     918.6772   -15651.821   -934.52906     7177.853    78.467736    26.197293    16.348651 
 5181000    227.98226   -327.75175    181563.75   -14743.552    937.80911   -15681.361   -550.62392    7172.6787    78.467382    26.197331    16.348479 
 5181200    230.54602   -252.26205    181563.75   -14715.823    948.35519   -15664.178   -251.46117    7172.6023    78.467697    26.197208    16.350069 
 5181400    232.32555   -386.91984    181563.75   -14702.212    955.67529   -15657.887   -741.05253    7174.3826     78.46776    26.197136     16.34962 
 5181600    220.67552   -378.33688    181563.75   -14704.699    907.75268   -15612.452   -705.20868    7174.0912    78.467488    26.196891    16.345909 
 5181800    227.38138   -306.05973    181563.75   -14682.769    935.33737   -15618.106   -463.62626    7172.3765    78.468522    26.197746     16.34554 
 5182000    220.89852   -346.15335    181563.75   -14754.916    908.67002   -15663.586   -586.54575    7173.1376    78.468856    26.197372    16.341227 
 5182200    215.14952   -448.33356    181563.75    -14824.55     885.0214   -15709.572   -955.36359    7175.8216    78.468477    26.198479    16.344292 
 5182400    229.76951   -291.16736    181563.75   -14730.719    945.16098    -15675.88   -411.84826    7174.2059     78.46978    26.199026    16.345512 
 5182600    222.87981   -178.60869    181563.75    -14708.44    916.82007    -15625.26    -7.417176    7170.1078    78.470159    26.200623    16.348696 
 5182800    229.63976   -401.29069    181563.75   -14726.758    944.62725   -15671.385   -766.74589    7174.3615     78.47095    26.201758    16.341561 
 5183000    228.93179   -433.14796    181563.75   -14724.608    941.71499   -15666.323   -870.41441    7176.5279    78.471262    26.203133    16.344443 
 5183200     232.6951   -249.19148    181563.75   -14691.717    957.19544   -15648.912   -254.20851    7167.6998    78.472295    26.205012    16.345201 
 5183400     225.9769   -316.53494    181563.75   -14743.656    929.56001   -15673.216   -504.95245    7172.9355    78.471334    26.205947    16.340663 
 5183600    223.48742   -492.85409    181563.75   -14725.238    919.31948   -15644.558    -1112.502    7175.9287    78.471799    26.206618    16.340273 
 5183800    219.79629   -309.95352    181563.75   -14764.645    904.13596   -15668.781   -505.22984    7172.9643     78.47148    26.207469    16.345377 
 5184000    224.60674   -214.58668    181563.75   -14743.995    923.92383   -15667.919   -140.63232    7169.5688    78.473164    26.208301    16.345728 
 5184200    221.42571    -444.2188    181563.75   -14727.585     910.8386   -15638.424   -913.17834    7176.5817      78.4739    26.209231    16.349786 
 5184400    222.02132   -396.50569    181563.75   -14745.846    913.28867   -15659.135   -762.69921    7173.2251    78.474431    26.209996    16.349575 
 5184600    228.31833   -190.94326    181563.75   -14718.633    939.19152   -15657.825   -56.155547    7167.6509    78.474418    26.210497    16.340411 
 5184800    227.71239   -387.80982    181563.75   -14671.249    936.69899   -15607.948   -752.70351     7171.902     78.47463    26.209848    16.347442 
 5185000    230.54239   -460.52125    181563.75   -14668.225    948.34023   -15616.565    -940.5629    7177.3618    78.475287    26.210965    16.344903 
 5185200    228.80392   -243.05471    181563.75   -14720.608    941.18903   -15661.797   -237.06684     7173.031    78.474103    26.211194    16.345986 
 5185400    231.05341     -208.687    181563.75   -14730.236    950.44234   -15680.679    -138.3814    7173.1656    78.474466    26.212595    16.350652 
 5185600    216.42267   -406.85266    181563.75   -14776.481    890.25853    -15666.74   -773.06721    7175.6399    78.475021    26.214243    16.345228 
 5185800    220.88448    -436.4595    181563.75   -14722.704    908.61226   -15631.317   -910.46574    7176.3783    78.474705    26.214918    16.345204 
 5186000    237.86355   -198.74865    181563.75   -14689.872    978.45597   -15668.328   -60.028316    7171.0174     78.47337    26.216494    16.346261 
 5186200    227.59508   -379.51531    181563.75    -14675.76    936.21641   -15611.976   -706.35879    7171.8948    78.473415    26.217034    16.346382 
 5186400    220.34354   -450.35181    181563.75   -14743.236    906.38707   -15649.623   -983.12063    7178.4684    78.475088    26.218226    16.346887 
 5186600    227.97115   -250.55839    181563.75   -14725.687    937.76339    -15663.45   -252.52612    7169.7557    78.476526    26.219082    16.341217 
 5186800    234.28048   -285.38593    181563.75    -14686.91    963.71693   -15650.627   -413.71395    7172.1186    78.475561    26.220461    16.346986 
 5187000    224.27957    -460.3753    181563.75   -14728.962      922.578    -15651.54    -996.6109    7179.7941    78.475826    26.219076    16.344234 
 5187200    215.74718   -371.59641    181563.75   -14712.671    887.47988   -15600.151   -673.67511    7174.4452    78.476742    26.219108    16.347714 
 5187400    219.55504   -217.76523    181563.75   -14760.525     903.1436   -15663.669   -161.15919    7168.7637    78.477721    26.219576    16.345062 
 5187600    224.03658   -375.82756    181563.75   -14735.468    921.57846   -15657.046    -713.3095    7177.6033    78.478104    26.220211    16.343525 
 5187800    229.97988   -415.71712    181563.75   -14712.821    946.02636   -15658.847   -818.28566     7175.251    78.478548    26.220566    16.344964 
 5188000    219.21698   -243.59035    181563.75   -14741.085    901.75295   -15642.838   -263.69917    7169.6669    78.478457    26.221408    16.344718 
 5188200    241.54712   -230.98928    181563.75   -14708.329    993.60841   -15701.938    -193.2019    7173.1976    78.477492    26.223261    16.348802 
 5188400    222.35742   -478.69137    181563.75   -14726.118    914.67122   -15640.789   -1094.5163    7177.0248    78.477529    26.223319    16.344835 
 5188600     219.2561   -389.95494    181563.75   -14747.326    901.91389    -15649.24   -765.32713    7173.2913    78.477239    26.224295     16.34347 
 5188800    226.24526   -197.54936    181563.75   -14708.378    930.66391   -15639.042    -71.47432    7174.4524    78.476781    26.226555    16.347702 
 5189000    224.12653   -403.88347    181563.75     -14718.1    921.94848   -15640.048   -786.65026    7174.1389    78.477051    26.226384    16.341521 
 5189200    225.63312   -445.68526    181563.75   -14706.824    928.14586    -15634.97   -917.54414    7173.8074    78.477631    26.226721    16.346681 
 5189400    225.35569   -254.73357    181563.75   -14725.056    927.00467   -15652.061   -248.63645    7173.9495     78.47956    26.228128    16.348926 
 5189600    223.41998   -346.86571    181563.75   -14739.594    919.04209   -15658.636   -638.07905    7169.9724    78.480374    26.228003    16.348041 
 5189800    221.23372   -441.16793    181563.75   -14744.911    910.04885    -15654.96    -907.3315    7177.4302    78.481683    26.227304    16.350448 
 5190000    223.89278   -300.94593    181563.75   -14729.231    920.98696   -15650.218   -470.65604    7173.5665    78.482341    26.227922    16.345748 
 5190200    224.65558   -197.85373    181563.75   -14755.488    924.12474   -15679.612   -45.527393    7170.0629    78.484344    26.228157    16.342326 
 5190400    226.17154   -430.67552    181563.75   -14713.553    930.36067   -15643.914   -923.75512    7173.7554    78.484757    26.227171    16.345417 
 5190600      226.521   -357.68736    181563.75   -14694.016     931.7982   -15625.815   -616.18414    7175.1522    78.486343    26.229001    16.347151 
 5190800    229.77186   -226.52566    181563.75   -14721.409    945.17064    -15666.58   -150.20917    7170.4296     78.48704    26.230082    16.345023 
 5191000    220.68571   -363.44929    181563.75   -14763.711    907.79459   -15671.506   -632.36718    7175.6129    78.486378    26.230095    16.345158 
 5191200    218.58105   -447.58155    181563.75   -14739.927    899.13706   -15639.065   -928.92233    7179.2396    78.486115     26.23093    16.349452 
 5191400    223.48037   -299.17337    181563.75   -14729.348    919.29049   -15648.638   -461.63575    7167.3646    78.486362    26.231583    16.347334 
 5191600    229.88434   -301.85266    181563.75       -14725    945.63334   -15670.633   -492.27676    7170.9731    78.486351    26.231592    16.351259 
 5191800    224.38494   -448.25922    181563.75   -14734.931    923.01145   -15657.943   -962.70838     7175.453    78.485919    26.232078    16.343335 
 5192000    227.55681    -342.1255    181563.75   -14709.194    936.05901   -15645.253    -606.2413    7168.9727    78.484578     26.23213    16.350153 
 5192200    235.65036   -279.26866    181563.75   -14655.272    969.35197   -15624.624   -375.95158    7172.2609    78.484579    26.232324     16.35252 
 5192400    230.74906    -429.9645    181563.75   -14639.696    949.19037   -15588.886   -920.72485    7172.6583    78.486225    26.233618    16.346612 
 5192600    225.87078   -358.81863    181563.75   -14716.311    929.12347   -15645.434    -583.9586      7171.52    78.486749    26.232204    16.348647 
 5192800     225.0665   -270.18766    181563.75   -14730.702    925.81506   -15656.517     -309.954    7173.8123    78.486259    26.232044    16.349885 
 5193000    225.10821   -255.16556    181563.75    -14712.92    925.98664   -15638.907   -297.88688    7171.4578    78.488102    26.231396    16.349441 
 5193200    230.65299   -478.57649    181563.75   -14709.024    948.79519    -15657.82   -1084.8682    7174.4506    78.489384    26.230221     16.35122 
 5193400    217.59738   -268.05211    181563.75   -14773.891    895.09071   -15668.982   -277.55772    7172.1382    78.490355    26.230785    16.346807 
 5193600     219.3831    -277.6247    181563.75   -14713.586     902.4363   -15616.022    -342.1674    7172.2954    78.490627    26.231272    16.348898 
 5193800    227.38688   -368.05305    181563.75   -14743.952       935.36   -15679.312   -659.60732    7173.0358    78.491386    26.231682    16.351043 
 5194000    230.27795   -386.43222    181563.75   -14695.741    947.25246   -15642.994   -789.39568    7173.7369    78.491738    26.231617    16.349197 
 5194200    220.98241   -324.91434    181563.75   -14712.329    909.01509   -15621.345   -566.66951    7171.9246    78.491943    26.231695    16.348381 
 5194400    234.96234    -341.2125    181563.75   -14671.314     966.5218   -15637.836   -576.05154    7170.6907    78.492309    26.230448    16.351217 
 5194600    218.38874   -430.17115    181563.75   -14724.286    898.34598   -15622.632   -848.06403    7174.3362    78.491434    26.228802    16.353542 
 5194800    220.28197   -327.42742    181563.75   -14687.363    906.13383   -15593.497   -556.09028    7172.3526    78.492819    26.228394    16.348557 
 5195000    234.60089    -267.2139    181563.75   -14692.973    965.03495   -15658.008   -309.63161    7170.0658    78.493732     26.22715    16.348954 
 5195200    223.09598   -388.32976    181563.75   -14741.418    917.70931   -15659.128     -782.949    7176.3877     78.49616    26.227198    16.351342 
 5195400    219.59434   -318.63503    181563.75    -14716.28    903.30523   -15619.586   -478.90007    7173.9483    78.496617    26.226474    16.348211 
 5195600    223.23177   -251.31545    181563.75   -14705.727    918.26789   -15623.994   -275.87568     7170.729    78.497138    26.225036    16.352233 
 5195800    225.74832   -375.54284    181563.75   -14719.616    928.61974   -15648.236    -704.0435    7177.3191    78.496594    26.225763    16.349789 
 5196000     229.8651   -379.54569    181563.75   -14676.597    945.55419   -15622.151   -690.65001    7176.8293    78.497336    26.224736    16.345913 
 5196200    225.64003   -347.53003    181563.75   -14702.833    928.17428   -15631.007   -625.91803    7173.3436    78.497091    26.224708     16.35138 
 5196400    228.85747   -386.78526    181563.75   -14656.412     941.4093   -15597.822   -749.68095    7178.0786    78.496183    26.226077    16.351291 
 5196600     227.9775    -350.6974    181563.75    -14738.74    937.78953   -15676.529   -611.99614      7175.17    78.496569     26.22721    16.350401 
 5196800    223.24296   -374.04123    181563.75   -14719.627    918.31389   -15637.941   -674.05235    7173.9063     78.49708    26.227072     16.35335 
 5197000    230.40773   -370.43197    181563.75    -14694.81    947.78632   -15642.596   -696.04688    7173.9971    78.496947    26.228342    16.347736 
 5197200    225.43088   -411.55019    181563.75   -14704.864    927.31393   -15632.178   -842.94866    7175.4031    78.496722    26.229729    16.351847 
 5197400    232.38026   -395.73452    181563.75    -14650.04    955.90037   -15605.941   -739.31679    7174.6563    78.497384    26.231661    16.350318 
 5197600    234.39853   -278.68075    181563.75   -14691.918    964.20254    -15656.12   -309.69084    7175.6944    78.496651    26.232866    16.343474 
 5197800    231.53439   -321.69652    181563.75   -14683.242    952.42087   -15635.662   -548.72932    7173.1924     78.49596    26.233519    16.347459 
 5198000    233.77918   -373.00575    181563.75   -14660.819    961.65483   -15622.474   -681.48332    7174.5857    78.496987    26.233568    16.342228 
 5198200    232.76338   -381.07437    181563.75   -14705.155    957.47633   -15662.631   -756.69605    7176.4005     78.49757    26.234737    16.342382 
 5198400    220.12903   -289.63636    181563.75   -14726.529    905.50469   -15632.034   -377.81917    7175.4896    78.497897    26.233684    16.334591 
 5198600    223.11769   -323.07503    181563.75   -14706.462    917.79858    -15624.26   -529.99664    7173.5817    78.497757    26.234272    16.341952 
 5198800    222.44473   -468.79191    181563.75   -14756.665    915.03038   -15671.696   -1065.3918    7178.3932    78.498184    26.234675    16.342159 
 5199000    230.64328   -387.06294    181563.75   -14726.454    948.75524    -15675.21   -724.95614     7175.153    78.499921    26.236473    16.338636 
 5199200     223.2095   -285.66324    181563.75   -14725.007    918.17626   -15643.183   -377.42606    7171.1054    78.500139    26.235725    16.340033 
 5199400    223.44363   -409.63088    181563.75   -14754.682    919.13938   -15673.821    -809.9947    7176.4611    78.500764    26.235689    16.342403 
 5199600    221.95328   -344.49522    181563.75   -14757.229     913.0088   -15670.237   -575.32772    7172.7682     78.50225    26.237531     16.34027 
 5199800    231.05607   -334.32651    181563.75   -14699.088    950.45327   -15649.541    -561.8299    7170.0676    78.502799    26.236726    16.341973 
 5200000    223.24717   -365.03551    181563.75   -14703.785    918.33122   -15622.116   -657.44534    7174.6119    78.503822    26.238117    16.334803 
Loop time of 7731.57 on 100 procs for 5200000 steps with 9253 atoms

Performance: 581.098 ns/day, 0.041 hours/ns, 672.567 timesteps/s
97.8% CPU use with 100 MPI tasks x no OpenMP threads

MPI task timing breakdown:
Section |  min time  |  avg time  |  max time  |%varavg| %total
---------------------------------------------------------------
Pair    | 0.53619    | 2129.8     | 6428       |5124.7 | 27.55
Neigh   | 4.9108     | 146.43     | 364.02     | 980.5 |  1.89
Comm    | 115.99     | 1525.3     | 5614.3     |4045.9 | 19.73
Output  | 85.32      | 85.372     | 86.482     |   1.2 |  1.10
Modify  | 141.98     | 3783.3     | 7474.7     |5159.7 | 48.93
Other   |            | 61.26      |            |       |  0.79

Nlocal:    92.53 ave 189 max 0 min
Histogram: 30 0 9 11 0 0 0 4 36 10
Nghost:    793.45 ave 1097 max 579 min
Histogram: 24 6 0 24 14 2 3 17 0 10
Neighs:    0 ave 0 max 0 min
Histogram: 100 0 0 0 0 0 0 0 0 0
FullNghs:  9947.9 ave 23024 max 0 min
Histogram: 34 16 0 0 0 0 3 21 21 5

Total # of neighbors = 994790
Ave neighs/atom = 107.51
Neighbor list builds = 521616
Dangerous builds = 0
write_data 		${DIR}/data.${NAME}_run
write_data 		run_23/data.${NAME}_run
write_data 		run_23/data.ibeam_cooling_23_run
Total wall time: 2:09:07
