

### IMPORT ATOMS ###
read_data ../Box_Setup/data.Ibeam_240K
  orthogonal box = (0 0 0) to (157.504 42.9242 26.8557)
  10 by 5 by 2 MPI processor grid
  reading atoms ...
  9253 atoms
  reading velocities ...
  9253 velocities
group water type 2
1381 atoms in group water
group graphite type 1
7872 atoms in group graphite


# Define potential
#
pair_style          sw
pair_coeff * * MLC_e.sw C mW

# Add velocity/set timestep
#

fix		1 graphite setforce 0.0 0.0 0.0
velocity 	graphite set 0.0 0.0 0.0
velocity            water create ${START_TEMP} ${SEED} rot yes dist gaussian
velocity            water create 240 ${SEED} rot yes dist gaussian
velocity            water create 240 25044 rot yes dist gaussian
timestep            5.0

# Define output
#
compute 1 water msd
compute 2 water temp


thermo	            100
thermo_style custom step c_2 press vol etotal ke pe c_1[4] density

# Neighbor lists
#
neigh_modify        delay 0 every 1 check yes


# Set fixes
#
fix                 2 water momentum 10 linear 1 1 1 rescale
fix                 3 all nve
fix                 4 water temp/csvr ${START_TEMP} ${START_TEMP} 500.0 928347
fix                 4 water temp/csvr 240 ${START_TEMP} 500.0 928347
fix                 4 water temp/csvr 240 240 500.0 928347

# Run 0.05 ns equilibration
#
dump                1 all custom 100 ${DIR}/eq.${NAME}.dump id type x y z vx vy vz
dump                1 all custom 100 run_23/eq.${NAME}.dump id type x y z vx vy vz
dump                1 all custom 100 run_23/eq.ibeam_cooling_23.dump id type x y z vx vy vz
run                 10000
Neighbor list info ...
  update every 1 steps, delay 0 steps, check yes
  max neighbors/atom: 2000, page size: 100000
  master list distance cutoff = 6.67472
  ghost atom cutoff = 6.67472
  binsize = 3.33736, bins = 48 13 9
  1 neighbor lists, perpetual/occasional/extra = 1 0 0
  (1) pair sw, perpetual
      attributes: full, newton on
      pair build: full/bin/atomonly
      stencil: full/bin/3d
      bin: standard
Per MPI rank memory allocation (min/avg/max) = 3.369 | 4.254 | 4.745 Mbytes
Step c_2 Press Volume TotEng KinEng PotEng c_1[4] Density 
       0          240   -344.39513    181563.75    -13284.54    987.24429   -14271.784            0    1.0922001 
     100    244.25712   -321.30563    181563.75   -13246.985     1004.756   -14251.741   0.84830941    1.0922001 
     200     235.8789   -260.57898    181563.75   -13290.042    970.29206   -14260.334      1.36071    1.0922001 
     300    248.67418   -194.10082    181563.75   -13286.002    1022.9257   -14308.928    1.8217946    1.0922001 
     400    237.61342   -359.58341    181563.75   -13310.719    977.42706   -14288.146    2.2481498    1.0922001 
     500    239.18702   -588.95379    181563.75   -13318.749    983.90008   -14302.649    2.5669978    1.0922001 
     600    236.14165   -403.72718    181563.75     -13392.9    971.37292   -14364.273     2.887149    1.0922001 
     700    237.10363   -302.02251    181563.75   -13382.369    975.33003   -14357.699    3.3219583    1.0922001 
     800    230.85226   -317.01973    181563.75   -13413.715    949.61491    -14363.33    3.7284884    1.0922001 
     900    233.90308   -232.79197    181563.75   -13371.907    962.16451   -14334.071    4.3159647    1.0922001 
    1000    236.17046   -382.62921    181563.75   -13319.294     971.4914   -14290.785    4.8775555    1.0922001 
    1100    234.53248   -338.46494    181563.75     -13332.2    964.75355   -14296.953    5.0733397    1.0922001 
    1200    240.16998   -402.80394    181563.75   -13364.472    987.94351   -14352.416    5.4755231    1.0922001 
    1300    239.08521   -350.88688    181563.75   -13329.445    983.48127   -14312.926    5.6110306    1.0922001 
    1400    240.97936   -188.55104    181563.75    -13274.08    991.27289   -14265.353    5.8556024    1.0922001 
    1500    240.05686   -434.13577    181563.75   -13283.141    987.47819   -14270.619    6.3127762    1.0922001 
    1600    243.43583   -409.98188    181563.75   -13259.268    1001.3777   -14260.646    6.7705164    1.0922001 
    1700    242.61749    -261.0007    181563.75   -13288.926    998.01139   -14286.937    7.2862506    1.0922001 
    1800    235.40463    -264.3136    181563.75   -13292.088    968.34114    -14260.43    7.8026091    1.0922001 
    1900    249.60548   -408.00579    181563.75   -13233.801    1026.7566   -14260.558    8.0837843    1.0922001 
    2000    257.20901   -534.78571    181563.75   -13203.851    1058.0339   -14261.885    8.3157057    1.0922001 
    2100    248.10059   -351.84322    181563.75   -13200.803    1020.5662    -14221.37    8.7332513    1.0922001 
    2200    249.45203   -317.09401    181563.75   -13202.285    1026.1254    -14228.41    9.2939441    1.0922001 
    2300    247.66014    -236.7426    181563.75    -13249.13    1018.7544   -14267.884      9.61093    1.0922001 
    2400    251.85818   -401.67693    181563.75   -13246.362    1036.0231   -14282.385    9.9593172    1.0922001 
    2500    240.90409   -296.83972    181563.75   -13246.468    990.96327   -14237.431    10.292029    1.0922001 
    2600    236.27555   -565.07632    181563.75   -13266.188     971.9237   -14238.112    10.576946    1.0922001 
    2700     244.9442   -280.09236    181563.75    -13247.08    1007.5824   -14254.662    11.068815    1.0922001 
    2800    238.55267   -123.33674    181563.75   -13264.202    981.29065   -14245.493    11.728911    1.0922001 
    2900    231.18488   -112.43591    181563.75   -13328.196    950.98314   -14279.179     12.10055    1.0922001 
    3000     240.1539   -497.89727    181563.75   -13359.579    987.87734   -14347.456    12.425362    1.0922001 
    3100    243.51689   -332.03791    181563.75   -13369.027    1001.7111   -14370.738     13.00685    1.0922001 
    3200    226.07192   -312.11747    181563.75   -13379.786    929.95089   -14309.737    13.592313    1.0922001 
    3300    238.56314   -380.84291    181563.75   -13329.282    981.33372   -14310.616    14.171885    1.0922001 
    3400    237.16549   -367.27275    181563.75   -13336.581     975.5845   -14312.165    14.341361    1.0922001 
    3500    230.86479   -364.14225    181563.75   -13334.712    949.66645   -14284.379    14.681826    1.0922001 
    3600    239.54438   -271.14333    181563.75   -13317.381    985.37007   -14302.751    15.121908    1.0922001 
    3700    237.69512   -284.35826    181563.75   -13361.204    977.76312   -14338.967    15.492293    1.0922001 
    3800    238.42799   -310.75364    181563.75   -13345.285    980.77778   -14326.062    15.537281    1.0922001 
    3900    238.54067   -284.74194    181563.75   -13355.072     981.2413   -14336.313    15.688281    1.0922001 
    4000    239.89927   -360.80879    181563.75   -13358.077    986.82993   -14344.907    16.346388    1.0922001 
    4100    240.31571   -385.40773    181563.75   -13326.929    988.54296   -14315.472     16.72372    1.0922001 
    4200    251.14814   -510.00969    181563.75   -13296.039    1033.1024   -14329.141    17.022046    1.0922001 
    4300    245.82612   -486.05894    181563.75    -13237.43    1011.2101    -14248.64    16.974897    1.0922001 
    4400    252.29033   -291.23796    181563.75   -13263.606    1037.8008   -14301.407     17.39261    1.0922001 
    4500    238.23053   -331.86788    181563.75    -13319.62    979.96553   -14299.586     17.63196    1.0922001 
    4600     238.4741   -314.31571    181563.75   -13344.389    980.96749   -14325.356    17.981549    1.0922001 
    4700    241.10389   -372.00536    181563.75   -13356.377    991.78515   -14348.162    18.341638    1.0922001 
    4800    244.32555   -306.02777    181563.75    -13332.09    1005.0375   -14337.128    18.743194    1.0922001 
    4900    235.31109   -174.84638    181563.75   -13358.194    967.95636    -14326.15    19.288835    1.0922001 
    5000    233.57414   -390.20187    181563.75   -13368.322    960.81138   -14329.133    19.740715    1.0922001 
    5100    242.85343   -307.52334    181563.75   -13385.525    998.98191   -14384.507     20.08021    1.0922001 
    5200    238.36983    -391.9055    181563.75   -13376.381    980.53854    -14356.92    20.647663    1.0922001 
    5300    236.02104   -503.14471    181563.75   -13421.597    970.87679   -14392.474    20.658681    1.0922001 
    5400    240.57787   -476.56947    181563.75   -13380.161    989.62139   -14369.782    21.013221    1.0922001 
    5500    234.87921    -287.7995    181563.75   -13399.582    966.17984   -14365.762    20.833673    1.0922001 
    5600    234.05601   -365.11232    181563.75   -13411.268    962.79359   -14374.062    21.489721    1.0922001 
    5700     236.1499   -215.51584    181563.75   -13370.438    971.40681   -14341.845    21.732994    1.0922001 
    5800    250.91239   -303.44195    181563.75   -13312.502    1032.1326   -14344.635    22.328374    1.0922001 
    5900    239.29558   -391.55911    181563.75    -13352.19    984.34666   -14336.536    22.808579    1.0922001 
    6000    236.49364   -358.64365    181563.75   -13413.495    972.82081   -14386.316    22.779218    1.0922001 
    6100    233.31174   -407.42282    181563.75   -13407.696    959.73201   -14367.428    22.625958    1.0922001 
    6200      236.684   -309.47105    181563.75   -13383.459    973.60388   -14357.063    23.081176    1.0922001 
    6300     234.3081   -401.08979    181563.75     -13356.5    963.83054    -14320.33    23.091591    1.0922001 
    6400    231.49137   -258.80301    181563.75   -13344.369    952.24388   -14296.613    23.154625    1.0922001 
    6500      238.295   -423.47095    181563.75   -13351.484    980.23075   -14331.715    23.214485    1.0922001 
    6600    232.09109   -258.70502    181563.75   -13390.308    954.71085   -14345.019    23.584183    1.0922001 
    6700    239.31804   -304.00614    181563.75   -13413.019    984.43904   -14397.458    24.088678    1.0922001 
    6800    231.38845   -356.24778    181563.75   -13399.879    951.82052   -14351.699    24.379954    1.0922001 
    6900    239.31384   -325.39311    181563.75   -13429.555    984.42174   -14413.977    24.662799    1.0922001 
    7000    229.77807   -292.46738    181563.75   -13431.469    945.19618   -14376.665    25.243944    1.0922001 
    7100    241.36987   -449.76728    181563.75   -13356.571    992.87926    -14349.45    25.505557    1.0922001 
    7200    234.93807   -383.51326    181563.75   -13356.722    966.42195   -14323.144    25.473894    1.0922001 
    7300    234.41814   -488.79085    181563.75   -13415.852    964.28319   -14380.135    25.711035    1.0922001 
    7400    227.73857   -407.38173    181563.75   -13406.364    936.80669   -14343.171     25.95455    1.0922001 
    7500     229.0217   -342.23758    181563.75   -13417.923    942.08487   -14360.008    26.217083    1.0922001 
    7600    230.25878   -142.49393    181563.75   -13421.117    947.17362   -14368.291     26.41466    1.0922001 
    7700    231.17148   -201.16937    181563.75   -13402.876    950.92803   -14353.804    26.694908    1.0922001 
    7800    232.38191   -361.08099    181563.75   -13361.897    955.90713   -14317.804    26.840825    1.0922001 
    7900    238.28864   -472.20338    181563.75   -13366.584    980.20457   -14346.789    27.367478    1.0922001 
    8000    235.99288   -462.20323    181563.75    -13367.74    970.76093   -14338.501    27.947552    1.0922001 
    8100    232.53082   -330.50975    181563.75   -13377.972    956.51967   -14334.491    27.888204    1.0922001 
    8200    235.02989    -425.8916    181563.75   -13401.435    966.79964   -14368.234    28.060252    1.0922001 
    8300     235.9244   -354.46686    181563.75   -13411.917    970.47923   -14382.396    28.139096    1.0922001 
    8400    233.20608   -404.43166    181563.75   -13413.031    959.29739   -14372.328    28.316298    1.0922001 
    8500    241.39658   -423.02473    181563.75   -13402.712    992.98913   -14395.701    28.515903    1.0922001 
    8600    246.77806   -354.56732    181563.75   -13371.166    1015.1259   -14386.292    29.004039    1.0922001 
    8700    233.62642   -446.58878    181563.75     -13427.2    961.02645   -14388.226    29.329047    1.0922001 
    8800     239.5253   -413.49987    181563.75   -13373.296    985.29158   -14358.588    29.521578    1.0922001 
    8900    240.53431   -313.75773    181563.75   -13400.342    989.44217   -14389.784    29.675584    1.0922001 
    9000    234.28352    -344.5524    181563.75    -13363.02    963.72944   -14326.749    30.381351    1.0922001 
    9100    247.93996   -337.61504    181563.75   -13349.627    1019.9055   -14369.532    30.574077    1.0922001 
    9200    233.31898   -386.44786    181563.75   -13369.229    959.76177   -14328.991    30.846441    1.0922001 
    9300    234.53221   -257.26696    181563.75   -13380.358    964.75246   -14345.111    31.539811    1.0922001 
    9400    239.86001   -377.60834    181563.75   -13388.981    986.66843   -14375.649    31.515712    1.0922001 
    9500    244.40457   -309.34763    181563.75   -13381.347    1005.3626    -14386.71    31.690354    1.0922001 
    9600    235.34786   -393.28023    181563.75   -13443.564    968.10763   -14411.671     32.15622    1.0922001 
    9700    237.47551    -308.6613    181563.75   -13386.213    976.85977   -14363.073    32.219969    1.0922001 
    9800    234.13498   -197.45972    181563.75   -13411.776    963.11843   -14374.894    32.394978    1.0922001 
    9900    237.42753   -360.45339    181563.75   -13374.402    976.66238   -14351.064    32.818724    1.0922001 
   10000    241.94128   -394.74524    181563.75   -13313.197    995.22979   -14308.427    33.269784    1.0922001 
Loop time of 15.8396 on 100 procs for 10000 steps with 9253 atoms

Performance: 272.734 ns/day, 0.088 hours/ns, 631.329 timesteps/s
97.7% CPU use with 100 MPI tasks x no OpenMP threads

MPI task timing breakdown:
Section |  min time  |  avg time  |  max time  |%varavg| %total
---------------------------------------------------------------
Pair    | 0.0010159  | 4.4329     | 13.414     | 237.7 | 27.99
Neigh   | 0.0051863  | 0.15652    | 0.37079    |  31.6 |  0.99
Comm    | 0.20975    | 2.9679     | 10.916     | 178.9 | 18.74
Output  | 0.15025    | 0.15051    | 0.16289    |   0.3 |  0.95
Modify  | 0.27924    | 8.0059     | 15.349     | 230.4 | 50.54
Other   |            | 0.1259     |            |       |  0.80

Nlocal:    92.53 ave 187 max 0 min
Histogram: 30 0 10 10 0 0 0 4 30 16
Nghost:    793.56 ave 1111 max 563 min
Histogram: 24 6 0 25 13 2 5 14 1 10
Neighs:    0 ave 0 max 0 min
Histogram: 100 0 0 0 0 0 0 0 0 0
FullNghs:  9986.96 ave 22982 max 0 min
Histogram: 34 16 0 0 0 0 3 21 21 5

Total # of neighbors = 998696
Ave neighs/atom = 107.932
Neighbor list builds = 550
Dangerous builds = 0
write_data 	    ${DIR}/data.${NAME}_eq
write_data 	    run_23/data.${NAME}_eq
write_data 	    run_23/data.ibeam_cooling_23_eq

undump              1
unfix               4



################################################
#######         Run Simulation         #########
################################################

reset_timestep      0
timestep	    10.0
log                 ${DIR}/log.run_${NAME}
log                 run_23/log.run_${NAME}
log                 run_23/log.run_ibeam_cooling_23
