
### Dimensions ###


### IMPORT ATOMS ###
read_data ../Box_Setup/data.Ibeam_240K
  orthogonal box = (0 0 0) to (189.989 26.9999 39.8504)
  15 by 2 by 4 MPI processor grid
  reading atoms ...
  8482 atoms
  reading velocities ...
  8482 velocities
group water type 2
2436 atoms in group water
group graphite type 1
6046 atoms in group graphite


# Define potential
#
pair_style          sw
pair_coeff * * MLC_e.sw C mW

# Add velocity/set timestep
#

fix		1 graphite setforce 0.0 0.0 0.0
velocity 	graphite set 0.0 0.0 0.0
velocity            water create ${START_TEMP} ${SEED} rot yes dist gaussian
velocity            water create 240 ${SEED} rot yes dist gaussian
velocity            water create 240 22149 rot yes dist gaussian
timestep            5.0

# Define output
#
compute 1 water msd
compute 2 water temp


thermo	            100
thermo_style custom step c_2 press vol etotal ke pe c_1[4] density

# Neighbor lists
#
neigh_modify        delay 0 every 1 check yes


# Set fixes
#
fix                 2 water momentum 10 linear 1 1 1 rescale
fix                 3 all nve
fix                 4 water temp/csvr ${START_TEMP} ${START_TEMP} 500.0 928347
fix                 4 water temp/csvr 240 ${START_TEMP} 500.0 928347
fix                 4 water temp/csvr 240 240 500.0 928347

# Run 0.05 ns equilibration
#
dump                1 all custom 100 ${DIR}/eq.${NAME}.dump id type x y z vx vy vz
dump                1 all custom 100 run_23/eq.${NAME}.dump id type x y z vx vy vz
dump                1 all custom 100 run_23/eq.ibeam_cooling_23.dump id type x y z vx vy vz
run                 10000
Neighbor list info ...
  update every 1 steps, delay 0 steps, check yes
  max neighbors/atom: 2000, page size: 100000
  master list distance cutoff = 6.67472
  ghost atom cutoff = 6.67472
  binsize = 3.33736, bins = 57 9 12
  1 neighbor lists, perpetual/occasional/extra = 1 0 0
  (1) pair sw, perpetual
      attributes: full, newton on
      pair build: full/bin/atomonly
      stencil: full/bin/3d
      bin: standard
Per MPI rank memory allocation (min/avg/max) = 0.4705 | 3.837 | 4.747 Mbytes
Step c_2 Press Volume TotEng KinEng PotEng c_1[4] Density 
       0          240   -262.64038    204420.41   -23347.773    1741.9854   -25089.758            0   0.94632332 
     100    238.47562    -183.6339    204420.41   -23358.461     1730.921   -25089.382   0.82193303   0.94632332 
     200     229.7206   -384.25781    204420.41   -23371.711    1667.3747   -25039.086    1.2879636   0.94632332 
     300    236.09625   -554.69505    204420.41   -23349.594    1713.6509   -25063.245    1.6931229   0.94632332 
     400    232.15291   -183.13188    204420.41   -23341.703    1685.0291   -25026.732    2.0835913   0.94632332 
     500    238.55693   -176.45985    204420.41   -23308.091    1731.5112   -25039.602    2.5064391   0.94632332 
     600    241.66723   -249.06841    204420.41   -23242.585    1754.0866   -24996.672    3.0880893   0.94632332 
     700    238.67125   -266.20311    204420.41   -23247.609     1732.341    -24979.95     3.437575   0.94632332 
     800    243.68616   -405.47388    204420.41   -23235.667    1768.7405   -25004.408    3.9911317   0.94632332 
     900    246.51479   -263.63448    204420.41    -23263.17    1789.2715   -25052.442    4.3674761   0.94632332 
    1000    235.42927   -311.33899    204420.41   -23284.888    1708.8098   -24993.698    4.6959522   0.94632332 
    1100    241.23338   -501.82609    204420.41   -23255.325    1750.9376   -25006.262    5.1235373   0.94632332 
    1200    236.90314   -296.09197    204420.41   -23247.769    1719.5075   -24967.276    5.5068655   0.94632332 
    1300     244.2131   -327.38754    204420.41    -23188.67    1772.5652   -24961.236    5.8926736   0.94632332 
    1400    237.67065   -370.27959    204420.41   -23230.415    1725.0783   -24955.493     6.362263   0.94632332 
    1500    232.55402   -321.89705    204420.41   -23252.885    1687.9405   -24940.825    6.6732225   0.94632332 
    1600     238.9233   -247.16386    204420.41   -23224.243    1734.1704   -24958.413    6.9675738   0.94632332 
    1700    232.82248   -200.50159    204420.41   -23244.888     1689.889   -24934.777     7.325103   0.94632332 
    1800    244.04584   -234.26884    204420.41   -23216.161    1771.3512   -24987.512    7.7211895   0.94632332 
    1900    239.70723   -273.74968    204420.41   -23183.337    1739.8604   -24923.197    8.3503686   0.94632332 
    2000    250.41609   -405.58213    204420.41   -23147.914    1817.5882   -24965.502    8.6496359   0.94632332 
    2100    237.14142   -631.85702    204420.41    -23249.06     1721.237   -24970.297    9.2040775   0.94632332 
    2200    242.24565   -292.13338    204420.41   -23207.873    1758.2849   -24966.158    9.4443993   0.94632332 
    2300    243.43439   -271.68081    204420.41   -23190.961    1766.9132   -24957.875    9.7604511   0.94632332 
    2400    246.95056   -434.77112    204420.41   -23214.134    1792.4345   -25006.569    10.351374   0.94632332 
    2500    240.12493   -247.95701    204420.41   -23261.041    1742.8922   -25003.933    10.796828   0.94632332 
    2600    240.09263   -304.71039    204420.41   -23279.919    1742.6578   -25022.577    11.072519   0.94632332 
    2700    242.95879   -409.13876    204420.41   -23271.596    1763.4611   -25035.057    11.823736   0.94632332 
    2800    242.35625   -424.04363    204420.41   -23226.047    1759.0877   -24985.135    12.147895   0.94632332 
    2900     240.8549   -385.92509    204420.41   -23230.837    1748.1905   -24979.027    12.311384   0.94632332 
    3000    239.76825   -441.07901    204420.41   -23224.528    1740.3033   -24964.831    12.702981   0.94632332 
    3100     235.2027   -324.34173    204420.41   -23209.412    1707.1653   -24916.577     13.06931   0.94632332 
    3200    243.58599   -429.89797    204420.41   -23272.641    1768.0135   -25040.655    13.373729   0.94632332 
    3300    235.57145   -354.21416    204420.41   -23361.929    1709.8418   -25071.771    13.688275   0.94632332 
    3400     247.8621   -235.28836    204420.41   -23330.384    1799.0507   -25129.435    14.236343   0.94632332 
    3500    243.36902   -243.56098    204420.41   -23346.584    1766.4387   -25113.023    14.685182   0.94632332 
    3600    236.18977   -320.66156    204420.41   -23351.119    1714.3297   -25065.448    15.269238   0.94632332 
    3700    240.91845   -342.67834    204420.41   -23306.415    1748.6518   -25055.067    15.631934   0.94632332 
    3800    239.89249   -306.55451    204420.41   -23269.556    1741.2051   -25010.761    15.848844   0.94632332 
    3900     242.5726   -515.69673    204420.41   -23273.575     1760.658   -25034.233    16.275999   0.94632332 
    4000    238.83966   -535.65653    204420.41   -23316.452    1733.5633   -25050.015    16.475589   0.94632332 
    4100    240.13361   -373.11721    204420.41   -23303.682    1742.9551   -25046.637    16.862513   0.94632332 
    4200    246.34625   -258.66603    204420.41   -23288.401    1788.0482   -25076.449    17.240231   0.94632332 
    4300    237.25769    -245.8943    204420.41   -23368.191     1722.081   -25090.272    17.484136   0.94632332 
    4400    240.45481   -161.65301    204420.41   -23317.805    1745.2865   -25063.091    17.658791   0.94632332 
    4500    235.08327   -421.25257    204420.41   -23336.423    1706.2984   -25042.721    18.039162   0.94632332 
    4600    232.82306    -501.2478    204420.41   -23386.254    1689.8932   -25076.148    18.368303   0.94632332 
    4700    236.21228   -383.28937    204420.41   -23306.651    1714.4931   -25021.144    18.683309   0.94632332 
    4800    244.96026   -387.41001    204420.41   -23262.302    1777.9883    -25040.29    19.096449   0.94632332 
    4900    252.42092   -342.00512    204420.41   -23230.281    1832.1398   -25062.421    19.522763   0.94632332 
    5000    237.04115   -317.16098    204420.41    -23287.15    1720.5093   -25007.659     19.88025   0.94632332 
    5100    240.47558   -287.08761    204420.41   -23240.917    1745.4373   -24986.354    20.175819   0.94632332 
    5200    241.05756   -325.84294    204420.41   -23274.791    1749.6614   -25024.452    20.400482   0.94632332 
    5300    238.81854   -152.74411    204420.41    -23339.39      1733.41     -25072.8    20.572848   0.94632332 
    5400    241.60644   -306.88003    204420.41   -23331.046    1753.6454   -25084.692     20.77431   0.94632332 
    5500    245.86275   -238.72901    204420.41   -23336.271    1784.5388    -25120.81    20.989207   0.94632332 
    5600    232.01486   -407.67305    204420.41   -23356.864    1684.0271   -25040.891    21.137236   0.94632332 
    5700    244.16091   -306.61788    204420.41   -23324.698    1772.1864   -25096.884    21.406132   0.94632332 
    5800    239.92999   -496.03144    204420.41   -23311.661    1741.4772   -25053.138    21.632558   0.94632332 
    5900    242.48134   -521.81611    204420.41   -23339.315    1759.9956   -25099.311    22.045493   0.94632332 
    6000    235.50589    -435.6301    204420.41   -23358.846    1709.3659   -25068.212    22.308485   0.94632332 
    6100    239.13156   -232.52192    204420.41   -23387.838    1735.6821    -25123.52    22.697666   0.94632332 
    6200    237.88353   -172.81639    204420.41   -23399.912    1726.6235   -25126.536    22.984968   0.94632332 
    6300    241.32621   -289.20816    204420.41   -23332.637    1751.6114   -25084.249    23.693809   0.94632332 
    6400    240.71282   -409.35834    204420.41   -23373.262    1747.1592   -25120.421    24.435254   0.94632332 
    6500    241.11059   -207.72516    204420.41   -23384.719    1750.0464   -25134.765     25.22465   0.94632332 
    6600    242.47126   -285.58393    204420.41   -23390.032    1759.9225   -25149.954    25.480113   0.94632332 
    6700    233.84022   -402.00438    204420.41   -23415.861     1697.276   -25113.137     25.66573   0.94632332 
    6800    243.14706   -483.21025    204420.41   -23399.623    1764.8276    -25164.45    26.186932   0.94632332 
    6900    239.89677   -358.47982    204420.41   -23347.018    1741.2361   -25088.254     26.43983   0.94632332 
    7000    237.57476   -500.71606    204420.41    -23333.99    1724.3823   -25058.372    26.662771   0.94632332 
    7100    236.69854   -295.45053    204420.41    -23333.98    1718.0225   -25052.002    26.782486   0.94632332 
    7200    234.06041   -345.89036    204420.41   -23400.534    1698.8742   -25099.409    27.047272   0.94632332 
    7300    234.06815   -180.44257    204420.41   -23433.006    1698.9304   -25131.936    27.234838   0.94632332 
    7400    236.70555   -285.60959    204420.41    -23392.33    1718.0734   -25110.403    27.099458   0.94632332 
    7500    241.94674   -272.30301    204420.41   -23358.365    1756.1154    -25114.48    26.819209   0.94632332 
    7600    243.79365   -315.26087    204420.41   -23319.235    1769.5207   -25088.755    27.113917   0.94632332 
    7700    242.28794   -412.68815    204420.41   -23330.609    1758.5919   -25089.201    27.681302   0.94632332 
    7800    233.55023   -419.75654    204420.41   -23387.248    1695.1712   -25082.419    28.087658   0.94632332 
    7900    234.45537    -454.2352    204420.41   -23338.466     1701.741   -25040.207    28.619681   0.94632332 
    8000    247.69391   -311.87236    204420.41   -23271.519    1797.8299   -25069.349     29.32137   0.94632332 
    8100    242.81925   -301.04515    204420.41   -23253.836    1762.4482   -25016.284    29.609447   0.94632332 
    8200    241.22436    -404.1852    204420.41   -23273.396    1750.8721   -25024.268    30.467202   0.94632332 
    8300    244.26259   -424.88907    204420.41   -23237.087    1772.9244   -25010.012    31.094028   0.94632332 
    8400    244.09264   -421.35263    204420.41   -23232.756    1771.6909   -25004.447    31.577084   0.94632332 
    8500    235.56703   -226.05396    204420.41   -23262.267    1709.8097   -24972.077    32.314797   0.94632332 
    8600      243.007    -333.1544    204420.41    -23264.51    1763.8111   -25028.321    32.578843   0.94632332 
    8700    238.63729   -432.28196    204420.41   -23280.412    1732.0945   -25012.507    32.963629   0.94632332 
    8800    237.89096   -338.41652    204420.41   -23282.428    1726.6774   -25009.106    33.296646   0.94632332 
    8900    235.72551   -430.88427    204420.41   -23307.737      1710.96   -25018.697    34.011401   0.94632332 
    9000    234.41136   -506.39397    204420.41   -23261.191    1701.4215   -24962.613     34.96167   0.94632332 
    9100    244.35463   -475.74398    204420.41   -23273.846    1773.5925   -25047.439    35.495322   0.94632332 
    9200    248.73128   -425.18016    204420.41   -23220.354    1805.3594   -25025.713    35.717498   0.94632332 
    9300    241.97502   -317.85043    204420.41   -23300.725    1756.3206   -25057.046    35.942092   0.94632332 
    9400    242.91738    -351.5883    204420.41   -23284.935    1763.1605   -25048.095    36.140706   0.94632332 
    9500    238.88992   -269.37626    204420.41   -23331.967    1733.9281   -25065.895    36.275209   0.94632332 
    9600    235.70883   -428.26926    204420.41   -23344.255    1710.8389   -25055.094    36.255561   0.94632332 
    9700    238.04523   -261.14247    204420.41   -23300.113    1727.7971    -25027.91    36.795601   0.94632332 
    9800    240.97065   -279.09587    204420.41   -23231.878    1749.0306   -24980.909    36.917846   0.94632332 
    9900     236.3582   -305.57107    204420.41   -23246.243    1715.5522   -24961.795    37.413578   0.94632332 
   10000    235.80458   -262.70873    204420.41    -23252.52    1711.5339   -24964.054    37.825593   0.94632332 
Loop time of 17.0578 on 120 procs for 10000 steps with 8482 atoms

Performance: 253.256 ns/day, 0.095 hours/ns, 586.241 timesteps/s
97.9% CPU use with 120 MPI tasks x no OpenMP threads

MPI task timing breakdown:
Section |  min time  |  avg time  |  max time  |%varavg| %total
---------------------------------------------------------------
Pair    | 0.00046611 | 4.429      | 14.507     | 250.6 | 25.96
Neigh   | 0.0003643  | 0.12951    | 0.49828    |  42.8 |  0.76
Comm    | 0.010933   | 4.6307     | 13.301     | 241.0 | 27.15
Output  | 0.15365    | 0.15384    | 0.16042    |   0.2 |  0.90
Modify  | 0.5349     | 7.5778     | 16.759     | 262.9 | 44.42
Other   |            | 0.137      |            |       |  0.80

Nlocal:    70.6833 ave 226 max 0 min
Histogram: 48 2 40 0 0 0 0 0 12 18
Nghost:    609.358 ave 1016 max 0 min
Histogram: 12 4 0 4 6 29 21 10 24 10
Neighs:    0 ave 0 max 0 min
Histogram: 120 0 0 0 0 0 0 0 0 0
FullNghs:  7089.67 ave 28447 max 0 min
Histogram: 62 28 0 0 0 0 0 5 13 12

Total # of neighbors = 850760
Ave neighs/atom = 100.302
Neighbor list builds = 580
Dangerous builds = 0
write_data 	    ${DIR}/data.${NAME}_eq
write_data 	    run_23/data.${NAME}_eq
write_data 	    run_23/data.ibeam_cooling_23_eq

undump              1
unfix               4



################################################
#######         Run Simulation         #########
################################################

reset_timestep      0
timestep	    10.0
log                 ${DIR}/log.run_${NAME}
log                 run_23/log.run_${NAME}
log                 run_23/log.run_ibeam_cooling_23
