
# Set production fixes - Nose/Hoover
#
fix                 4 water temp/csvr ${START_TEMP} ${END_TEMP} 500.0 928347
fix                 4 water temp/csvr 240 ${END_TEMP} 500.0 928347
fix                 4 water temp/csvr 240 227 500.0 928347


## divide "droplet" into core and surface
#region		core_reg cylinder z 135 135 44.6 20 INF units box
#region		surface_reg cylinder z 135 135 44.6 20 INF units box side out
#group		core dynamic all region core_reg
#group		surface dynamic all region surface_reg

## compute pressure core
#compute        peratom_core core stress/atom NULL
#compute        p_core core reduce sum c_peratom_core[1] c_peratom_core[2] c_peratom_core[3]
#variable       press_core equal -(c_p_core[1]+c_p_core[2]+c_p_core[3])/(3*1249982.5)


## compute pressure surface
#compute        peratom_surf surface stress/atom NULL
#compute        p_surf surface reduce sum c_peratom_surf[1] c_peratom_surf[2] #c_peratom_surf[3]
#variable       press_surf equal -(c_p_surf[1]+c_p_surf[2]+c_p_surf[3])/(3*42395)

## compute total pressure of drop
compute        peratom water stress/atom NULL
compute        p water reduce sum c_peratom[1] c_peratom[2] c_peratom[3]
variable       press equal -(c_p[1]+c_p[2]+c_p[3])/(3*58301)


# compute order parameter
compute        3 all orientorder/atom nnn NULL cutoff 3.5

# compute center of mass of bridge
compute 	4 water com

# Run simulation
thermo_style        custom step c_2 press vol etotal ke pe v_press c_1[4] c_4[*]
thermo              200
dump		     1 water custom 400 ${DIR}/prod.${NAME}.dump id type x y z vx vy vz c_3[*] c_peratom[*]
dump		     1 water custom 400 run_23/prod.${NAME}.dump id type x y z vx vy vz c_3[*] c_peratom[*]
dump		     1 water custom 400 run_23/prod.ibeam_cooling_23.dump id type x y z vx vy vz c_3[*] c_peratom[*]
run                 ${STEPS}
run                 5200000
Neighbor list info ...
  update every 1 steps, delay 0 steps, check yes
  max neighbors/atom: 2000, page size: 100000
  master list distance cutoff = 6.67472
  ghost atom cutoff = 6.67472
  binsize = 3.33736, bins = 57 9 12
  2 neighbor lists, perpetual/occasional/extra = 1 1 0
  (1) pair sw, perpetual
      attributes: full, newton on
      pair build: full/bin/atomonly
      stencil: full/bin/3d
      bin: standard
  (2) compute orientorder/atom, occasional, copy from (1)
      attributes: full, newton on
      pair build: copy
      stencil: none
      bin: none
Per MPI rank memory allocation (min/avg/max) = 0.862 | 6.063 | 7.152 Mbytes
Step c_2 Press Volume TotEng KinEng PotEng v_press c_1[4] c_4[1] c_4[2] c_4[3] 
       0    235.80458   -262.70873    204420.41    -23252.52    1711.5339   -24964.054   -424.85189    37.825593    95.088207    14.523918    27.901365 
     200    240.48537    -320.1229    204420.41   -23313.683    1745.5084   -25059.192   -622.53984    39.976873     95.08695    14.521422    27.916454 
     400    240.44795   -453.31411    204420.41   -23262.582    1745.2367   -25007.818   -1029.5207    41.627598    95.086549    14.519955    27.937836 
     600    247.33565   -391.26363    204420.41   -23174.061    1795.2295    -24969.29     -808.444    43.782184    95.086473    14.519225    27.930371 
     800    235.31274   -374.28154    204420.41   -23152.093     1707.964   -24860.057   -796.46564    45.219886     95.08769    14.513952    27.942335 
    1000    240.79373    -76.10003    204420.41   -23186.061    1747.7465   -24933.808    271.74436    47.488002    95.087368    14.511292    27.926963 
    1200    239.09508   -474.55765    204420.41   -23146.218    1735.4172   -24881.635   -1103.8932    49.032827    95.087718    14.509274    27.920151 
    1400    243.73026   -311.70804    204420.41   -23172.708    1769.0606   -24941.769   -571.00662    50.525043    95.088281    14.507296     27.92091 
    1600    243.17457   -433.45412    204420.41    -23188.37    1765.0273   -24953.397   -982.47562    52.151137    95.089638    14.507773    27.914073 
    1800    242.71734   -390.95942    204420.41   -23140.278    1761.7086   -24901.986   -829.87459    54.055523    95.090132    14.509016    27.894832 
    2000    242.25551   -248.28244    204420.41   -23103.876    1758.3565   -24862.232   -345.15699    56.016747    95.090863    14.508486    27.869512 
    2200    239.54188   -290.38397    204420.41   -23183.012    1738.6602   -24921.672    -502.1446    57.741496    95.091375    14.512922    27.853223 
    2400    239.80056   -361.66185    204420.41   -23169.151    1740.5378   -24909.689   -768.28674    60.430123    95.090645    14.511509    27.851541 
    2600    238.28341   -393.19381    204420.41   -23230.701    1729.5259   -24960.227    -865.6348    61.319617    95.092524    14.515009    27.889933 
    2800    242.31166   -393.77049    204420.41   -23125.487    1758.7641   -24884.251   -842.37839    63.119475    95.092511    14.517385    27.878457 
    3000    247.64925   -407.83413    204420.41   -23141.696    1797.5057   -24939.202   -906.80214    64.699343    95.092602    14.513906    27.872099 
    3200    240.56495   -531.91989    204420.41   -23195.432     1746.086   -24941.518   -1330.3081    66.536866    95.089739    14.512523    27.843905 
    3400    240.71916   -347.33075    204420.41   -23182.205    1747.2053   -24929.411   -701.47292    67.988209     95.08834    14.509742    27.870953 
    3600    243.46175   -315.56075    204420.41   -23177.637    1767.1117   -24944.749   -579.83855    68.613372    95.089226    14.506363    27.859044 
    3800    243.83266    -191.8929    204420.41   -23151.821    1769.8039   -24921.625   -145.18065    70.766008    95.089009    14.504872    27.837549 
    4000    237.28279    -443.8563    204420.41   -23219.904    1722.2631   -24942.167   -1017.1454    72.685148    95.087885    14.501385    27.830596 
    4200    240.04929    -215.0725    204420.41   -23156.316    1742.3432   -24898.659   -236.24345    73.320805    95.088419    14.498161    27.865813 
    4400    236.85383    -508.8389    204420.41   -23200.201    1719.1496   -24919.351   -1256.7649    75.297893    95.088049    14.497812    27.878841 
    4600    240.30649   -333.02488    204420.41   -23299.847      1744.21   -25044.057   -646.10446    77.691571    95.088442    14.500057    27.868834 
    4800    238.52915   -384.48423    204420.41    -23166.98    1731.3096   -24898.289   -790.52422    79.834729     95.08821    14.501234     27.87134 
    5000    240.78247   -361.37311    204420.41   -23209.475    1747.6648    -24957.14   -727.58063    83.005426     95.08792    14.500909    27.886843 
    5200    236.40154   -435.85561    204420.41   -23207.591    1715.8668   -24923.458   -1024.6036    85.471039    95.086742    14.500685    27.882599 
    5400    235.90859   -308.80565    204420.41   -23189.284    1712.2888   -24901.572   -536.47121     87.72087    95.085435    14.500008    27.892424 
    5600    242.48124   -459.89651    204420.41    -23213.36    1759.9949   -24973.355   -1075.2957    92.417311    95.085492    14.499018     27.88376 
    5800    241.43517   -436.23647    204420.41   -23163.445    1752.4023   -24915.847   -982.43414    96.152468    95.084769    14.501748    27.873344 
    6000    236.21984   -518.73558    204420.41   -23196.821     1714.548   -24911.369   -1277.2677    98.672482    95.085203    14.503107    27.875268 
    6200    238.66811   -304.88176    204420.41   -23200.173    1732.3182   -24932.491   -540.06223    101.54427    95.083272    14.505127    27.852972 
    6400    238.45872   -466.57873    204420.41   -23176.954    1730.7984   -24907.753   -1062.7382    101.86864    95.080625    14.508814    27.842359 
    6600    242.73775   -222.29949    204420.41   -23180.595    1761.8567   -24942.452   -277.65893    101.57933    95.079835    14.508851    27.822877 
    6800    238.30599   -117.48344    204420.41   -23200.384    1729.6898   -24930.074    75.214855    102.67965    95.079413    14.511167    27.808307 
    7000    246.42622   -368.83614    204420.41   -23192.366    1788.6286   -24980.994   -711.77224    103.87818     95.07905    14.511999    27.829833 
    7200    234.14632   -513.03301    204420.41   -23295.836    1699.4978   -24995.334   -1274.2965    106.10775    95.078525    14.510479    27.830481 
    7400    238.16257   -266.23416    204420.41   -23265.191    1728.6488    -24993.84   -451.77582    109.69446    95.078593    14.509033    27.849668 
    7600    245.61802   -157.24238    204420.41   -23175.127    1782.7625    -24957.89   -7.5592994    112.22433    95.078519    14.507712    27.865668 
    7800    236.37447   -290.21792    204420.41   -23304.696    1715.6703   -25020.367   -478.09054    115.52348     95.08029    14.507844    27.880327 
    8000    250.03873   -194.25297    204420.41   -23170.325    1814.8492   -24985.175   -153.85415    116.96213    95.080398    14.506802     27.89848 
    8200    239.75201   -331.38477    204420.41   -23201.162    1740.1854   -24941.347   -606.70249    119.67557     95.08006    14.509012    27.905555 
    8400    251.64971   -267.56366    204420.41   -23161.753    1826.5422   -24988.295   -366.76661    121.55949     95.08075    14.507754    27.910935 
    8600    233.01294   -505.78451    204420.41   -23239.754    1691.2714   -24931.026   -1257.1667    125.76062    95.081601     14.50697    27.915393 
    8800    241.92368   -117.53203    204420.41   -23259.935     1755.948   -25015.883    118.35515    127.48976     95.08017    14.506096    27.923748 
    9000    239.65746   -239.05072    204420.41   -23242.934    1739.4992   -24982.433   -330.46541    129.26189    95.079629    14.505534    27.932401 
    9200    238.19692   -253.19451    204420.41    -23175.72    1728.8982   -24904.618   -377.17438    130.43302    95.079307    14.507252    27.942877 
    9400    239.09844    -358.1946    204420.41   -23232.937    1735.4417   -24968.378   -743.57061    132.92822    95.078187    14.508413    27.935118 
    9600    238.76804   -180.70231    204420.41     -23281.3    1733.0435   -25014.343   -109.79185    136.09852    95.077657    14.511509    27.926812 
    9800    245.41834   -340.36394    204420.41   -23142.212    1781.3132   -24923.525   -650.74663    137.41396    95.076565    14.511667    27.912148 
   10000    239.77743   -434.77459    204420.41   -23216.405    1740.3699   -24956.775   -989.02442    139.30857    95.075566    14.512169    27.917576 
   10200    245.13539   -437.50644    204420.41   -23154.635    1779.2594   -24933.894   -1004.0329     139.8561    95.076257     14.51139      27.9088 
   10400    244.82525    -211.0268    204420.41   -23225.807    1777.0083   -25002.815   -196.03726     141.6554    95.076276    14.510444    27.918323 
   10600    240.30895   -413.07577    204420.41   -23276.881    1744.2278   -25021.109   -943.03999    142.29721     95.07553    14.513056      27.9302 
   10800     236.9745   -344.43167    204420.41   -23325.881    1720.0255   -25045.906   -653.84364    140.12256    95.075849    14.516895    27.925268 
   11000    235.77257   -107.89813    204420.41   -23336.607    1711.3015   -25047.908    125.18929     140.6534    95.076712    14.514428    27.940709 
   11200    231.74829   -395.48763    204420.41   -23326.316    1682.0922   -25008.408   -805.92379     141.4688    95.077128    14.512358    27.929496 
   11400    239.85898   -395.60793    204420.41   -23307.784    1740.9618   -25048.746   -831.79942    141.73081    95.077733    14.513384    27.929967 
   11600    248.69668   -303.62936    204420.41   -23218.164    1805.1083   -25023.272   -489.34711    144.37446     95.07882     14.51338    27.918875 
   11800    242.37442   -305.47994    204420.41   -23238.108    1759.2196   -24997.327   -540.76479    147.87755    95.079412    14.512586    27.884643 
   12000    240.84601   -250.27809    204420.41   -23207.253     1748.126   -24955.379   -359.47904    152.72902    95.077626    14.511736    27.872802 
   12200    246.17593   -375.93129    204420.41   -23197.972     1786.812   -24984.784   -779.63486    157.27127    95.077471    14.510043    27.878251 
   12400     242.6287   -190.82703    204420.41   -23223.663    1761.0652   -24984.728    -124.4661    158.47293     95.07907    14.510802     27.87187 
   12600    248.19921   -310.99663    204420.41   -23158.177    1801.4975   -24959.675    -555.1843    161.96768    95.081352    14.510905    27.878403 
   12800    242.01713   -415.19867    204420.41   -23223.022    1756.6263   -24979.648     -915.651    167.28397    95.081965    14.510777    27.892394 
   13000     237.5265   -348.35051    204420.41   -23233.418    1724.0321    -24957.45   -685.12681    170.57706    95.081238     14.50806    27.897048 
   13200    238.36639   -189.91871    204420.41   -23292.585    1730.1282   -25022.713   -124.42276    172.26551    95.082162    14.505321    27.891208 
   13400    235.34818   -425.32152    204420.41   -23353.481    1708.2212   -25061.703   -921.95564    174.64268    95.082455     14.50171    27.894658 
   13600    234.34114    -379.7267    204420.41    -23300.47    1700.9118   -25001.382   -784.49599    175.14089     95.08417    14.503609    27.870426 
   13800    240.16612   -359.32298    204420.41   -23263.767    1743.1912   -25006.958   -712.58263    174.94189    95.082951    14.503555    27.864441 
   14000    241.56758   -387.57281    204420.41   -23193.347    1753.3633   -24946.711   -822.12427    176.37482    95.082268    14.500255    27.862658 
   14200    240.05039   -330.42745    204420.41   -23244.122    1742.3511   -24986.473    -602.2371    179.80746    95.080918    14.499965    27.876886 
   14400    234.35302   -344.15304    204420.41   -23308.344    1700.9981   -25009.342   -681.83756    181.86673    95.082075    14.501524    27.858489 
   14600     239.8232   -268.61181    204420.41   -23286.084    1740.7022   -25026.787   -403.71861    185.65272    95.083332    14.498432    27.846692 
   14800    245.97723   -68.602712    204420.41   -23248.169    1785.3698   -25033.539    282.00448    188.35805    95.084361    14.498005    27.814261 
   15000    240.70503   -375.66533    204420.41   -23266.335    1747.1027   -25013.437   -758.43132    192.71304    95.084106    14.500166    27.808322 
   15200    238.61186   -208.05888    204420.41   -23255.968    1731.9099   -24987.878   -174.80365    196.02009    95.085286    14.501023     27.80118 
   15400    238.35894   -342.01499    204420.41   -23277.159    1730.0741   -25007.233   -647.41712    200.78365    95.085701    14.501974    27.782596 
   15600    243.09379   -309.79093    204420.41   -23134.822     1764.441   -24899.263   -513.55821      204.044    95.088047    14.499817    27.787102 
   15800    240.49296   -304.91817    204420.41   -23142.079    1745.5635   -24887.643   -503.52419    205.75807    95.086559    14.498958    27.784778 
   16000    240.64629   -220.49308    204420.41   -23170.116    1746.6763   -24916.792   -220.08565    204.52714    95.088014     14.49788    27.772294 
   16200    240.74764   -389.17611    204420.41   -23142.506     1747.412   -24889.918   -852.99039    203.91069    95.090249    14.495652    27.769231 
   16400    239.59341   -321.15271    204420.41    -23200.53    1739.0343   -24939.564   -623.61156    203.91666    95.092125    14.493276    27.782221 
   16600    246.52628   -319.05748    204420.41   -23142.978    1789.3549   -24932.333   -551.48238    204.26273    95.092223    14.495777    27.812363 
   16800    245.68424   -237.01697    204420.41   -23217.415    1783.2431   -25000.658   -286.45453    205.83591    95.092877    14.497593    27.797012 
   17000    235.24043   -436.03078    204420.41   -23258.357    1707.4392   -24965.796   -1002.8209    210.08604    95.093542    14.499566    27.785224 
   17200    237.21226   -410.80085    204420.41   -23245.291    1721.7512   -24967.043   -919.44969    214.07961    95.092664    14.495562    27.777802 
   17400    234.60501   -244.46192    204420.41   -23314.885    1702.8271   -25017.712   -266.30533    214.32359    95.091637    14.492408    27.769426 
   17600    242.32933   -221.94201    204420.41   -23224.227    1758.8923    -24983.12   -248.71687    212.42136     95.09173    14.491622    27.794878 
   17800    244.20388   -413.94384    204420.41   -23232.123    1772.4983   -25004.621   -916.94571    214.15673    95.089652     14.49362    27.778647 
   18000    238.70412   -483.91783    204420.41   -23195.977    1732.5795   -24928.557   -1196.3708    215.09912    95.091141    14.495493    27.764758 
   18200    235.76717   -435.74262    204420.41   -23251.402    1711.2624   -24962.665   -987.58492    217.03551    95.091238    14.494444    27.754315 
   18400    240.89741   -455.88862    204420.41   -23246.645     1748.499   -24995.144   -1082.8614    219.62649    95.090235    14.495823    27.753698 
   18600    237.86995   -241.57814    204420.41   -23263.207    1726.5249   -24989.732   -300.76339    220.89023     95.08977    14.496705     27.75393 
   18800    236.91502   -632.55207    204420.41   -23302.679    1719.5938   -25022.273   -1643.2067    219.65601    95.088737    14.498181    27.748336 
   19000    240.02498   -224.89433    204420.41   -23228.431    1742.1667   -24970.598   -240.43623    217.73909    95.089003    14.499669    27.762984 
   19200    233.21031   -287.36774    204420.41   -23230.849    1692.7039   -24923.553   -475.39577    217.26478    95.088397    14.499223    27.748602 
   19400    240.89728   -354.83961    204420.41   -23157.267    1748.4981   -24905.765   -710.98271    217.56818    95.086884    14.497147    27.759439 
   19600    237.73453   -127.91461    204420.41   -23167.342     1725.542   -24892.884    113.49693    216.55603    95.086812    14.495734    27.762179 
   19800    231.87744   -223.73278    204420.41   -23153.497    1683.0297   -24836.526   -261.84996    217.71016    95.087249    14.495277    27.770809 
   20000    243.65665   -480.79803    204420.41   -23164.849    1768.5263   -24933.375   -1169.4534    217.65442    95.087257    14.494866    27.770398 
   20200     234.8615   -210.84933    204420.41   -23248.914    1704.6888   -24953.603   -203.71372    219.58745     95.08742    14.498311    27.786314 
   20400    242.34592   -542.76263    204420.41   -23188.859    1759.0127   -24947.872   -1353.5121    220.58682    95.086521    14.498112    27.812545 
   20600    238.11334    -244.7526    204420.41   -23277.146    1728.2915   -25005.438   -317.03986    221.94744    95.085493    14.496095    27.816328 
   20800    244.22007    -336.5015    204420.41   -23227.275    1772.6158    -24999.89   -651.04987    222.55017    95.087331    14.493635    27.800328 
   21000    242.31844    -267.3073    204420.41   -23232.009    1758.8133   -24990.822    -412.3849    223.07806    95.088736    14.491799    27.807905 
   21200    238.03651   -341.34266    204420.41   -23198.478    1727.7338   -24926.212   -677.01336    223.15917    95.088308    14.490461    27.815275 
   21400    242.64005   -536.29608    204420.41   -23204.983    1761.1476   -24966.131   -1315.2899    223.60544    95.088399    14.491706    27.806571 
   21600    242.92088   -159.32272    204420.41   -23116.112    1763.1859   -24879.298   -80.195188    225.23609    95.089343    14.492018    27.815322 
   21800    235.63003   -362.15578    204420.41   -23233.224    1710.2669   -24943.491    -746.3747    227.85084     95.09192    14.491656    27.831906 
   22000    239.32721   -172.43623    204420.41   -23254.582    1737.1021   -24991.685   -79.475639    225.31955    95.092852    14.489594    27.842391 
   22200    233.02366   -433.34066    204420.41   -23269.507    1691.3492   -24960.857   -997.92137    228.88943    95.093312    14.490634    27.866098 
   22400    240.77173   -148.50702    204420.41   -23121.261    1747.5868   -24868.848   -5.5668241    231.26555    95.093708    14.493401    27.901192 
   22600    240.35963   -351.22051    204420.41   -23160.161    1744.5957   -24904.757   -713.44987    233.21956    95.092247    14.491522    27.920572 
   22800    244.99941   -227.70111    204420.41   -23120.009    1778.2725   -24898.282   -280.50849    231.15762    95.090223     14.48966    27.933192 
   23000    236.43884   -457.46223    204420.41   -23192.575    1716.1375   -24908.712   -1099.6738    230.55949    95.089138    14.488582     27.92852 
   23200    243.07616   -382.12996    204420.41   -23133.129     1764.313   -24897.442    -828.8732    230.74869    95.091332    14.488015    27.921664 
   23400    239.95374   -230.23028    204420.41   -23122.099    1741.6496   -24863.748   -274.61143    231.12677    95.091226    14.489471    27.907815 
   23600    245.94265   -222.67467    204420.41   -23067.434    1785.1187   -24852.552   -251.11793    231.60662    95.091964    14.489373    27.882985 
   23800     241.3446   -397.30814    204420.41   -23124.637    1751.7449   -24876.382   -853.04852    232.68434    95.094181    14.488513    27.882802 
   24000    236.83049   -332.17006    204420.41   -23162.354    1718.9802   -24881.334   -629.79459    234.09905    95.094573    14.485645    27.902834 
   24200     237.8931   -452.93213    204420.41   -23169.268     1726.693   -24895.961   -1054.0943    236.54777    95.095116    14.486688    27.908433 
   24400    238.75623   -346.43693    204420.41   -23219.779    1732.9578   -24952.737   -668.63283    235.87743    95.096666    14.489464    27.915453 
   24600    235.15376     -153.229    204420.41    -23266.28    1706.8101    -24973.09   -3.6931122    236.34622    95.096976    14.491494    27.915976 
   24800    237.76689   -239.50249    204420.41   -23254.416    1725.7769   -24980.193   -278.55302    240.81548    95.096337    14.493429    27.926478 
   25000    239.65459   -387.24131    204420.41   -23261.271    1739.4783   -25000.749   -846.96924    245.97362    95.096954    14.492378    27.936051 
   25200    227.55253   -382.10982    204420.41   -23359.071    1651.6383   -25010.709   -797.53104    249.74728    95.096552    14.491576    27.928706 
   25400    240.15693   -382.06374    204420.41   -23222.436    1743.1244   -24965.561   -779.56055    252.09932    95.096096    14.493037    27.931059 
   25600    249.89098   -444.53787    204420.41   -23083.378    1813.7768   -24897.155   -1010.4203    255.14284     95.09556    14.494893    27.916615 
   25800    241.98682   -368.81486    204420.41   -23161.978    1756.4062   -24918.384   -769.73199    256.33752    95.095123    14.497684    27.909758 
   26000    237.71786   -331.66346    204420.41   -23216.472     1725.421   -24941.893   -612.16015    258.65713     95.09451     14.49636    27.925199 
   26200    239.06007   -411.42663    204420.41   -23223.743    1735.1631   -24958.906   -881.70972    260.61105    95.095321    14.495098    27.942424 
   26400    238.85202   -328.63681    204420.41   -23236.624    1733.6531   -24970.277   -651.77316    262.36371    95.093952    14.497184    27.926998 
   26600    242.62471   -335.97434    204420.41   -23148.727    1761.0362   -24909.764   -653.35203    261.90136    95.094216     14.49553     27.93295 
   26800    241.22795   -288.34511    204420.41   -23158.557    1750.8982   -24909.455   -479.88599    261.91306     95.09339     14.49575    27.920661 
   27000    247.21394   -269.96174    204420.41   -23106.581    1794.3461   -24900.927   -420.99277    262.58225    95.092854    14.493664    27.932133 
   27200    241.32893   -462.80539    204420.41   -23184.749    1751.6311    -24936.38   -1103.3123     263.8198     95.09095    14.491056    27.939122 
   27400    242.10482   -216.13089    204420.41   -23097.093    1757.2628   -24854.356   -263.75107    263.50884    95.089825    14.488907    27.946832 
   27600    232.03256   -417.47002    204420.41   -23233.132    1684.1556   -24917.287   -944.67464    266.48238     95.09043    14.486897    27.963167 
   27800    239.70204     -301.324    204420.41   -23137.323    1739.8227   -24877.145   -543.76164    268.61272    95.091714    14.487917    27.966778 
   28000    239.95938   -93.979542    204420.41   -23267.062    1741.6906   -25008.753    183.83238    270.60947     95.09259    14.486528    27.949708 
   28200     234.9984   -465.78848    204420.41   -23223.269    1705.6824   -24928.952   -1078.4477    274.83629    95.091254    14.484385     27.91989 
   28400    233.72152    -371.1337    204420.41   -23209.369    1696.4145   -24905.783   -760.07975     277.0495    95.092516    14.484751    27.912527 
   28600    235.10329   -213.47541    204420.41   -23213.319    1706.4438   -24919.763   -176.38486     279.9822    95.093074    14.482001    27.895764 
   28800    241.91007   -274.59218    204420.41   -23261.043    1755.8492   -25016.892   -435.74096    281.00952     95.09211    14.482089     27.88811 
   29000    238.02333   -401.79117    204420.41    -23225.19    1727.6382   -24952.828   -883.86674    280.02289    95.093617    14.481874    27.911404 
   29200    247.18461   -232.12179    204420.41   -23174.976    1794.1332   -24969.109   -295.04558    279.01559    95.093761    14.480675    27.920603 
   29400    238.88048   -376.05066    204420.41   -23197.361    1733.8596    -24931.22   -783.89779    282.12259    95.093777    14.478867    27.909915 
   29600     238.4445   -426.75603    204420.41   -23220.932    1730.6952   -24951.627   -951.41287    283.97451    95.095966    14.476362    27.912276 
   29800    235.37999    -318.0018    204420.41   -23313.661    1708.4521   -25022.113   -610.70728    285.32533    95.096256    14.474996    27.909182 
   30000    232.66888   -386.69084    204420.41   -23330.129    1688.7741   -25018.903   -814.13361    285.03728    95.097538    14.474344    27.932921 
   30200     241.7489     -257.319    204420.41   -23243.258    1754.6794   -24997.937   -411.26247    286.22922    95.097345    14.479006    27.945697 
   30400    246.54368   -332.17409    204420.41   -23213.975    1789.4812   -25003.456   -643.85857    287.87769    95.098593    14.478257     27.94418 
   30600    239.44489   -270.69342    204420.41   -23307.955    1737.9562   -25045.911   -411.70334    290.66861    95.099463    14.478322    27.956341 
   30800    237.83041   -174.53269    204420.41       -23237    1726.2379   -24963.237   -93.251819    291.63989    95.099629     14.47663    27.966982 
   31000    245.35117   -445.93737    204420.41   -23242.659    1780.8256   -25023.485   -1026.9486     293.9542    95.099375    14.473276    27.972285 
   31200    239.68201   -455.27168    204420.41   -23244.366    1739.6773   -24984.043   -1094.7043    296.17836    95.100375    14.470427    27.968882 
   31400    240.99897   -349.72558    204420.41   -23214.987    1749.2362   -24964.223   -711.30994    298.46146    95.098445    14.467429    27.992624 
   31600    237.10396   -135.00546    204420.41   -23234.704    1720.9651   -24955.669    21.287426    300.07578    95.099211    14.468176    27.986999 
   31800    236.67988   -380.52541    204420.41   -23159.232     1717.887   -24877.119   -832.37435    301.60993    95.100453    14.468968    27.988862 
   32000    238.61324    -391.8737    204420.41   -23243.752    1731.9199   -24975.672   -875.87933    302.55779     95.10064    14.467677    27.986426 
   32200    238.14812   -506.04897    204420.41   -23254.533    1728.5439   -24983.077   -1226.1589    303.54505    95.102455    14.467145    27.972127 
   32400    242.39392   -275.79683    204420.41   -23263.081    1759.3611   -25022.442   -479.12695    305.49904    95.102133    14.467325    27.974992 
   32600    246.64211   -243.27785    204420.41   -23196.287    1790.1956   -24986.483   -361.74159    307.54042       95.101    14.470003    27.980197 
   32800    237.44206   -218.26564    204420.41   -23174.608    1723.4192   -24898.027    -319.6896    310.39687    95.100414    14.470418    27.988506 
   33000    243.35611   -416.60327    204420.41   -23180.582    1766.3449   -24946.927   -958.65487    314.20876    95.100471    14.472825    27.991109 
   33200    237.96166   -351.79056    204420.41   -23214.104    1727.1906   -24941.295   -753.12728    315.81665    95.099399     14.47521    27.975087 
   33400     242.7147   -334.33582    204420.41   -23254.447    1761.6895   -25016.137   -646.22906    319.21318    95.098684     14.47849    27.986008 
   33600    234.73353   -373.90936    204420.41   -23280.054    1703.7599   -24983.814   -803.69934    319.24469    95.100428    14.478466    27.981872 
   33800    248.93522   -352.00161    204420.41    -23103.58    1806.8396    -24910.42   -671.21161     319.5329    95.100529    14.478477    27.995135 
   34000    244.65294   -203.38573    204420.41   -23240.778    1775.7577   -25016.536   -185.82008    320.27547    95.098403     14.47731    27.995208 
   34200    241.13706    -368.3446    204420.41   -23246.493    1750.2385   -24996.731   -734.45732    321.53872    95.098895    14.480062    28.002479 
   34400     238.9203   -31.759477    204420.41   -23307.571    1734.1486    -25041.72    405.74502    322.74912    95.100095    14.486412    28.006667 
   34600    244.26624   -398.83981    204420.41   -23177.166    1772.9509   -24950.117   -899.74338    325.04587     95.10272    14.488936    28.010027 
   34800    236.04455    -342.1875    204420.41   -23225.733    1713.2756   -24939.008    -651.2467    321.63928    95.100961    14.489547    27.996974 
   35000    239.23057   -176.38039    204420.41   -23231.132    1736.4007   -24967.533   -114.59249    321.04552    95.101054    14.487154    27.996309 
   35200     242.9259   -422.60961    204420.41   -23162.152    1763.2223   -24925.374   -970.47586    323.29176     95.10054     14.48771    28.008102 
   35400    244.96429   -293.92889    204420.41   -23183.142    1778.0176   -24961.159    -493.1333    324.61797    95.102457    14.491499    28.015278 
   35600    237.58977   -311.36193    204420.41   -23229.831    1724.4913   -24954.323   -567.17767    324.83646    95.102438    14.492606    28.005741 
   35800    251.87853   -326.34086    204420.41   -23124.907     1828.203    -24953.11   -619.22692    326.23356     95.10252    14.495551    28.020073 
   36000    237.94419   -506.39996    204420.41   -23260.201    1727.0637   -24987.265    -1241.108    330.28242    95.102165    14.496551    28.024185 
   36200    240.94994   -202.98276    204420.41   -23278.476    1748.8803   -25027.356   -150.46737    331.91753    95.099993    14.493612    28.027407 
   36400    240.30886   -286.55862    204420.41   -23238.465    1744.2272   -24982.692   -451.69844    332.75718     95.09952    14.493688    28.025252 
   36600    245.22966   -355.85116    204420.41   -23216.578    1779.9437   -24996.521    -724.7318    335.01968    95.101027    14.496175     28.01984 
   36800    233.99086   -464.27407    204420.41   -23279.198    1698.3694   -24977.568   -1094.8249    336.50082    95.102954    14.499114    28.015682 
   37000    237.05821   -535.82621    204420.41   -23254.383    1720.6331   -24975.016   -1331.5021    340.03165    95.103423    14.499952    28.013577 
   37200    238.53626   -284.18975    204420.41   -23277.376    1731.3611   -25008.737   -515.71258    342.94748    95.103989    14.496546    28.010158 
   37400    243.24826   -459.19663    204420.41   -23282.391    1765.5621   -25047.953   -1086.7617    346.25026    95.107226    14.494673    28.008419 
   37600    238.48691   -474.56416    204420.41   -23311.935     1731.003   -25042.938   -1136.4982    347.70097    95.105479    14.493644    28.022825 
   37800    231.84108     -437.927    204420.41   -23355.232    1682.7658   -25037.997   -1020.5537    348.95858    95.104039     14.49173    28.031072 
   38000    238.85214   -411.08887    204420.41   -23240.804    1733.6539   -24974.458   -903.20151    350.13519    95.104138    14.490781    28.023019 
   38200    235.93142   -418.13286    204420.41   -23225.603    1712.4546   -24938.057    -972.0029    348.01669    95.104703    14.491328    28.038405 
   38400    242.67645   -249.96673    204420.41   -23175.433    1761.4118   -24936.845   -340.12791    343.93324    95.104124    14.489933    28.032952 
   38600     232.6256   -460.97736    204420.41   -23240.689      1688.46   -24929.149   -1111.9171    341.62769    95.102033     14.48978    28.020281 
   38800    236.09859   -349.18151    204420.41   -23199.577    1713.6679   -24913.245   -676.69662    342.91532    95.101323    14.488463    27.991146 
   39000    239.84032   -301.43269    204420.41   -23160.558    1740.8264   -24901.384   -540.21066    344.89979    95.100919    14.486782    27.984519 
   39200    235.09785   -355.27504    204420.41   -23263.606    1706.4043   -24970.011   -718.51368    348.12297    95.100373    14.488153    27.999186 
   39400    244.48862   -342.07276    204420.41   -23233.006     1774.565   -25007.571   -679.02639    351.89835    95.100761    14.485174    27.998469 
   39600     242.8502   -137.53028    204420.41   -23171.733    1762.6729   -24934.405    57.909919    356.70816     95.10062    14.481526    28.008296 
   39800    243.52122   -511.32949    204420.41   -23243.704    1767.5433   -25011.247   -1289.3635    360.98218    95.099619     14.48334    28.011361 
   40000    239.78464   -239.01242    204420.41   -23197.893    1740.4222   -24938.315   -362.70603    364.63379     95.09945    14.482171    28.015718 
   40200    248.00331   -438.27635    204420.41   -23184.874    1800.0756    -24984.95   -1061.0567    369.82939    95.098967    14.482202    28.038615 
   40400    235.56281   -490.73925    204420.41   -23241.527    1709.7791   -24951.307   -1166.8102    371.95608    95.098752    14.483518     28.04369 
   40600    242.36385   -338.85871    204420.41   -23152.928    1759.1429   -24912.071   -660.01207    374.69686    95.100654    14.485853    28.065334 
   40800    233.74688   -252.12154    204420.41   -23214.524    1696.5985   -24911.123   -337.63526    376.39673    95.100806    14.484096    28.098231 
   41000    238.84876   -339.81298    204420.41   -23194.163    1733.6294   -24927.792   -697.71132    379.37576    95.098894    14.485965    28.095652 
   41200     246.0813   -371.30973    204420.41   -23121.244    1786.1252   -24907.369   -824.39662    380.26434      95.0988    14.482674    28.110751 
   41400    246.16021   -364.39121    204420.41   -23214.078    1786.6979   -25000.775     -778.209    377.06744    95.098608    14.481647    28.116911 
   41600    240.43449   -289.64387    204420.41   -23155.544     1745.139   -24900.683   -535.65694    375.90474    95.099747    14.480513    28.131808 
   41800    243.33861   -174.89516    204420.41   -23173.257     1766.218   -24939.475   -108.74123    378.78901     95.10023    14.478791    28.136719 
   42000    237.69837   -236.26187    204420.41   -23228.941    1725.2795   -24954.221   -320.19529    383.36271    95.099626    14.476768    28.155535 
   42200    240.03521    -281.8904    204420.41   -23289.655    1742.2409   -25031.896   -494.29836    383.90096    95.099761    14.476469    28.150928 
   42400    238.32207   -326.99052    204420.41   -23222.028    1729.8065   -24951.835    -579.1881    383.81804    95.100032    14.476865    28.155815 
   42600    245.91229   -313.60159    204420.41   -23211.906    1784.8984   -24996.804   -550.74829    386.69151    95.100244    14.476563    28.131806 
   42800    240.17989   -180.34869    204420.41    -23221.72    1743.2911   -24965.011   -56.073771    388.08494    95.100177    14.478896    28.131245 
   43000    239.00373   -429.15967    204420.41   -23234.687    1734.7542   -24969.442   -1021.8095    392.06134    95.101161    14.479898     28.13925 
   43200    237.46997   -362.38836    204420.41    -23245.86    1723.6217   -24969.482   -758.03847    396.30996    95.102196    14.481822    28.142987 
   43400    241.39654   -443.59101    204420.41   -23221.388    1752.1218    -24973.51   -1032.2032    396.12861    95.103197    14.481841    28.156092 
   43600     237.6005   -409.49601    204420.41   -23243.388    1724.5692   -24967.957    -921.2311    394.92721    95.104045    14.483131    28.156968 
   43800    234.09307   -426.13166    204420.41   -23249.217    1699.1113   -24948.329    -989.9499    392.27171    95.106812    14.484449    28.156237 
   44000    235.06898   -294.98471    204420.41   -23301.673    1706.1947   -25007.867   -499.63355      390.234    95.106479    14.483341    28.171199 
   44200    234.50235   -246.32584    204420.41   -23215.499     1702.082   -24917.581    -318.6153    388.57184    95.104885    14.483304    28.172596 
   44400    245.88732   -267.32977    204420.41   -23189.591    1784.7171   -24974.308   -387.17411    390.87744    95.105808    14.483929    28.201534 
   44600    237.28118   -511.15564    204420.41   -23205.873    1722.2515   -24928.125   -1254.7369    394.54063    95.106691     14.48343    28.209596 
   44800    237.86725    -343.5736    204420.41   -23223.799    1726.5053   -24950.304    -664.2733    396.02935    95.108865    14.485931    28.201022 
   45000    242.04664    -341.5991    204420.41   -23207.368    1756.8405   -24964.209   -674.84993    398.25921    95.110178    14.487878    28.197842 
   45200    237.77698   -454.87507    204420.41   -23155.294    1725.8501   -24881.144   -1055.8906     400.3941    95.108721    14.488233    28.180992 
   45400    234.04153   -354.10612    204420.41   -23223.474    1698.7372   -24922.211   -734.39648    398.19386    95.109298    14.489977    28.171761 
   45600    245.19148    13.492229    204420.41   -23154.714    1779.6666   -24934.381    598.66168    396.35044     95.10991    14.489231    28.148986 
   45800    242.28242   -322.14129    204420.41   -23182.511    1758.5518   -24941.063   -620.89575     395.6386    95.111952     14.48964    28.166192 
   46000    238.84785   -515.03691    204420.41   -23117.065    1733.6227   -24850.688   -1276.2551    395.53075    95.110597    14.490175    28.146394 
   46200    246.17811    -212.9872    204420.41   -23138.194    1786.8278   -24925.022   -221.48714    393.28737    95.111578    14.490192    28.129034 
   46400     238.4188   -386.24593    204420.41   -23186.837    1730.5086   -24917.346   -826.60354    395.36038    95.111116    14.494512    28.112149 
   46600    240.79726   -392.80046    204420.41   -23175.711    1747.7722   -24923.483   -808.48764    396.05526    95.112892    14.501126    28.083541 
   46800    239.39187   -344.48682    204420.41   -23182.366    1737.5714   -24919.938   -679.06769    394.40092    95.113134    14.503304    28.092882 
   47000    240.99188   -191.97929    204420.41   -23193.733    1749.1848   -24942.918   -167.31988    394.70656    95.112291     14.50567    28.086013 
   47200    238.20458   -363.66412    204420.41   -23276.721    1728.9537   -25005.675    -753.5932    396.01751      95.1115    14.508256    28.085026 
   47400    239.44842   -245.57957    204420.41   -23221.431    1737.9819   -24959.413   -353.07068    395.51335    95.112297    14.505437    28.090702 
   47600    244.25228   -369.40542    204420.41   -23248.667    1772.8496   -25021.517   -769.22935    395.20343    95.113064    14.504094    28.087959 
   47800    236.62752   -386.17925    204420.41   -23262.766     1717.507   -24980.273   -828.26718    393.46768    95.114425    14.503925    28.079629 
   48000    235.34905   -371.70263    204420.41    -23275.86    1708.2275   -24984.088   -794.72473    393.92341    95.117208    14.499771    28.067525 
   48200    241.59949   -396.10951    204420.41   -23233.374    1753.5949   -24986.968   -825.83996    394.16544    95.119548     14.49517    28.060659 
   48400    238.59297   -464.58317    204420.41   -23237.207    1731.7728    -24968.98   -1064.7588    395.24464    95.120946    14.494991    28.056732 
   48600    240.17437   -266.30701    204420.41   -23290.775     1743.251   -25034.026   -425.04273    395.47147    95.121851    14.492942    28.064906 
   48800    237.79404   -445.08018    204420.41   -23249.411    1725.9739   -24975.385   -991.30956    395.07957    95.122367    14.489319    28.061124 
   49000    235.48253   -335.33011    204420.41   -23222.757    1709.1964   -24931.954   -659.71625    394.79765    95.123223    14.489153    28.056507 
   49200    244.39556   -441.22744    204420.41   -23146.487    1773.8896   -24920.377   -969.73243     394.9104    95.124462     14.49117    28.071087 
   49400    234.49522   -167.37511    204420.41   -23206.627    1702.0302   -24908.657    -112.8376    394.48778    95.124247     14.49391    28.064978 
   49600    241.74444    -357.7864    204420.41   -23215.946     1754.647   -24970.593   -745.44585    393.26236    95.124202    14.495238    28.077024 
   49800     237.0941   -152.35352    204420.41   -23215.298    1720.8936   -24936.192   -8.3729248    393.19118    95.123545    14.493826    28.065369 
   50000    241.33891   -254.68928    204420.41   -23239.248    1751.7035   -24990.952    -349.0165    394.75526    95.121647     14.49176    28.052181 
   50200    245.02178   -231.17984    204420.41   -23173.371    1778.4349   -24951.806   -287.10264    393.92869    95.120177    14.491573    28.051883 
   50400    241.53861   -199.95293    204420.41    -23197.14    1753.1531   -24950.293   -194.31128      394.757    95.120192    14.490241    28.051278 
   50600    243.07202   -349.56136    204420.41    -23111.71     1764.283   -24875.993   -708.59312    395.07983    95.119076    14.488987    28.050413 
   50800    232.49544   -261.14615    204420.41     -23289.6    1687.5153   -24977.115   -399.84274    396.55731    95.118012    14.487399    28.037273 
   51000    231.40623   -211.55173    204420.41   -23246.209    1679.6095   -24925.819   -215.62663    395.56698    95.117647    14.487877     28.05067 
   51200    240.60116   -384.71301    204420.41   -23255.852    1746.3488     -25002.2   -794.93464    397.73947    95.116647    14.486844    28.048156 
   51400     237.0813   -366.59763    204420.41   -23248.647    1720.8007   -24969.448   -761.16376    398.38351    95.116341     14.48498    28.055448 
   51600    240.81125   -448.77818    204420.41   -23320.348    1747.8736   -25068.222   -1059.2068     401.7863    95.115816    14.483026    28.043507 
   51800    234.72687   -426.74249    204420.41   -23278.667    1703.7116   -24982.378   -943.78607    402.91878    95.113441    14.482946    28.051681 
   52000    238.88747   -400.97066    204420.41    -23319.76    1733.9103    -25053.67   -851.69145    403.44852    95.114036    14.478576    28.044635 
   52200    234.89203    -287.1015    204420.41   -23338.985    1704.9103   -25043.896   -446.25492    404.61312    95.113413    14.476547    28.053566 
   52400     228.5358   -666.04365    204420.41   -23421.109    1658.7751   -25079.885   -1795.5812    407.05306    95.113877    14.477291     28.05003 
   52600    240.40879   -266.14042    204420.41   -23290.949    1744.9525   -25035.901    -404.3309    408.01543     95.11399     14.47556    28.029012 
   52800    245.45739   -575.77971    204420.41   -23212.829    1781.5966   -24994.426   -1481.9147    408.92082    95.115199    14.476602      28.0063 
   53000    240.29448   -358.55903    204420.41   -23149.602    1744.1228   -24893.725   -710.58062    411.88487    95.115137    14.477292    28.009731 
   53200    237.17874   -451.08286    204420.41   -23257.236    1721.5079   -24978.743   -1066.5281    413.14898    95.113738    14.481078    27.994919 
   53400    240.54905   -411.24074    204420.41   -23257.137    1745.9706   -25003.108   -918.40726     413.9996    95.112617    14.484383     27.99796 
   53600    231.85661   -377.03554    204420.41   -23341.336    1682.8785   -25024.214   -770.19096    414.43716    95.112525    14.487842    27.998749 
   53800    238.70964     -203.122    204420.41   -23283.681    1732.6196   -25016.301   -193.10461    414.68365    95.111926    14.489949    27.980406 
   54000    238.12135   -437.07914    204420.41   -23264.708    1728.3496   -24993.057   -1026.4001     417.5242    95.111501    14.490098    27.971637 
   54200    240.54123    -590.4306    204420.41   -23226.301    1745.9138   -24972.215   -1554.1415    419.04419    95.110682    14.490292     27.95932 
   54400    238.99827   -252.26991    204420.41   -23188.368    1734.7146   -24923.082   -347.87306    418.64957    95.110764     14.49254    27.972758 
   54600    239.67638   -410.28517    204420.41   -23213.943    1739.6364    -24953.58   -876.06258    418.07072    95.110891    14.494532    27.971288 
   54800    244.93535   -212.40903    204420.41   -23236.509    1777.8075   -25014.317   -245.15569    416.83953    95.112068    14.493848    27.972732 
   55000    240.63436   -343.57101    204420.41   -23218.346    1746.5898   -24964.936   -629.84017    417.12784    95.110877    14.492676    27.998404 
   55200     233.3835   -262.15073    204420.41   -23322.021     1693.961   -25015.982   -380.39797    416.65212    95.110411    14.494919    27.996688 
   55400    240.86875   -259.97073    204420.41   -23278.678     1748.291   -25026.969   -404.58282    417.08737    95.111182    14.494875    28.009799 
   55600    239.38426   -380.25883    204420.41   -23224.075    1737.5162   -24961.592   -779.59418    419.15526    95.112105    14.493662    28.011667 
   55800    241.06817    -355.0941    204420.41   -23115.201    1749.7385   -24864.939   -709.40229    418.72455     95.11077    14.495155    28.010103 
   56000    241.12065   -244.38172    204420.41   -23176.581    1750.1193     -24926.7   -330.99967    420.27423    95.112508    14.496773    28.012864 
   56200    242.63551   -396.15566    204420.41    -23196.68    1761.1146   -24957.795   -844.49546    422.82697    95.112944    14.496312    27.987906 
   56400    237.28196   -340.11996    204420.41   -23263.482    1722.2571   -24985.739   -691.53505    426.30421    95.114536    14.497559    27.990881 
   56600    227.10034   -505.98066    204420.41   -23372.414    1648.3561    -25020.77   -1233.3907    426.49354      95.1122    14.499738    27.994008 
   56800    245.88963   -283.96213    204420.41   -23221.722    1784.7339   -25006.456   -480.56677    425.83138    95.113697    14.499235    27.962918 
   57000     235.2654   -279.12012    204420.41   -23293.433    1707.6204   -25001.054    -456.5131    426.12936    95.113617    14.500464    27.974243 
   57200    237.69146   -436.04358    204420.41    -23199.23    1725.2294    -24924.46    -1005.998    427.80401    95.112632    14.501949    27.974364 
   57400    241.18865   -169.74602    204420.41   -23249.624    1750.6129   -25000.237   -52.612374     428.3428    95.112328    14.504246    27.962196 
   57600    235.24291   -489.87483    204420.41   -23271.843    1707.4572     -24979.3   -1199.1509    426.64174    95.111762    14.502914    27.953698 
   57800    240.18852   -272.40667    204420.41   -23178.878    1743.3537   -24922.231   -392.50544    427.11784    95.111137    14.501372    27.933679 
   58000    241.18083   -555.23253    204420.41   -23183.427    1750.5562   -24933.983     -1434.42    429.76065    95.110978    14.503783    27.942449 
   58200    244.55282   -418.05314    204420.41   -23178.325     1775.031   -24953.356   -939.63861    430.37915    95.109158    14.501355    27.952258 
   58400    236.46414    -324.1575    204420.41   -23190.472    1716.3212   -24906.793    -607.1029    430.15664    95.107661    14.500135    27.954243 
   58600    239.47852   -183.13986    204420.41   -23213.462    1738.2004   -24951.663   -121.24931    431.49548    95.109396    14.500277    27.943057 
   58800    235.75929   -291.01093    204420.41   -23217.442    1711.2052   -24928.647   -482.28133     432.2838    95.112319    14.500477    27.923719 
   59000    243.23796   -339.33271    204420.41   -23153.979    1765.4874   -24919.467    -633.5021    433.40303    95.114366    14.498909    27.929175 
   59200     237.6069   -434.32454    204420.41   -23221.758    1724.6156   -24946.374   -1004.9763    435.28331    95.114561    14.499463     27.94593 
   59400    238.41118   -162.04174    204420.41   -23257.426    1730.4533    -24987.88   -53.623823    436.25357    95.112845    14.499165    27.951648 
   59600    234.65326   -388.19053    204420.41   -23308.469    1703.1773   -25011.647    -809.9068    440.31219     95.11392    14.498045    27.948578 
   59800    235.76559   -408.35027    204420.41   -23217.326    1711.2509   -24928.577   -942.35662    441.67064    95.114951    14.498573    27.928705 
   60000    238.56448   -404.48115    204420.41   -23184.827     1731.566   -24916.393   -917.43255    442.51393    95.113682    14.496326    27.928308 
   60200    237.31677   -323.62251    204420.41   -23216.207    1722.5098   -24938.717   -593.25692    445.65225    95.113292     14.49695    27.939338 
   60400    239.53997   -268.95792    204420.41   -23160.823    1738.6464   -24899.469   -433.75381    447.11548    95.111732    14.494792    27.928336 
   60600    233.99348   -272.41958    204420.41   -23172.846    1698.3884   -24871.234   -425.29424    448.72811    95.110647    14.495766    27.916506 
   60800    246.95098   -274.20729    204420.41   -23108.024    1792.4375   -24900.461   -439.16756    449.72737    95.109757     14.49866    27.913531 
   61000    242.40146   -391.59168    204420.41    -23148.82    1759.4159   -24908.236   -842.23596    450.51873    95.109645     14.50104    27.911783 
   61200    246.32085   -235.23319    204420.41   -23139.931    1787.8639   -24927.795   -309.59091    451.21598    95.108027    14.503511    27.917428 
   61400    245.74743   -281.16922    204420.41   -23209.443    1783.7018   -24993.145   -450.19093     451.7472    95.108774    14.505841    27.904377 
   61600    241.00646   -380.70835    204420.41   -23217.976    1749.2906   -24967.267   -819.15357    454.32159    95.109302    14.507358    27.894211 
   61800    243.40705   -361.68766    204420.41   -23287.066    1766.7147   -25053.781   -747.61759    457.08512     95.10987     14.50987    27.892401 
   62000    242.66796   -296.88867    204420.41   -23181.861    1761.3502   -24943.211   -509.16846    456.38597    95.109535    14.508916    27.894661 
   62200    238.38728   -394.36741    204420.41   -23176.457    1730.2798   -24906.737   -888.63512    457.48714    95.109785    14.508481    27.888857 
   62400    234.49702   -512.92625    204420.41   -23199.852    1702.0432   -24901.895   -1266.8241    460.47466    95.110474    14.506607    27.891723 
   62600    237.97619   -180.08349    204420.41   -23268.241     1727.296   -24995.537   -104.97598    460.25519    95.107686    14.506736    27.865241 
   62800    231.93468   -401.40588    204420.41   -23337.991    1683.4451   -25021.436   -911.96087     463.8741    95.107036    14.502901    27.873235 
   63000    236.62384   -523.50697    204420.41   -23204.817    1717.4803   -24922.298   -1338.7487    467.00655    95.105318    14.499741    27.849922 
   63200    243.19705   -402.54492    204420.41   -23239.182    1765.1905   -25004.372   -912.10606     469.1069    95.106674    14.499891    27.825958 
   63400    228.77217   -588.44014    204420.41   -23287.692    1660.4907   -24948.182   -1518.7816    473.97977    95.106369    14.500896     27.82921 
   63600    238.10254   -275.65763    204420.41    -23319.82    1728.2131   -25048.033   -445.51521    475.17198    95.106485    14.505102    27.825022 
   63800    231.99399   -411.70266    204420.41   -23339.648    1683.8756   -25023.523   -922.48075    475.80321    95.106198    14.507326    27.837663 
   64000    245.06766   -455.50446    204420.41   -23223.298    1778.7679   -25002.066   -1067.5004    478.88608    95.106495    14.508885    27.835903 
   64200    248.49274   -197.01561    204420.41   -23259.529     1803.628   -25063.157   -140.38795    478.67188    95.103946    14.510191    27.848873 
   64400    238.76621   -381.38211    204420.41   -23287.577    1733.0302   -25020.607   -846.01497    481.48318    95.103307    14.509995    27.850576 
   64600    234.51755   -77.818761    204420.41   -23302.405    1702.1923   -25004.598     183.7539    484.25043    95.104483    14.510136     27.85687 
   64800     237.4343   -278.40234    204420.41   -23286.409    1723.3629   -25009.772   -451.81524    486.88556    95.103823    14.510572    27.832816 
   65000    242.22758   -443.03671    204420.41   -23185.062    1758.1538   -24943.216   -1037.1889    491.83557    95.102761    14.512273    27.817356 
   65200    240.86985   -314.62075    204420.41   -23220.558     1748.299   -24968.857   -581.54928    494.96075    95.105382    14.512033    27.819525 
   65400    240.88426   -241.20351    204420.41   -23271.949    1748.4036   -25020.352   -287.67774    497.35858    95.104983    14.509738    27.835282 
   65600    238.67261   -249.72146    204420.41    -23222.39    1732.3508   -24954.741   -391.67398    503.20504    95.106315    14.503934    27.822803 
   65800    239.24298    -384.4792    204420.41   -23236.314    1736.4907   -24972.804   -825.53359    505.84816    95.105281    14.496618    27.815773 
   66000    241.91231   -426.66917    204420.41   -23220.485    1755.8654    -24976.35   -997.28915    509.32261    95.104185    14.493578    27.833243 
   66200    239.21178   -441.34167    204420.41    -23288.95    1736.2643   -25025.214   -998.34845    512.08686    95.105152    14.491627    27.848043 
   66400    238.53219   -424.70053    204420.41    -23313.43    1731.3316   -25044.761   -973.41104    512.02966    95.106601    14.492316     27.86097 
   66600    240.56725   -54.500823    204420.41   -23381.344    1746.1026   -25127.446    329.17655    511.47601    95.106964    14.492412    27.866025 
   66800    234.33743   -554.16724    204420.41   -23331.438    1700.8849   -25032.323   -1386.2572    513.68958    95.106191    14.493171    27.869349 
   67000    230.14505   -233.99261    204420.41   -23404.505    1670.4554   -25074.961   -306.21969    513.72924    95.104921    14.494073     27.86715 
   67200    233.53269   -236.38183    204420.41   -23312.963    1695.0439   -25008.007   -291.79436    517.33149    95.103128     14.49581    27.877681 
   67400    241.82274   -374.83755    204420.41    -23289.74    1755.2153   -25044.955   -778.32323    518.46373    95.103029    14.501108    27.876444 
   67600    243.15543   -396.53775    204420.41   -23226.322    1764.8884   -24991.211   -870.25694    521.44843    95.100381    14.499638    27.866911 
   67800     243.4298   -288.32919    204420.41   -23235.641    1766.8798   -25002.521   -496.59635    524.69535    95.098145    14.499342    27.848159 
   68000     236.9336   -428.62371    204420.41   -23288.115    1719.7287   -25007.844   -974.25893    523.55062    95.098945    14.501635    27.840249 
   68200    238.19559   -401.30595    204420.41   -23240.435    1728.8885   -24969.324   -851.85845     523.2588    95.100206    14.506884    27.835979 
   68400     242.0558   -316.07388    204420.41   -23206.087     1756.907   -24962.994   -568.78098    523.19768    95.100436    14.505573    27.845588 
   68600    236.27784   -195.82791    204420.41   -23253.056    1714.9689   -24968.025   -183.73416     526.8972    95.099867    14.506157    27.838758 
   68800    239.38666   -354.88126    204420.41   -23172.065    1737.5336   -24909.598   -698.06691    532.36777    95.100496    14.507684    27.816936 
   69000     244.0833   -334.84976    204420.41   -23190.937    1771.6231    -24962.56   -586.90962    531.69492    95.099903    14.508344    27.804552 
   69200    233.67233   -227.49629    204420.41   -23280.003    1696.0574    -24976.06   -221.60486    532.40528    95.098807    14.506264    27.789497 
   69400     231.6857   -297.07869    204420.41   -23264.379     1681.638   -24946.017   -501.02338    532.39929    95.097378    14.506774    27.787285 
   69600    241.96067   -307.37006    204420.41   -23126.964    1756.2165    -24883.18   -559.64349    533.90579    95.099065     14.50668    27.777968 
   69800    235.70692   -233.11377    204420.41   -23155.545    1710.8251    -24866.37   -275.55934    532.33004    95.099499    14.504852    27.796379 
   70000    232.18559   -143.14311    204420.41   -23188.446    1685.2663   -24873.712    53.661867    532.71548    95.099115    14.504037     27.82217 
   70200    249.22874   -523.23507    204420.41   -23137.821    1808.9701   -24946.791   -1293.5812     534.6946    95.100149    14.505156    27.810166 
   70400    244.72358   -479.56977    204420.41   -23165.903    1776.2704   -24942.173   -1170.5276    533.73296    95.100688    14.506056    27.810104 
   70600    235.97415   -334.70233    204420.41    -23229.69    1712.7647   -24942.454   -632.58476    537.31171    95.101313    14.508689    27.792288 
   70800    240.91183   -422.05485    204420.41   -23244.798    1748.6037   -24993.401   -930.85097    540.38701    95.101116    14.509215    27.800269 
   71000    237.52073   -627.60843    204420.41   -23270.922    1723.9901   -24994.912   -1611.4673    541.45156    95.100178    14.509238    27.804306 
   71200     237.3593    -367.0145    204420.41   -23263.454    1722.8185   -24986.273   -747.38379    540.07353    95.100147    14.509431    27.793479 
   71400    239.87267   -406.91917    204420.41    -23301.06    1741.0612   -25042.121   -864.71384     541.8167    95.100856    14.508994    27.792319 
   71600    242.61117    -257.6323    204420.41   -23220.412     1760.938    -24981.35   -381.89769    543.25012    95.102008    14.508201    27.795915 
   71800    236.22201    -408.9119    204420.41   -23306.709    1714.5637   -25021.272   -882.01223    542.93321     95.09963    14.507133    27.818052 
   72000    231.22978   -199.36126    204420.41    -23348.78    1678.3288   -25027.109   -185.20981    542.94084    95.100353    14.503649    27.836947 
   72200    237.83743   -242.13548    204420.41   -23194.546    1726.2889   -24920.835   -291.95044    544.09234    95.100208    14.501635    27.826608 
   72400    232.77545   -550.29196    204420.41   -23219.425    1689.5477   -24908.973   -1424.0962    542.95718    95.099051     14.50066    27.814447 
   72600    238.66015   -209.08502    204420.41   -23209.224    1732.2604   -24941.484   -167.38188    538.04741    95.099581    14.500235    27.841087 
   72800    243.22694   -262.30168    204420.41    -23237.22    1765.4074   -25002.628    -330.9333    535.67829    95.099631    14.500533    27.844168 
   73000    238.53854   -302.27192    204420.41   -23265.404    1731.3777   -24996.782   -524.01402    535.71272     95.10164    14.500266    27.857383 
   73200    236.93611   -498.94685    204420.41   -23190.305    1719.7468   -24910.051   -1173.1757    538.74559    95.099856    14.500447    27.845492 
   73400    241.83286    -69.74702    204420.41   -23183.803    1755.2888   -24939.092    289.15347    537.84358    95.099993     14.49808    27.838129 
   73600    237.07626   -427.30994    204420.41   -23201.509    1720.7641   -24922.273   -971.83459    537.00767    95.097855    14.499791    27.845714 
   73800    233.00867   -504.42898    204420.41   -23295.179    1691.2404   -24986.419   -1204.8396    539.97818    95.098202    14.503991    27.819727 
   74000    239.73185   -253.76977    204420.41   -23297.174    1740.0391   -25037.213   -412.00221    540.22941    95.098581    14.501089    27.810487 
   74200    243.28901   -486.14257    204420.41   -23199.948    1765.8579   -24965.806   -1157.2984     543.3022    95.099756    14.499379    27.801093 
   74400     245.2516   -290.09389    204420.41    -23201.12     1780.103   -24981.223    -498.2252    546.02321    95.101006    14.496947    27.817184 
   74600    237.39558   -165.64541    204420.41   -23188.703    1723.0818   -24911.785   -116.87361    547.07354     95.10017    14.496719    27.821658 
   74800    243.89598   -393.44901    204420.41   -23221.476    1770.2635    -24991.74   -883.45246    546.30637    95.098624    14.495509    27.843578 
   75000    237.29535   -255.39092    204420.41   -23228.688    1722.3543   -24951.043   -360.90816    545.37078    95.097686    14.495876    27.855413 
   75200    239.25837   -287.64334    204420.41   -23163.117    1736.6024    -24899.72   -460.71281    548.45631    95.096046     14.49681    27.870669 
   75400    235.75348   -315.81009    204420.41   -23266.761     1711.163   -24977.924   -506.88532    548.37825    95.094639    14.495963    27.869728 
   75600    239.15496   -312.22362    204420.41   -23236.394    1735.8518   -24972.246   -540.48306    549.52334    95.093322    14.493478    27.853454 
   75800    241.82581    -389.3641    204420.41   -23198.255    1755.2376   -24953.492   -869.12634    549.16501    95.092628    14.496033    27.856926 
   76000    240.49836   -402.00069    204420.41   -23166.014    1745.6026   -24911.617    -867.8936    550.49763    95.091658    14.497174    27.837041 
   76200    239.40391    -425.7349    204420.41   -23251.401    1737.6588    -24989.06   -959.32352     552.0128    95.090067    14.496859    27.839177 
   76400    240.22318   -350.68555    204420.41   -23227.926    1743.6053   -24971.531    -700.7809    553.89653    95.089473    14.495758    27.851481 
   76600    239.17431    -331.7581    204420.41   -23205.768    1735.9923    -24941.76    -611.1051    554.22762    95.090034    14.493443    27.851978 
   76800    239.95543   -328.48691    204420.41   -23257.497    1741.6619   -24999.159   -628.55031    555.55093    95.089546    14.492686     27.85129 
   77000    240.74774   -294.24071    204420.41   -23238.331    1747.4127   -24985.744     -497.997    556.68962     95.08984    14.495135    27.866463 
   77200    238.43487   -310.67037    204420.41   -23176.204    1730.6253   -24906.829   -560.97384    557.01726    95.089043    14.495319    27.865377 
   77400    238.37628   -319.22654    204420.41   -23157.456       1730.2   -24887.656   -631.96348    559.42135    95.088374    14.496878    27.871088 
   77600    237.07409     -206.146    204420.41   -23226.064    1720.7484   -24946.813   -197.70922    558.93945    95.087854    14.496837    27.854459 
   77800    240.94633   -249.37236    204420.41   -23265.707    1748.8542   -25014.561   -383.83638    558.85743    95.089433    14.496391     27.84821 
   78000    236.52649   -334.97482    204420.41   -23229.069    1716.7737   -24945.842   -651.48384    559.96314    95.088393    14.494099    27.842099 
   78200    238.70325    -413.9768    204420.41   -23239.894    1732.5732   -24972.467   -934.38644     564.2997    95.090707    14.495556    27.842865 
   78400    243.68919   -544.50206    204420.41   -23174.854    1768.7625   -24943.617   -1382.6187    565.60753    95.090736    14.496675    27.823043 
   78600    234.84293    -397.5192    204420.41   -23210.613     1704.554   -24915.167   -876.77607    568.34213    95.091926    14.496582    27.842667 
   78800    238.56524   -292.82092    204420.41   -23178.884    1731.5715   -24910.456   -510.65962    568.51107    95.090508    14.497589    27.829578 
   79000    243.18065   -281.44993    204420.41   -23184.912    1765.0714   -24949.983   -506.97935    570.22363    95.089983    14.498737    27.855947 
   79200    244.87724   -355.94361    204420.41   -23166.521    1777.3858   -24943.907   -732.46278    570.59524    95.090332    14.499127    27.865694 
   79400    245.67272   -603.86577    204420.41   -23182.969    1783.1595   -24966.129   -1582.0142    573.47027    95.091701    14.497854     27.84809 
   79600    235.64843   -297.94975    204420.41   -23301.093    1710.4005   -25011.493    -483.9059    573.31037     95.09182    14.499517    27.841244 
   79800    243.08152   -288.08649    204420.41   -23264.978    1764.3519    -25029.33   -459.48692    575.10666    95.092113     14.49854    27.855369 
   80000    234.57882   -221.32642    204420.41   -23291.943     1702.637    -24994.58   -232.76658    576.48239     95.09291    14.496545    27.865487 
   80200    244.65676   -285.17192    204420.41    -23298.67    1775.7854   -25074.455   -457.62738    576.74401    95.092129    14.494674    27.868197 
   80400    236.52359   -394.77213    204420.41   -23341.941    1716.7526   -25058.694   -861.84579    576.85059    95.090209    14.494662    27.876244 
   80600    242.42732   -162.61054    204420.41    -23320.58    1759.6035   -25080.184    -61.72591    578.38735    95.091991    14.496865    27.856267 
   80800    240.86252   -396.78209    204420.41   -23248.736    1748.2458   -24996.981   -837.94463    578.69189    95.091991    14.498308    27.858071 
   81000    240.85281   -308.53406    204420.41   -23278.379    1748.1753   -25026.554   -563.04957    577.68895    95.090868    14.497351    27.838311 
   81200    240.12593   -214.23552    204420.41   -23246.645    1742.8994   -24989.545   -251.76606    577.14698      95.0912    14.501386    27.839031 
   81400    235.13203   -457.09767    204420.41   -23212.343    1706.6523   -24918.995    -1116.121    578.71519    95.090064     14.50373    27.810605 
   81600    236.70221    -330.8904    204420.41   -23333.682    1718.0491   -25051.732   -644.42576    577.61685    95.090487    14.504065    27.803176 
   81800    234.09822   -467.55613    204420.41   -23360.489    1699.1487   -25059.637   -1079.1706     580.5396    95.089418    14.502043    27.791721 
   82000    238.60742   -396.61874    204420.41   -23288.825    1731.8777   -25020.703   -882.60119    584.12315    95.090279    14.503612     27.80826 
   82200    241.81679   -327.79977    204420.41   -23216.168    1755.1721    -24971.34   -607.29219     583.1333    95.089545    14.504983    27.812756 
   82400    243.95133   -168.24585    204420.41   -23247.003    1770.6652   -25017.668   -68.985577    585.37906     95.08976    14.502972    27.820642 
   82600    239.57726   -334.25843    204420.41   -23149.516     1738.917   -24888.433   -657.71423    587.77135    95.089144    14.502513    27.806902 
   82800    238.01411   -181.76011    204420.41   -23243.215    1727.5713   -24970.786   -113.28273    589.17589    95.088028    14.500578    27.775156 
   83000    243.48751   -333.16311    204420.41   -23134.965    1767.2987   -24902.264   -674.05769    591.45988     95.08917    14.501162    27.772495 
   83200    239.40813   -298.91099    204420.41   -23190.712    1737.6894   -24928.401    -508.6871    594.67114    95.088781    14.499035    27.785281 
   83400    242.35297   -283.97299    204420.41   -23195.874    1759.0639   -24954.938   -481.52671    598.02157    95.089765    14.496412    27.762219 
   83600     234.5402   -379.46771    204420.41   -23338.129    1702.3567   -25040.486   -784.60707    599.77285     95.09006    14.498901    27.751443 
   83800    235.98772   -356.02271    204420.41   -23289.235    1712.8632   -25002.098   -679.75517    604.39647     95.08993    14.498547    27.759926 
   84000    237.91785   -223.77278    204420.41    -23283.74    1726.8726   -25010.613   -235.41766    605.87657    95.089885    14.497913    27.771138 
   84200     242.7854   -377.30188    204420.41   -23208.276    1762.2026   -24970.479   -802.19663    605.54603    95.089705    14.498532    27.777304 
   84400    233.96955    -192.2104    204420.41   -23265.649    1698.2147   -24963.864   -130.34359     604.7852    95.089703    14.499054    27.791538 
   84600    243.13135   -295.72683    204420.41   -23207.018    1764.7136   -24971.732   -527.19411     605.9316    95.089338    14.498042    27.810362 
   84800    241.35558   -341.38345    204420.41   -23259.525    1751.8246   -25011.349   -669.15412    608.77425    95.087541     14.49803    27.823028 
   85000    242.28831   -446.99189    204420.41    -23225.36    1758.5946   -24983.955   -1033.2615     611.5705    95.088219    14.496846    27.835965 
   85200    243.15103   -242.83787    204420.41   -23197.074    1764.8564    -24961.93   -299.85974     613.1866    95.087821     14.49754    27.823925 
   85400    237.27483   -257.71907    204420.41   -23308.788    1722.2053   -25030.993   -357.49739    614.61033    95.086094       14.495    27.832084 
   85600    240.76917   -489.15428    204420.41   -23282.143    1747.5682   -25029.711    -1143.869    616.08027    95.084619    14.489674    27.855123 
   85800    237.24232   -251.55596    204420.41   -23270.868    1721.9694   -24992.837   -347.03625    617.54337    95.083376    14.490441    27.843636 
   86000    242.24298   -397.64867    204420.41   -23214.812    1758.2656   -24973.077   -856.07864    618.70336    95.083167    14.491486    27.836037 
   86200    243.04915   -322.01791    204420.41   -23197.148     1764.117   -24961.265   -622.56333    619.30357    95.084877    14.489685    27.853575 
   86400    235.33983   -378.59355    204420.41    -23283.37    1708.1606    -24991.53   -799.19063    621.53741    95.083723     14.49086    27.836822 
   86600    240.84523   -254.64596    204420.41   -23223.293    1748.1203   -24971.413   -343.63641    625.33094    95.082103    14.490338    27.819575 
   86800     238.7305   -404.25828    204420.41   -23293.474     1732.771   -25026.245   -934.98407    628.04501    95.081418    14.489363    27.802729 
   87000    238.09807   -380.37191    204420.41   -23237.109    1728.1807   -24965.289   -767.14173    630.07377    95.080241    14.490815    27.803976 
   87200    241.58468   -293.90028    204420.41   -23175.438    1753.4874   -24928.925    -473.0526    628.95014    95.081412    14.489439    27.799392 
   87400    236.76652   -192.84189    204420.41   -23270.567    1718.5159   -24989.082   -162.61885    629.15115    95.080049    14.490065    27.813285 
   87600    239.57195   -421.71097    204420.41   -23157.484    1738.8785   -24896.363   -952.20272    628.90395    95.079337    14.491107    27.818369 
   87800    241.86198   -384.21062    204420.41   -23180.829    1755.5001   -24936.329   -799.96542    629.67397    95.079995    14.490777    27.805956 
   88000    242.33544   -311.96722    204420.41   -23181.025    1758.9367   -24939.961    -543.4274    630.73582    95.079781    14.492674    27.809611 
   88200    241.24226   -420.40722    204420.41   -23233.847    1751.0021   -24984.849   -929.00869    631.87288    95.078281    14.490302    27.794253 
   88400     242.0467   -296.59955    204420.41   -23214.216    1756.8409   -24971.057    -505.0552    633.62922     95.07966    14.487113    27.807059 
   88600    239.15811   -355.56675    204420.41   -23285.655    1735.8747    -25021.53   -697.22023    635.92479    95.080056    14.481996    27.824221 
   88800    234.55003   -418.40513    204420.41   -23311.551     1702.428   -25013.979    -960.1381    639.97754    95.078746    14.480152    27.819572 
   89000    235.36368   -442.57595    204420.41   -23266.561    1708.3337   -24974.895   -991.74117    641.26856    95.079714    14.477293    27.820426 
   89200    236.60647   -327.43181    204420.41   -23218.416    1717.3542    -24935.77   -663.16019    644.17913    95.079133    14.471882    27.804929 
   89400    239.58745   -299.01987    204420.41   -23187.502     1738.991   -24926.493   -532.50747    644.71989     95.07765     14.47111    27.810918 
   89600    232.19589   -383.70966    204420.41   -23320.291     1685.341   -25005.632   -837.56594    642.58803    95.077765    14.473238    27.816127 
   89800    242.79505   -433.47502    204420.41   -23206.361    1762.2726   -24968.634   -1009.0193    642.58838    95.078848    14.473462    27.834943 
   90000     236.8789   -427.53453    204420.41    -23215.05    1719.3316   -24934.381   -976.73663    645.14682    95.077409    14.475542    27.841202 
   90200     241.8531    -290.6724    204420.41    -23313.29    1755.4357   -25068.726   -505.78175    646.78913    95.077623    14.477048     27.84694 
   90400    243.00723   -382.77771    204420.41   -23284.366    1763.8127   -25048.179   -843.66235    650.29005    95.077956    14.475939    27.840534 
   90600    235.63251   -219.35382    204420.41   -23302.176     1710.285   -25012.461   -204.69001    651.88714    95.075964    14.473182    27.830188 
   90800    236.18948   -197.08892    204420.41   -23240.786    1714.3276   -24955.114   -171.40693    652.70224    95.075039    14.476071    27.823112 
   91000    240.46314   -329.49059    204420.41   -23318.043     1745.347    -25063.39   -671.98598    656.35396    95.074995    14.479374    27.811065 
   91200    235.46939   -194.07017    204420.41   -23345.549     1709.101    -25054.65   -145.49885    656.43303    95.075101     14.48357    27.817167 
   91400    230.59368   -281.39336    204420.41   -23278.874    1673.7118   -24952.586   -470.83546    659.18918    95.075572    14.483644    27.820561 
   91600    239.02712   -383.79196    204420.41   -23138.656    1734.9239    -24873.58   -815.16381    658.17565    95.076374    14.482952    27.836168 
   91800    241.59172   -365.41521    204420.41   -23181.573    1753.5386   -24935.111   -788.62163    657.03321    95.076251    14.482948    27.811457 
   92000    240.17109   -412.19224    204420.41   -23169.886    1743.2272   -24913.113   -921.48818    654.35192    95.077281    14.482363    27.817023 
   92200    240.84097   -485.64001    204420.41   -23206.672    1748.0894   -24954.761   -1168.0409    654.76042    95.076224    14.486764    27.818953 
   92400    240.62935   -205.29755    204420.41   -23204.688    1746.5534   -24951.241   -202.93608    656.65336    95.075025    14.493111      27.8334 
   92600    247.36317   -279.80115    204420.41   -23174.068    1795.4293   -24969.498   -457.56086    657.60316    95.073452    14.493491    27.826981 
   92800    239.02305   -445.65588    204420.41   -23255.104    1734.8944   -24989.998   -1036.4422    660.24743    95.071016     14.49406    27.826992 
   93000     234.1836   -282.47681    204420.41   -23289.259    1699.7684   -24989.028   -420.44077    659.88287    95.071019    14.496551    27.834248 
   93200     239.0177   -309.89455    204420.41   -23262.521    1734.8556   -24997.376   -585.76445    660.09986    95.072343    14.496965    27.838442 
   93400    236.57366    -412.4791    204420.41   -23325.005    1717.1161   -25042.121   -899.83742    660.30799    95.073289    14.496518    27.838702 
   93600    236.73382   -308.73432    204420.41   -23267.718    1718.2786   -24985.997   -550.37133     662.7186    95.074595    14.495548    27.849081 
   93800    238.40401   -295.12758    204420.41   -23307.168    1730.4013   -25037.569   -517.35189     665.8263     95.07432    14.494641    27.844666 
   94000    236.83925   -352.84594    204420.41    -23364.93    1719.0438   -25083.973   -702.65318    667.87776     95.07397    14.492951    27.841401 
   94200    240.76618   -309.51135    204420.41    -23251.45    1747.5465   -24998.997   -553.64944    667.15246    95.073484    14.492737    27.860555 
   94400    238.79663   -273.47362    204420.41   -23291.067     1733.251   -25024.318   -446.86985    670.73272    95.072147    14.493993    27.853752 
   94600     233.8529   -375.11895    204420.41   -23288.326    1697.3681   -24985.694   -796.97989    673.94537    95.072337    14.495949    27.855994 
   94800    238.95547   -363.17255    204420.41   -23294.116    1734.4039   -25028.519   -725.51254    678.85883    95.069942    14.495376    27.835757 
   95000    243.77248   -452.72621    204420.41   -23341.856    1769.3671   -25111.223   -1042.1105    681.56629    95.068302    14.496564    27.858107 
   95200    230.11186   -427.94158    204420.41   -23316.306    1670.2146    -24986.52   -985.51346    681.27198     95.06505    14.494693    27.855523 
   95400    239.15887   -274.62587    204420.41   -23239.122    1735.8803   -24975.002   -375.03766    682.08127    95.066026    14.493937    27.838523 
   95600     234.7552   -268.43647    204420.41   -23179.999    1703.9172   -24883.917   -429.15311    683.00405     95.06608    14.491898    27.824873 
   95800     240.7189   -503.89655    204420.41   -23215.514    1747.2034   -24962.717   -1274.7293    683.31726    95.065995    14.490819    27.827523 
   96000    237.74996   -336.93937    204420.41   -23238.973     1725.654   -24964.627   -617.57299     682.0726    95.066057    14.490117    27.811829 
   96200    243.45939   -373.21959    204420.41   -23143.028    1767.0946   -24910.122    -794.7742    683.31847    95.067496    14.490164    27.820747 
   96400    239.90043   -400.30866    204420.41   -23255.752    1741.2627   -24997.015   -889.82829    682.99806    95.067165    14.487589    27.819485 
   96600    240.74087   -167.10274    204420.41   -23260.412    1747.3628   -25007.775   -79.152008    684.54917    95.067405    14.487625    27.798179 
   96800    242.52633   -415.50489    204420.41   -23216.984    1760.3222   -24977.306   -909.41324    689.95035     95.06847    14.490519    27.798586 
   97000    245.58199   -440.71175    204420.41   -23218.981     1782.501   -25001.482   -1035.5848    691.28244    95.068206    14.488606     27.81005 
   97200    243.11069   -136.60111    204420.41   -23250.417    1764.5636   -25014.981     76.15106    691.32902    95.067754    14.486474    27.804236 
   97400     233.2635   -398.55272    204420.41   -23214.001      1693.09   -24907.091   -855.51248    689.65135    95.067882    14.484656    27.805501 
   97600     241.6673   -256.33977    204420.41   -23150.085    1754.0871   -24904.173   -369.49546    690.65307     95.06619    14.483432    27.795028 
   97800    241.46046   -438.34552    204420.41   -23183.971    1752.5858   -24936.556   -1023.4346    691.86629    95.066043    14.481209    27.799335 
   98000    234.83682   -508.17154    204420.41   -23213.015    1704.5097   -24917.525    -1274.948    694.59532    95.066354    14.480314    27.794442 
   98200    237.93878   -311.53122    204420.41   -23268.415    1727.0245    -24995.44   -597.80441    693.93987    95.065365    14.478649    27.791217 
   98400    241.23802   -588.21355    204420.41    -23184.15    1750.9713   -24935.121   -1495.9147    695.67261    95.064795    14.479889    27.784015 
   98600    241.03984   -324.57032    204420.41   -23228.543    1749.5328   -24978.075   -620.44421    694.85841    95.064773      14.4766    27.775243 
   98800    238.67352   -523.35848    204420.41   -23213.014    1732.3574   -24945.372   -1310.0548    696.56527    95.064758    14.474249     27.78166 
   99000    236.66685   -385.83311    204420.41    -23271.63    1717.7925   -24989.422   -784.35284    694.75716    95.064264    14.473494    27.770153 
   99200    241.53788   -395.94969    204420.41   -23189.138    1753.1478   -24942.286   -871.78759    694.76827    95.062621    14.473834    27.757329 
   99400    241.09485   -335.89083    204420.41   -23174.808    1749.9321    -24924.74   -629.01867    696.44416    95.061895    14.473922    27.772163 
   99600    241.69689   -275.41889    204420.41   -23191.808    1754.3019    -24946.11   -456.17692    699.71546    95.064713    14.474948    27.775012 
   99800    235.72084   -590.87333    204420.41   -23235.703    1710.9261   -24946.629   -1526.7259    702.70749    95.065958    14.475727    27.783613 
  100000    245.67324   -240.26251    204420.41   -23273.474    1783.1633   -25056.637   -319.35836    705.63096    95.065651    14.476075    27.771647 
  100200    238.73295   -234.21114    204420.41   -23308.254    1732.7888   -25041.043   -293.34392    707.30998    95.063959    14.478343    27.767996 
  100400     233.2689   -333.27697    204420.41   -23209.071    1693.1292     -24902.2   -624.81587    705.77015    95.063759    14.478058    27.783924 
  100600    240.81966   -190.33235    204420.41   -23196.293    1747.9347   -24944.228   -131.40303    703.48404    95.063598     14.47646    27.801304 
  100800    233.62183   -439.42782    204420.41   -23242.002    1695.6909   -24937.693   -1019.7716    701.15086    95.063973    14.477585     27.78762 
[...]
 5175800    222.64685   -491.24718    204420.41   -25645.591    1616.0315   -27261.623   -1166.3691     6532.079    93.700445     12.64402    27.729702 
 5176000    222.10249   -357.24099    204420.41   -25674.309    1612.0804   -27286.389   -728.60055    6527.5538    93.700472    12.644246     27.72866 
 5176200     221.5884   -525.41544    204420.41    -25691.16     1608.349   -27299.509   -1261.1589    6534.5248    93.700351    12.644824    27.735886 
 5176400     227.8084   -315.01507    204420.41   -25626.824    1653.4954   -27280.319   -575.87797    6522.0578     93.70039    12.644631    27.736746 
 5176600    231.51577   -492.67333    204420.41     -25555.6    1680.4046   -27236.004   -1189.6185    6527.0742    93.700293    12.645023    27.737989 
 5176800    229.45072   -523.83629    204420.41   -25602.839    1665.4159   -27268.255   -1292.2535    6532.2574    93.700262    12.644656    27.737226 
 5177000    228.42513   -329.37485    204420.41   -25592.665    1657.9718   -27250.636   -678.72347    6529.1182    93.699453    12.646759    27.743642 
 5177200    234.61997   -541.16625    204420.41   -25552.647    1702.9357   -27255.583   -1329.4638    6536.6601     93.69893    12.647019     27.74553 
 5177400    239.94838    -325.7593    204420.41   -25520.694    1741.6107   -27262.304   -619.63781    6523.2108    93.698396    12.647482    27.743363 
 5177600    226.51456   -523.10759    204420.41   -25619.335    1644.1044   -27263.439   -1282.2419    6529.8724    93.697999    12.647704    27.729717 
 5177800    226.79631   -414.92112    204420.41   -25648.126    1646.1494   -27294.276   -934.69781    6527.7944    93.697611    12.649298    27.729348 
 5178000    225.25345   -484.13737    204420.41    -25640.83    1634.9509   -27275.781   -1140.4493    6534.0912    93.697195    12.650135    27.734865 
 5178200    227.68062   -442.34257    204420.41   -25636.532     1652.568     -27289.1   -969.57388    6532.0798     93.69711     12.64993    27.740615 
 5178400     226.3805   -392.69057    204420.41   -25646.451    1643.1313   -27289.582   -797.91377    6524.6125    93.696695    12.650517    27.739337 
 5178600    231.20113   -441.71508    204420.41   -25614.352    1678.1208   -27292.473   -1006.1653    6526.9633    93.697326    12.650896    27.734653 
 5178800    229.33614   -383.17683    204420.41    -25622.35    1664.5842   -27286.934   -820.86484    6528.9773    93.696965    12.650913    27.731601 
 5179000    224.02463    -474.5989    204420.41   -25647.076    1626.0318   -27273.108   -1086.6228    6534.3464    93.697371    12.651112    27.736048 
 5179200    225.58993   -389.63891    204420.41     -25652.3    1637.3932   -27289.693   -815.09333    6528.5561    93.697661    12.651554    27.725743 
 5179400    227.94911   -541.38338    204420.41   -25584.309    1654.5167   -27238.826    -1336.223    6529.2773    93.698477    12.651134    27.729196 
 5179600    223.90962   -404.10656    204420.41    -25646.59    1625.1971   -27271.787   -859.65619    6525.3943    93.698745    12.652401    27.727118 
 5179800    226.08527   -407.47074    204420.41   -25635.651    1640.9885    -27276.64   -863.65339    6531.0147    93.698602    12.652793    27.743303 
 5180000    219.33921   -484.07453    204420.41   -25727.789    1592.0237   -27319.813   -1147.1126    6531.9214    93.698378    12.653027    27.738018 
 5180200    223.86968     -370.519    204420.41   -25703.193    1624.9071     -27328.1   -735.75071    6526.0029    93.697622    12.653625    27.734445 
 5180400    227.78555   -493.47204    204420.41   -25625.104    1653.3296   -27278.434   -1161.7765    6525.5494    93.698002     12.65354    27.740644 
 5180600    227.95698   -362.79132    204420.41   -25624.352    1654.5739   -27278.926   -714.73536    6525.0313    93.698741    12.653743    27.738348 
 5180800    220.78637   -564.08098    204420.41   -25651.228    1602.5276   -27253.756   -1427.9701    6532.8095    93.699427     12.65374    27.731956 
 5181000    222.78431   -361.65839    204420.41   -25697.812    1617.0293   -27314.842    -753.7108    6526.1564    93.698592    12.654172    27.734379 
 5181200    229.34088   -436.79804    204420.41   -25675.806    1664.6186   -27340.425   -996.20975    6529.5238    93.698247    12.654655    27.732849 
 5181400    229.20222   -396.46512    204420.41   -25579.782    1663.6121   -27243.394   -822.87289    6523.9931    93.699306    12.655684    27.737309 
 5181600    221.33586   -405.26087    204420.41   -25704.006     1606.516   -27310.522   -868.83878    6528.3462     93.69939    12.654579    27.730388 
 5181800    229.39449   -440.39637    204420.41   -25596.128    1665.0077   -27261.136   -967.23195    6533.4965    93.699188    12.655171    27.731833 
 5182000    226.32146   -326.04813    204420.41   -25623.508    1642.7028   -27266.211   -607.27812    6525.9322    93.698118    12.656211    27.733444 
 5182200    231.65467   -602.89794    204420.41   -25581.186    1681.4127   -27262.599    -1592.391    6529.3244    93.699163    12.654651    27.728019 
 5182400    222.93061   -452.73155    204420.41   -25664.433    1618.0911   -27282.524   -1026.9816     6523.157    93.698581    12.653565    27.715973 
 5182600    226.22206   -542.95587    204420.41   -25629.321    1641.9813   -27271.302   -1321.7135    6535.1271    93.697123    12.653946    27.727685 
 5182800    228.27016   -376.15117    204420.41   -25603.215     1656.847   -27260.062   -769.80789    6531.2364    93.696396    12.654135    27.721085 
 5183000    232.02228   -522.18022    204420.41   -25578.795    1684.0809   -27262.876   -1259.7265    6534.8847    93.696161    12.654745    27.718413 
 5183200    231.79653   -322.14715    204420.41     -25595.9    1682.4424   -27278.343   -566.64137    6523.7403     93.69719     12.65427    27.725943 
 5183400    221.78241   -470.37432    204420.41   -25719.972    1609.7572   -27329.729   -1063.3331    6526.6252    93.697506    12.653195    27.720976 
 5183600    227.64273   -479.40201    204420.41   -25694.286     1652.293   -27346.579   -1116.8381    6532.5195    93.696379    12.652744    27.718103 
 5183800    228.48837   -274.04333    204420.41   -25671.998    1658.4309   -27330.429   -384.29037    6529.3314    93.695953    12.653495    27.728994 
 5184000    223.57562   -605.16762    204420.41   -25579.167    1622.7727   -27201.939   -1583.5367    6533.9473    93.695424    12.652562    27.718507 
 5184200    229.44713   -296.15405    204420.41   -25606.403    1665.3898   -27271.793   -531.66373    6520.1234     93.69458    12.653392    27.716429 
 5184400     233.6395   -531.92635    204420.41   -25589.059    1695.8192   -27284.879   -1262.6868    6530.6368     93.69418     12.65262    27.710794 
 5184600    227.86257    -301.8426    204420.41   -25638.913    1653.8886   -27292.802   -519.89432    6525.7019    93.693713    12.652482    27.722099 
 5184800    226.34526   -577.22657    204420.41   -25620.507    1642.8756   -27263.383   -1503.4714    6536.0394    93.692953      12.6517    27.722318 
 5185000    232.08947   -362.02264    204420.41   -25617.978    1684.5686   -27302.546   -719.67247    6527.3094    93.692928    12.651183     27.72336 
 5185200    218.78854   -352.56665    204420.41   -25686.135    1588.0269   -27274.162   -712.67199    6523.1469    93.693328    12.650982    27.732693 
 5185400    224.29963   -464.85749    204420.41   -25606.866    1628.0278   -27234.894   -1089.7692    6531.5595    93.694272    12.650971     27.73278 
 5185600    227.53441   -409.50441    204420.41   -25617.263    1651.5068   -27268.769   -914.10944    6531.0269    93.693423    12.649834    27.734441 
 5185800    225.93463   -573.02106    204420.41   -25584.053    1639.8951   -27223.948   -1418.5432    6538.1891     93.69326    12.651366     27.73663 
 5186000    229.42806    -291.9706    204420.41   -25602.599    1665.2513   -27267.851   -505.33201    6520.9816    93.692923    12.651367    27.736035 
 5186200    232.69952   -566.41335    204420.41   -25571.822    1688.9965   -27260.818   -1428.4029    6529.1547    93.692801    12.650973    27.735243 
 5186400    230.33136    -355.5771    204420.41   -25613.876    1671.8078   -27285.683   -684.93472    6524.2273    93.693847    12.650308    27.733283 
 5186600     226.3185   -479.14339    204420.41   -25602.659    1642.6813   -27245.341   -1092.1204    6536.0541    93.694681    12.649858    27.734869 
 5186800    229.81109   -457.40916    204420.41   -25614.859    1668.0315   -27282.891   -1088.9405    6531.0943    93.694083    12.649174    27.734601 
 5187000    234.81278   -448.47606    204420.41   -25592.393    1704.3351   -27296.728   -1012.5569    6526.6613     93.69492    12.649246    27.742502 
 5187200    227.99424   -488.34209    204420.41   -25633.576    1654.8443   -27288.421   -1174.9566     6528.117    93.696385    12.649698    27.736418 
 5187400    224.67833   -371.25368    204420.41   -25666.393    1630.7765   -27297.169   -755.79652    6526.6872    93.696603     12.64876    27.737612 
 5187600    232.70123   -548.82465    204420.41   -25581.218    1689.0089   -27270.227    -1357.492    6538.4841    93.696024    12.649028    27.725345 
 5187800    228.01539   -345.46992    204420.41   -25646.602    1654.9979     -27301.6   -694.71036    6525.8751    93.695368    12.649219    27.734551 
 5188000    233.89845   -384.86566    204420.41   -25579.628    1697.6987   -27277.326   -794.20028    6528.8648    93.695639     12.64814    27.731442 
 5188200    227.33723   -389.35031    204420.41   -25617.235    1650.0756    -27267.31   -854.46147    6524.8695    93.696765    12.647704    27.735322 
 5188400    225.91436   -381.67595    204420.41   -25618.069     1639.748   -27257.817   -792.91451    6529.3196    93.696798    12.646596    27.739413 
 5188600    223.28055   -472.47492    204420.41   -25646.429    1620.6311   -27267.061   -1088.8333    6533.7638     93.69703    12.646964    27.742002 
 5188800    223.28324   -418.82207    204420.41   -25688.379    1620.6506   -27309.029    -945.3709    6525.2437    93.697543    12.646637    27.743487 
 5189000    229.16792   -539.80888    204420.41   -25640.299    1663.3632   -27303.662   -1351.7557    6531.3413    93.697853    12.646923    27.744132 
 5189200    221.79688   -294.83307    204420.41   -25745.149    1609.8622   -27355.011   -492.12848    6523.9655    93.698807    12.647583     27.74479 
 5189400    218.96986   -455.15105    204420.41   -25689.257    1589.3429     -27278.6   -1068.5676     6530.772    93.698791    12.646543    27.743378 
 5189600    223.47424   -427.62869    204420.41   -25610.082    1622.0369   -27232.119   -954.87735    6532.9352    93.698609    12.645574    27.737245 
 5189800    222.17832    -336.9363    204420.41   -25648.512    1612.6308   -27261.142   -606.83701    6528.4808    93.698544    12.645465    27.736337 
 5190000    228.28828    -460.8916    204420.41   -25631.621    1656.9786   -27288.599   -1061.7729    6531.3589    93.698242    12.644736    27.735637 
 5190200    219.20787   -404.27981    204420.41   -25652.613    1591.0704   -27243.684   -868.10915    6525.7029    93.697907    12.644375    27.735995 
 5190400      224.966   -476.75981    204420.41   -25557.865    1632.8645    -27190.73   -1175.3613    6533.8359    93.698204    12.643104    27.733503 
 5190600    229.42923   -381.85299    204420.41   -25635.756    1665.2598   -27301.015   -800.81105     6528.582    93.697528     12.64358    27.744065 
 5190800    230.85248   -489.10742    204420.41   -25604.973    1675.5902   -27280.563   -1199.6459    6530.0735    93.697557    12.643118    27.733109 
 5191000    227.68752    -447.8803    204420.41    -25624.91     1652.618   -27277.528    -1052.796    6527.6916    93.696845    12.643169     27.73722 
 5191200    228.84945   -409.76144    204420.41   -25628.607    1661.0517   -27289.659    -898.8337    6528.1034    93.697072    12.642682    27.739973 
 5191400    225.30598    -460.2585    204420.41   -25615.663    1635.3322   -27250.996   -1092.7174    6531.4568    93.696556    12.642735    27.732954 
 5191600     225.4196   -358.72512    204420.41   -25634.604    1636.1569   -27270.761   -703.88719    6526.9856    93.695982    12.642243    27.741766 
 5191800    226.40405   -539.48909    204420.41   -25568.193    1643.3023   -27211.495   -1363.8644    6533.0218    93.694945    12.641231    27.732211 
 5192000    228.33385   -429.18397    204420.41   -25554.649    1657.3093   -27211.959   -974.39857    6527.5041    93.694767    12.641084    27.734849 
 5192200    222.22115   -438.91124    204420.41   -25622.127    1612.9416   -27235.069   -983.38907     6527.973    93.694854    12.640741    27.736937 
 5192400    227.91854   -361.27141    204420.41   -25628.061    1654.2948   -27282.356   -720.08393    6530.2221    93.695394    12.640097    27.726021 
 5192600    224.90144   -401.19194    204420.41   -25660.877    1632.3959   -27293.273   -876.08759    6530.3666     93.69511    12.640116    27.725851 
 5192800    230.13942   -434.70054    204420.41   -25612.116    1670.4146    -27282.53   -963.96388    6531.6706    93.695432    12.640725    27.733612 
 5193000    228.03524   -311.34231    204420.41   -25684.141    1655.1419   -27339.283   -562.98057    6528.0284    93.694886    12.639919    27.740959 
 5193200    229.49134   -384.25713    204420.41   -25622.769    1665.7107    -27288.48   -781.74738    6528.4302    93.695082    12.638671    27.731107 
 5193400    226.37091   -495.27541    204420.41   -25607.977    1643.0617   -27251.038   -1184.6478    6532.8197     93.69635    12.637066    27.733164 
 5193600     231.1145   -319.27252    204420.41   -25599.026     1677.492   -27276.518   -574.53399    6529.8935    93.695446     12.63614    27.730651 
 5193800    222.48284   -544.15107    204420.41   -25621.759    1614.8411     -27236.6   -1343.7417    6537.4438    93.696101     12.63448    27.732131 
 5194000    216.30955   -199.12185    204420.41   -25736.933    1570.0337   -27306.966   -137.07974    6520.5406     93.69633    12.632717    27.736329 
 5194200    222.05559   -555.32955    204420.41   -25675.211      1611.74   -27286.951   -1415.3456    6529.4198    93.697301    12.632048    27.741787 
 5194400    226.66456   -310.73608    204420.41   -25616.162    1645.1931   -27261.355   -564.08237    6525.1682    93.698178    12.631291    27.738688 
 5194600    232.29334   -456.32867    204420.41   -25578.078    1686.0483   -27264.127   -1013.5222    6536.3364     93.69689    12.630227    27.726206 
 5194800    232.43889   -471.47092    204420.41   -25602.976    1687.1048   -27290.081   -1110.4406    6530.9223    93.696225     12.63015    27.739041 
 5195000    224.57213   -314.36907    204420.41   -25626.408    1630.0057   -27256.413   -601.21672    6523.8338    93.696459    12.629802    27.723762 
 5195200     229.2999   -499.03804    204420.41   -25611.414    1664.3212   -27275.735   -1179.1222    6534.2145    93.697408    12.630904    27.724915 
 5195400    229.32065   -243.10842    204420.41   -25620.102    1664.4718   -27284.574   -304.25471    6526.0284    93.698209    12.630125    27.731923 
 5195600    224.33933   -583.17189    204420.41     -25649.9     1628.316   -27278.216   -1495.0356    6531.7339    93.698086    12.630764    27.727932 
 5195800     231.5134   -496.97897    204420.41   -25548.005    1680.3873   -27228.393   -1246.5209    6526.5672    93.698815    12.631024    27.736564 
 5196000    225.89384     -464.764    204420.41   -25625.071     1639.599    -27264.67   -1084.8464    6527.4529    93.698686    12.631855    27.728915 
 5196200    226.25417   -372.08626    204420.41   -25626.429    1642.2144   -27268.643   -765.93723    6529.5458    93.699007    12.632687    27.730622 
 5196400    223.92122   -393.46831    204420.41   -25613.219    1625.2812   -27238.501   -854.19284    6533.8123    93.698637    12.633248     27.73093 
 5196600    234.04267   -375.33733    204420.41   -25599.963    1698.7455   -27298.708   -774.28431    6532.7173    93.698886    12.633614    27.723874 
 5196800    226.15403   -273.13359    204420.41   -25595.251    1641.4876   -27236.739    -413.2715    6525.1527    93.698199    12.632874    27.730082 
 5197000    234.36096   -437.52455    204420.41   -25546.268    1701.0557   -27247.324   -996.87034    6528.1576    93.698826    12.633485     27.72849 
 5197200    222.02391   -392.80077    204420.41    -25622.52      1611.51    -27234.03   -863.71676    6528.5837    93.698863    12.633409    27.716853 
 5197400    217.09922   -534.41525    204420.41   -25620.806    1575.7653   -27196.571   -1366.9628    6531.0026    93.698711    12.634093    27.716407 
 5197600    223.88051   -393.70861    204420.41   -25657.447    1624.9858   -27282.433   -827.25072    6529.0101    93.698303    12.634302    27.724891 
 5197800    220.07544   -405.84891    204420.41   -25686.246    1597.3675   -27283.613   -923.33875    6526.3059    93.698287    12.634216    27.727008 
 5198000    230.58673   -423.50974    204420.41   -25565.908    1673.6613   -27239.569   -914.46008    6525.7161     93.69794     12.63472    27.734183 
 5198200    229.16318   -404.04714    204420.41   -25581.867    1663.3288   -27245.195   -887.03351     6528.375    93.697871    12.634438    27.726193 
 5198400    226.19127   -336.00964    204420.41   -25648.588    1641.7579   -27290.346   -604.39108    6528.4877    93.698027    12.634764    27.724556 
 5198600    226.20763   -450.83695    204420.41   -25692.542    1641.8766   -27334.418   -1051.1033    6525.5156    93.697905     12.63526    27.732437 
 5198800    225.49797   -362.35593    204420.41   -25607.725    1636.7257    -27244.45   -715.57227    6526.9621    93.698578    12.636263    27.729166 
 5199000    228.94037   -403.16302    204420.41   -25553.313    1661.7116   -27215.025   -905.25495    6526.1524    93.698733    12.637378    27.728218 
 5199200    231.05296   -390.90375    204420.41   -25616.089    1677.0453   -27293.134   -845.84424    6528.5383    93.699772    12.636753    27.731647 
 5199400    233.01827   -461.13195    204420.41   -25608.797    1691.3101   -27300.107   -1092.8254    6528.9972    93.699751    12.636768     27.73367 
 5199600    228.63983   -427.65991    204420.41   -25592.397    1659.5302   -27251.927    -964.9456    6526.5082    93.699959    12.637078    27.739344 
 5199800    225.15229   -532.26303    204420.41   -25609.562    1634.2167   -27243.778   -1381.2608    6528.8009    93.699653    12.636014      27.7314 
 5200000     227.7146   -311.78955    204420.41   -25562.793    1652.8146   -27215.607   -549.24517    6525.4268    93.699112    12.636461    27.735848 
Loop time of 7798.53 on 120 procs for 5200000 steps with 8482 atoms

Performance: 576.108 ns/day, 0.042 hours/ns, 666.792 timesteps/s
98.0% CPU use with 120 MPI tasks x no OpenMP threads

MPI task timing breakdown:
Section |  min time  |  avg time  |  max time  |%varavg| %total
---------------------------------------------------------------
Pair    | 0.25214    | 2079.7     | 6378.1     |5232.3 | 26.67
Neigh   | 0.33548    | 121.32     | 469.91     |1306.0 |  1.56
Comm    | 9.2904     | 2174.3     | 6260.9     |4866.0 | 27.88
Output  | 98.637     | 98.739     | 100.84     |   2.0 |  1.27
Modify  | 321.06     | 3269.1     | 7637.8     |5561.0 | 41.92
Other   |            | 55.32      |            |       |  0.71

Nlocal:    70.6833 ave 226 max 0 min
Histogram: 47 1 42 0 0 0 0 0 12 18
Nghost:    607.283 ave 969 max 0 min
Histogram: 12 4 0 2 12 24 18 8 23 17
Neighs:    0 ave 0 max 0 min
Histogram: 120 0 0 0 0 0 0 0 0 0
FullNghs:  7036.27 ave 28349 max 0 min
Histogram: 69 21 0 0 0 0 0 5 13 12

Total # of neighbors = 844352
Ave neighs/atom = 99.5463
Neighbor list builds = 548657
Dangerous builds = 0
write_data 		${DIR}/data.${NAME}_run
write_data 		run_23/data.${NAME}_run
write_data 		run_23/data.ibeam_cooling_23_run
Total wall time: 2:10:15
