
# Set production fixes - Nose/Hoover
#
fix                 4 water temp/csvr ${START_TEMP} ${END_TEMP} 500.0 928347
fix                 4 water temp/csvr 240 ${END_TEMP} 500.0 928347
fix                 4 water temp/csvr 240 227 500.0 928347


## divide "droplet" into core and surface
#region		core_reg cylinder z 135 135 44.6 20 INF units box
#region		surface_reg cylinder z 135 135 44.6 20 INF units box side out
#group		core dynamic all region core_reg
#group		surface dynamic all region surface_reg

## compute pressure core
#compute        peratom_core core stress/atom NULL
#compute        p_core core reduce sum c_peratom_core[1] c_peratom_core[2] c_peratom_core[3]
#variable       press_core equal -(c_p_core[1]+c_p_core[2]+c_p_core[3])/(3*1249982.5)


## compute pressure surface
#compute        peratom_surf surface stress/atom NULL
#compute        p_surf surface reduce sum c_peratom_surf[1] c_peratom_surf[2] #c_peratom_surf[3]
#variable       press_surf equal -(c_p_surf[1]+c_p_surf[2]+c_p_surf[3])/(3*33365)

## compute total pressure of drop
compute        peratom water stress/atom NULL
compute        p water reduce sum c_peratom[1] c_peratom[2] c_peratom[3]
variable       press equal -(c_p[1]+c_p[2]+c_p[3])/(3*50320)


# compute order parameter
compute        3 all orientorder/atom nnn NULL cutoff 3.5

# compute center of mass of bridge
compute 	4 water com

# Run simulation
thermo_style        custom step c_2 press vol etotal ke pe v_press c_1[4] c_4[*]
thermo              200
dump		     1 water custom 400 ${DIR}/prod.${NAME}.dump id type x y z vx vy vz c_3[*] c_peratom[*]
dump		     1 water custom 400 run_6/prod.${NAME}.dump id type x y z vx vy vz c_3[*] c_peratom[*]
dump		     1 water custom 400 run_6/prod.ibeam_cooling_6.dump id type x y z vx vy vz c_3[*] c_peratom[*]
run                 ${STEPS}
run                 5200000
Neighbor list info ...
  update every 1 steps, delay 0 steps, check yes
  max neighbors/atom: 2000, page size: 100000
  master list distance cutoff = 6.67472
  ghost atom cutoff = 6.67472
  binsize = 3.33736, bins = 48 13 9
  2 neighbor lists, perpetual/occasional/extra = 1 1 0
  (1) pair sw, perpetual
      attributes: full, newton on
      pair build: full/bin/atomonly
      stencil: full/bin/3d
      bin: standard
  (2) compute orientorder/atom, occasional, copy from (1)
      attributes: full, newton on
      pair build: copy
      stencil: none
      bin: none
Per MPI rank memory allocation (min/avg/max) = 6.177 | 6.737 | 7.299 Mbytes
Step c_2 Press Volume TotEng KinEng PotEng v_press c_1[4] c_4[1] c_4[2] c_4[3] 
       0     237.1416    -108.5623    181563.75    -13319.51    975.48621   -14294.996    212.04777    30.478669    78.714608    25.139199    16.450877 
     200    239.55734     -387.153    181563.75   -13326.484     985.4234   -14311.908   -849.74092     31.64817    78.705602     25.14233      16.4417 
     400    237.60407   -447.57688    181563.75    -13344.85    977.38859   -14322.238   -1084.4607     32.67812    78.700151    25.145085    16.433378 
     600     231.0901   -307.32718    181563.75   -13396.567    950.59325   -14347.161   -509.76315    34.223124    78.698636    25.147721    16.426465 
     800    232.85735   -543.41826    181563.75   -13418.098    957.86288   -14375.961   -1313.6848    35.469209    78.698442    25.151268    16.421474 
    1000    236.59597   -450.83761    181563.75   -13317.607    973.24176   -14290.849   -1040.7211    36.473577    78.696096    25.152431    16.412419 
    1200    233.10267   -390.30234    181563.75   -13389.665    958.87202   -14348.537   -775.66302    37.075414    78.693725    25.150394    16.405934 
    1400    252.28566   -436.03853    181563.75   -13262.829    1037.7816   -14300.611   -954.70487    36.910937    78.695124    25.146307      16.4156 
    1600     251.1964   -374.48396    181563.75   -13293.185    1033.3009   -14326.486   -802.04037    38.356074    78.699278    25.147262    16.438809 
    1800    240.54737   -340.44116    181563.75   -13306.193    989.49589   -14295.689   -603.19132    39.381023    78.700807     25.14808    16.445475 
    2000    256.63903   -371.65361    181563.75   -13235.224    1055.6892   -14290.913    -734.0928    40.064846     78.69994    25.149507    16.447983 
    2200     249.7136   -423.38209    181563.75   -13271.305    1027.2014   -14298.506   -879.40196    41.629206    78.696036    25.152643    16.427109 
    2400    241.80942   -396.81655    181563.75   -13302.174    994.68737   -14296.862   -874.23564    42.487895    78.694755    25.152633    16.423535 
    2600    243.80443   -360.74183    181563.75   -13336.904    1002.8939   -14339.798   -718.23295     43.73713    78.695581    25.154382    16.396294 
    2800    236.24304   -579.22243    181563.75   -13328.103    971.78997   -14299.893   -1509.7008    44.768331    78.696581    25.156953    16.383067 
    3000    230.75879   -294.43473    181563.75   -13388.274    949.23042   -14337.504    -481.7897    46.232445     78.69725    25.157031    16.384284 
    3200    236.29089   -252.62985    181563.75   -13393.616    971.98682   -14365.603   -306.29374    45.892624    78.693786    25.156648     16.39397 
    3400    238.42853   -478.65467    181563.75   -13358.882    980.78003   -14339.662   -1138.3686    46.250624    78.697503    25.148718    16.401311 
    3600    244.43445   -149.33832    181563.75   -13314.437    1005.4855   -14319.922    108.17136    46.576237    78.700512    25.148657    16.428056 
    3800    243.19988   -471.12654    181563.75   -13320.897    1000.4071   -14321.304   -1111.5171    47.944551    78.703016     25.15207    16.405854 
    4000     239.7015   -282.19753    181563.75   -13326.555     986.0164   -14312.571   -428.38378     48.41004    78.703723    25.147332    16.390855 
    4200     246.0614   -307.05879    181563.75   -13243.879     1012.178   -14256.057   -548.44276    49.957084    78.703004    25.152535    16.376441 
    4400    244.69603   -334.93449    181563.75   -13225.521    1006.5615   -14232.083   -673.01324    52.192184    78.701188    25.151001    16.373575 
    4600    230.59281   -321.71851    181563.75   -13300.309    948.54764   -14248.857   -581.71101    53.981477    78.698325    25.149085    16.389151 
    4800    240.08751   -277.69571    181563.75   -13289.682    987.60427   -14277.286   -458.25122    55.414587    78.695458    25.148448    16.400554 
    5000    243.81937   -310.69335    181563.75   -13348.657    1002.9553   -14351.613   -573.75171    56.108579    78.689999     25.14766    16.386792 
    5200    248.13901   -302.47975    181563.75   -13334.311    1020.7243   -14355.035   -507.97354    57.547196    78.688272    25.151279    16.390362 
    5400    240.15289   -351.24382    181563.75   -13340.802    987.87321   -14328.675   -652.42491    57.464571     78.68812    25.157569    16.408694 
    5600    233.60578   -288.99924    181563.75   -13378.462    960.94155   -14339.403   -442.76246    58.628874     78.69145    25.159761     16.39899 
    5800     243.8246   -358.44855    181563.75   -13247.957    1002.9768   -14250.934   -716.86049    60.916937    78.693635    25.164736    16.380951 
    6000    229.22893   -395.50345    181563.75   -13392.439    942.93731   -14335.376   -829.29436    63.587762    78.695593     25.16742    16.380155 
    6200    243.78183    -138.9036    181563.75   -13297.752    1002.8009   -14300.553    17.630773    64.052244    78.697883    25.167366    16.356392 
    6400    242.43509   -605.19708    181563.75    -13270.08    997.26107   -14267.341   -1589.1765    64.700553    78.702676    25.170789    16.354889 
    6600    238.53641   -247.17433    181563.75   -13340.451    981.22378   -14321.675    -303.2404    65.414433    78.704148    25.172549    16.367069 
    6800    232.28594   -437.97774    181563.75   -13352.033    955.51237   -14307.545   -1036.0707    66.998743    78.701348    25.168854    16.355816 
    7000     239.0569   -566.23416    181563.75   -13390.015    983.36483    -14373.38   -1484.2168    67.056699     78.69736    25.163253     16.37248 
    7200     239.5913   -311.43771    181563.75   -13323.789    985.56308   -14309.352   -565.86256    67.209967     78.69522    25.159283    16.372876 
    7400    237.71947   -315.16238    181563.75   -13356.072    977.86331   -14333.935   -529.10673     67.79527     78.69336    25.155979    16.364916 
    7600    231.94724   -335.29123    181563.75   -13362.774    954.11912   -14316.893   -605.89624    68.373266    78.694703    25.153563    16.374565 
    7800    243.44445   -468.11813    181563.75   -13294.324    1001.4131   -14295.737   -1084.4318    70.048077    78.694127    25.155203    16.378067 
    8000    235.09999   -626.97306    181563.75   -13301.553    967.08799   -14268.641    -1665.758    70.750858    78.692743    25.153149    16.381277 
    8200    231.95493   -310.55944    181563.75   -13344.198    954.15074   -14298.349   -519.75932    72.376074    78.687639    25.156556    16.382442 
    8400    238.58971   -274.14436    181563.75    -13334.19    981.44305   -14315.633    -396.2893    74.280519    78.687826    25.160957    16.416303 
    8600    234.97768   -407.03596    181563.75   -13242.892    966.58489   -14209.477   -895.79436    75.616354    78.687695    25.163086     16.42944 
    8800    245.59855   -228.61134    181563.75   -13258.368     1010.274   -14268.642   -259.58466    76.373004    78.685801    25.164482    16.420161 
    9000    234.94576   -313.15613    181563.75   -13233.166     966.4536    -14199.62   -541.97469    76.848275    78.688216    25.163866    16.425494 
    9200    241.50772   -363.70366    181563.75    -13289.78    993.44633   -14283.226   -714.30631    79.573882     78.68752    25.160252    16.412332 
    9400    248.63907   -349.67668    181563.75    -13301.44    1022.7813   -14324.222   -653.27256    80.847646    78.688159    25.163251    16.412316 
    9600     228.1063   -524.71524    181563.75   -13376.425    938.31933   -14314.744   -1336.5366     81.59021    78.686604    25.165378    16.437745 
    9800    242.03986   -429.48633    181563.75   -13341.887    995.63529   -14337.523   -935.57869    83.055715    78.685606    25.167535    16.424951 
   10000    244.19244   -394.25665    181563.75   -13220.861      1004.49   -14225.351   -849.46644    84.643317    78.684228    25.168271     16.42188 
   10200    242.56546   -408.75396    181563.75   -13256.261    997.79734   -14254.059   -875.72969    85.913998    78.681059     25.17117     16.41653 
   10400    245.76991   -480.62059    181563.75   -13280.518    1010.9789   -14291.497   -1126.1708    86.985263    78.678602    25.174224     16.43289 
   10600    244.03603    -320.7579    181563.75   -13259.262    1003.8466   -14263.109   -602.26419    87.486086     78.67913    25.175139     16.41805 
   10800    232.06692   -318.63913    181563.75   -13271.106    954.61141   -14225.718   -565.63579    89.739045    78.675487    25.175417     16.39733 
   11000    235.23048   -319.56312    181563.75   -13250.682     967.6248   -14218.307     -539.259     92.10626    78.673943    25.174971    16.374687 
   11200     234.7276   -380.55216    181563.75   -13265.899    965.55616   -14231.455     -770.689    93.769275    78.674395    25.175787    16.376676 
   11400     244.6036   -353.68214    181563.75    -13238.94    1006.1813   -14245.121   -713.62788    95.658164    78.674374    25.179858    16.370648 
   11600    246.37227   -396.37423    181563.75   -13240.007    1013.4568   -14253.463   -843.01622    96.330387    78.677077     25.18117    16.401014 
   11800    240.93628   -371.89873    181563.75   -13252.778    991.09569   -14243.874   -720.13162    97.836796    78.678639    25.187301    16.402679 
   12000    243.03536   -364.93965    181563.75   -13204.528    999.73032   -14204.258   -741.30665    98.798841    78.677881     25.18936    16.400714 
   12200    240.45866    -451.4854    181563.75    -13236.81    989.13102   -14225.941    -1041.996    99.986888    78.674713    25.189975    16.399129 
   12400    249.00476   -299.60686    181563.75   -13190.348    1024.2855   -14214.634   -468.09003    101.61633    78.673599    25.188723     16.41216 
   12600    245.64851   -408.86841    181563.75   -13157.382    1010.4795   -14167.861   -875.47238    102.73132    78.675089    25.187907    16.413485 
   12800    239.66232   -323.04456    181563.75   -13288.346    985.85522   -14274.201    -595.6471    105.81329     78.67479    25.186533    16.393555 
   13000     230.6004   -252.54083    181563.75   -13318.526    948.57886   -14267.104   -364.65928    107.82576    78.669554    25.183894    16.413607 
   13200     234.4248   -349.35224    181563.75   -13264.852    964.31058   -14229.162   -649.42502    109.02008    78.670255    25.179726     16.44006 
   13400    243.96571   -445.76815    181563.75   -13228.857    1003.5573   -14232.415   -1025.8612    111.27423    78.673077    25.176028    16.423133 
   13600    244.50046   -277.54157    181563.75   -13227.649     1005.757   -14233.406   -438.43444    111.51303    78.676291    25.177395    16.419734 
   13800    233.36012   -466.84586    181563.75    -13289.55    959.93103   -14249.481   -1075.4577    112.09136    78.682211    25.178365    16.451785 
   14000    244.28921   -340.21233    181563.75   -13276.679     1004.888   -14281.567   -581.79516      112.324    78.685424    25.179563    16.450607 
   14200    244.14017   -214.74489    181563.75   -13340.526     1004.275   -14344.801   -207.98161    113.05332    78.684837    25.178639    16.452377 
   14400    225.37057   -499.45967    181563.75   -13377.819    927.06587   -14304.884   -1215.1758      116.135    78.680874    25.180522     16.43841 
   14600    230.15752   -294.66934    181563.75   -13341.468    946.75707   -14288.225   -496.36142    115.83763    78.681732    25.179595    16.432161 
   14800    234.65253    -270.3806    181563.75   -13301.749    965.24739   -14266.997   -435.21253    118.64345    78.683039    25.179564    16.427854 
   15000    231.39185   -386.36723    181563.75   -13301.451    951.83451   -14253.286   -793.31004    120.16451    78.684694    25.174433    16.417147 
   15200    232.70687   -517.66033    181563.75   -13340.524    957.24385   -14297.768   -1263.9012    121.72461    78.685011    25.174614    16.391677 
   15400    240.11415   -290.95143    181563.75   -13268.585    987.71385   -14256.299   -501.91557    122.26833    78.684075    25.174257    16.401098 
   15600    234.02947   -294.52488    181563.75   -13318.675     962.6844   -14281.359   -521.29683    123.11667    78.681222    25.173929    16.407252 
   15800    240.22682   -577.03847    181563.75   -13257.834     988.1773   -14246.012   -1516.0236    126.55759    78.681398    25.170945     16.40822 
   16000    235.23399   -364.72537    181563.75   -13321.661     967.6392     -14289.3   -714.98541    128.18536    78.683122    25.169946    16.414911 
   16200    244.30204   -301.64725    181563.75   -13257.327    1004.9408   -14262.268   -514.23292    128.25258    78.684346    25.167614    16.405047 
   16400    243.97518   -293.78842    181563.75   -13228.351    1003.5963   -14231.947   -537.29431     130.1001    78.685078    25.162589    16.399597 
   16600    241.06376   -420.74889    181563.75   -13282.298    991.62006   -14273.919   -906.50958    132.47404    78.686143    25.160625    16.419346 
   16800    239.14688   -446.18314    181563.75   -13273.826    983.73496   -14257.561   -1046.8299    133.65155    78.691876    25.163114    16.381288 
   17000    239.91946   -285.59305    181563.75   -13293.801      986.913   -14280.714   -464.27605    137.06332    78.691482    25.161103    16.378962 
   17200    241.00485   -245.97351    181563.75   -13303.103    991.37776   -14294.481   -310.26205    139.53248    78.690623    25.159743    16.385449 
   17400    237.33915   -374.99781    181563.75    -13305.38    976.29882   -14281.678   -742.20708    140.50712    78.689881       25.161    16.387939 
   17600     246.1006   -323.39876    181563.75   -13251.471    1012.3392    -14263.81   -571.11352    141.47925    78.687338    25.164048    16.408792 
   17800    239.91183   -377.85838    181563.75   -13258.115    986.88161   -14244.997   -811.20273    141.58071    78.687278    25.162194    16.407595 
   18000    243.47835   -528.84865    181563.75    -13260.11    1001.5526   -14261.663   -1359.8661    142.15872     78.68623    25.160578    16.406134 
   18200    242.42429   -341.85836    181563.75   -13255.133    997.21663   -14252.349   -628.40364    143.19181    78.682882    25.160002    16.422533 
   18400    239.25076   -351.55873    181563.75   -13275.512    984.16226   -14259.675   -708.96139    143.78368    78.680801    25.163505    16.406523 
   18600    249.40505   -540.88216    181563.75   -13251.223    1025.9321   -14277.155   -1352.7066    145.11213    78.680457    25.171302    16.412137 
   18800    246.05191   -191.89173    181563.75    -13277.69    1012.1389   -14289.829   -101.54975    144.74272    78.682072    25.179335    16.413613 
   19000    248.02377   -293.89249    181563.75   -13287.022    1020.2502   -14307.272    -489.4005     143.7594    78.681434    25.180428    16.424874 
   19200    246.64328   -396.95871    181563.75   -13261.664    1014.5716   -14276.235   -829.57461     143.8297    78.683275    25.178428    16.404145 
   19400    242.79606   -360.85383    181563.75   -13242.927    998.74592   -14241.673   -750.38021    142.83435    78.682233     25.17441    16.387253 
   19600    237.34663   -365.66388    181563.75   -13315.538     976.3296   -14291.868   -757.10152    142.45804    78.683103    25.175996    16.383615 
   19800     242.3406   -147.08158    181563.75   -13316.978    996.87238    -14313.85   -7.7725567    142.96231    78.684222    25.175691    16.365167 
   20000    237.93207   -297.69628    181563.75   -13350.964     978.7378   -14329.702   -472.31985    144.71189    78.686476    25.173402    16.387199 
   20200    234.64424   -369.02437    181563.75   -13331.338    965.21328   -14296.551   -736.60583     145.8491    78.683136    25.173947    16.383653 
   20400     233.5897   -312.72088    181563.75   -13346.667    960.87539   -14307.542   -541.59539    146.94359    78.677473    25.175354    16.379754 
   20600    238.84664   -336.54098    181563.75   -13302.954    982.49991   -14285.454   -627.07696    147.49352    78.679094    25.172821    16.387472 
   20800    234.12356   -342.26477    181563.75   -13316.851    963.07143   -14279.923   -636.29548    149.01997    78.680833     25.16931    16.381495 
   21000     241.5009   -313.57689    181563.75   -13278.826    993.41827   -14272.244   -569.30236    149.34193    78.681557    25.167929    16.375841 
   21200    230.63122       -284.3    181563.75   -13266.985    948.70566    -14215.69    -443.8424    150.43503    78.684575    25.164661    16.418206 
   21400    232.07424   -411.57186    181563.75   -13311.079    954.64155   -14265.721   -914.96963     150.3525    78.683106    25.167263    16.394182 
   21600    235.17843   -484.19224    181563.75   -13252.152    967.41067   -14219.562   -1201.4692     151.9593    78.684033    25.170242     16.36327 
   21800    246.33272   -329.91725    181563.75   -13260.583     1013.294   -14273.877   -637.95382    152.06642    78.684552    25.170638    16.358911 
   22000     244.5397   -269.67468    181563.75   -13286.703    1005.9184   -14292.622     -395.905    152.36195    78.684487     25.16557    16.331301 
   22200    237.61153   -418.20571    181563.75   -13264.501    977.41929    -14241.92   -974.01755    154.41427    78.683831    25.164373    16.361003 
   22400    234.85487    -461.0695    181563.75   -13289.511    966.07971   -14255.591   -1054.3894    156.96178    78.683636    25.165159    16.372098 
   22600    229.77648   -451.84803    181563.75   -13306.822    945.18967   -14252.012   -1019.5957    158.51405    78.680495     25.16719    16.381072 
   22800     246.7981   -474.97347    181563.75   -13258.769    1015.2084   -14273.978   -1151.1606    159.85759    78.684248    25.169445    16.345188 
   23000    239.18308   -371.36596    181563.75   -13258.949    983.88388   -14242.833   -715.55183    162.63278    78.684088    25.170463    16.327427 
   23200    237.62057   -450.78775    181563.75   -13281.778    977.45646   -14259.234   -1065.6005    162.76954    78.681573    25.172215    16.289725 
   23400    242.45724   -487.33873    181563.75   -13244.066    997.35217   -14241.418    -1155.087     162.2093    78.678179    25.174464    16.309356 
   23600    236.57145   -379.82375    181563.75   -13318.789    973.14087    -14291.93   -798.15719    162.38875    78.675585    25.173169    16.321337 
   23800    229.67414   -385.03764    181563.75   -13310.922    944.76866   -14255.691   -757.71868    162.93808    78.673926    25.172487    16.309016 
   24000    246.93663   -272.30914    181563.75   -13242.007    1015.7783   -14257.785   -421.19654    163.73652    78.676819    25.173176    16.320059 
   24200    245.26414   -482.22635    181563.75   -13266.381    1008.8984    -14275.28    -1195.972    164.02956    78.677625    25.172449    16.342613 
   24400    245.07522   -297.64268    181563.75   -13263.396    1008.1213   -14271.517   -516.11571    164.63998    78.675056    25.170651    16.347039 
   24600    238.76349   -251.60221    181563.75   -13276.874    982.15789   -14259.032   -357.52121    166.29811    78.675658    25.168661    16.315172 
   24800     237.6596   -203.36411    181563.75   -13269.895    977.61703   -14247.512    -135.6862    168.02854    78.678545    25.168975    16.319996 
   25000    233.24339   -402.31544    181563.75   -13284.774    959.45086   -14244.225   -899.71791    168.60021    78.681348    25.171425    16.300078 
   25200    238.81623   -386.13099    181563.75   -13254.008    982.37481   -14236.383   -799.78348    168.96164    78.682164    25.170736     16.31168 
   25400    242.22472   -329.07957    181563.75    -13265.17    996.39572   -14261.565   -625.78487    169.88506    78.677046    25.168917    16.291011 
   25600      238.008   -343.91727    181563.75   -13234.193    979.05016   -14213.243   -633.25119    170.89645    78.676569    25.168021    16.274867 
   25800    233.46692   -555.50564    181563.75   -13273.461    960.37035   -14233.832   -1401.9368    171.53339    78.677056    25.168427    16.259517 
   26000    230.81278   -249.40513    181563.75   -13325.327     949.4525    -14274.78    -332.3498    173.01987    78.675538    25.164584    16.289568 
   26200    242.13742   -341.50293    181563.75    -13292.52    996.03662   -14288.557    -633.4427    174.30761    78.677124    25.163933    16.280245 
   26400     237.7339   -446.13885    181563.75   -13341.649    977.92264   -14319.571   -1025.0336    175.63463    78.676327    25.158838    16.267925 
   26600      236.262    -388.1367    181563.75   -13313.428    971.86797   -14285.296   -809.33027    177.72533    78.680899    25.154012    16.247515 
   26800    242.10396   -471.56148    181563.75   -13233.781    995.89897    -14229.68   -1103.8846    178.52709    78.683432    25.160153    16.233104 
   27000    234.67031   -361.92411    181563.75   -13259.058    965.32053   -14224.379   -769.38322    178.79459    78.686096    25.163061    16.218355 
   27200    240.16553   -334.11495    181563.75   -13194.678     987.9252   -14182.603   -644.33671     179.6968    78.685598    25.159564    16.212667 
   27400    242.51051   -424.26557    181563.75   -13176.896    997.57133   -14174.468   -960.90397    181.63881    78.683793    25.161527    16.227076 
   27600    247.87277   -509.94215    181563.75    -13226.37    1019.6291       -14246   -1253.7007    184.20036    78.683595    25.158821    16.255921 
   27800    233.94142   -386.90922    181563.75   -13318.416    962.32222   -14280.738   -838.86015    185.95206    78.686392    25.157548    16.264442 
   28000    238.88111   -276.90934    181563.75   -13260.784    982.64171   -14243.426    -419.8762    187.75325    78.688963    25.158612    16.278108 
   28200    246.05216   -204.46722    181563.75   -13206.106    1012.1399   -14218.246   -181.37402    188.62131    78.689993    25.159934    16.262623 
   28400    237.68082   -378.44375    181563.75   -13213.309     977.7043   -14191.013   -814.31201    190.95443    78.696615    25.161913    16.260784 
   28600    242.24635   -331.94615    181563.75   -13239.653    996.48468   -14236.137   -589.47434    192.36727    78.699326    25.163797    16.258085 
   28800     233.9542   -367.31071    181563.75   -13313.374    962.37477   -14275.749   -783.09098    192.60824    78.696606    25.164083    16.248739 
   29000    244.21919   -443.87663    181563.75   -13312.406       1004.6   -14317.006   -1056.9291    193.80526    78.695204    25.163464    16.278095 
   29200    233.75699   -372.92428    181563.75   -13331.089    961.56357   -14292.653   -774.83759    195.42608    78.693652    25.161225    16.291532 
   29400    229.98547   -325.84542    181563.75   -13335.845    946.04935   -14281.894   -600.85891     197.3958    78.693511    25.159588    16.340068 
   29600    242.50872   -287.67971    181563.75   -13329.413    997.56397   -14326.977   -460.14363    196.26904    78.689526    25.161544    16.336133 
   29800     238.1993   -445.27311    181563.75   -13312.029    979.83709   -14291.866    -1006.878    198.17294    78.684928     25.16248    16.339442 
   30000    239.68612   -336.89975    181563.75   -13313.757    985.95312    -14299.71   -589.48837    197.74399    78.679851    25.162495    16.315987 
   30200    240.28935   -358.99904    181563.75   -13351.472    988.43452   -14339.906   -705.64477     198.0665    78.672699    25.164349    16.298235 
   30400     236.0152   -256.12755    181563.75   -13378.192    970.85275   -14349.045   -299.72063    198.83915    78.671897    25.163775     16.31072 
   30600    239.41778   -400.77047    181563.75   -13378.836     984.8493   -14363.685   -874.96476    200.85821    78.672616    25.170942    16.292885 
   30800    244.85292   -273.05352    181563.75   -13357.073    1007.2068    -14364.28   -398.64857    201.15341    78.672054     25.17563    16.291158 
   31000    237.84578   -474.78771    181563.75   -13331.384    978.38285   -14309.767   -1106.6199    201.78453    78.668611    25.178801    16.296161 
   31200    230.07638   -435.85831    181563.75   -13278.332    946.42332   -14224.755   -976.45026    202.05661    78.664109    25.181335    16.286252 
   31400    233.18627   -294.56494    181563.75    -13311.09     959.2159   -14270.305    -454.7313    203.11018    78.661854    25.179647    16.274725 
   31600    249.95847   -218.88449    181563.75   -13242.083    1028.2086   -14270.291   -193.66154    204.53048    78.661611    25.182034    16.297282 
   31800    240.12968     -277.714    181563.75   -13273.952    987.77774    -14261.73   -402.89621    205.91726    78.662999    25.192201    16.299718 
   32000     245.5369   -448.36713    181563.75   -13264.046    1010.0204   -14274.066   -1034.5188    208.64573    78.664803     25.19348    16.299796 
   32200    240.11146   -310.43217    181563.75   -13313.396     987.7028   -14301.099   -546.91166    208.91325    78.668697    25.191817    16.280662 
   32400    239.77478   -529.66066    181563.75   -13292.558    986.31784   -14278.876   -1327.5686     210.0857     78.67246    25.190979    16.288275 
   32600      245.237    -282.2984    181563.75   -13259.986    1008.7868   -14268.773   -505.43976    210.64182    78.672964    25.185611    16.255417 
   32800    246.81733   -443.66234    181563.75   -13308.022    1015.2875    -14323.31    -1035.792    212.85302    78.676367    25.184379     16.28335 
   33000    244.08428   -176.63707    181563.75   -13293.474    1004.0451   -14297.519   -79.318611    215.11873    78.672998    25.184058    16.288634 
   33200     245.8356   -386.10624    181563.75   -13336.872    1011.2491   -14348.121   -802.88855    216.30111    78.675373    25.178549    16.281502 
   33400    238.03518   -414.67451    181563.75   -13345.281    979.16197   -14324.443   -907.74757    218.16164    78.675715    25.177705    16.324998 
   33600    241.52081   -542.20795    181563.75   -13387.699    993.50017     -14381.2    -1378.571    219.46953    78.669999    25.175796    16.302007 
   33800    236.29218   -482.28368    181563.75   -13335.167    971.99212   -14307.159   -1114.4384    219.34809    78.670062    25.172512    16.319925 
   34000    242.24736    -359.2941    181563.75   -13327.663    996.48884   -14324.152   -693.73742    219.31007    78.668403    25.171485    16.324806 
   34200    246.56501    -207.5168    181563.75    -13348.32    1014.2496    -14362.57   -172.18592    219.16351    78.664865    25.171005    16.349746 
   34400    238.31811   -367.94224    181563.75   -13350.519     980.3258   -14330.844    -732.4844    220.48403    78.665426    25.171756    16.356369 
   34600    241.79379   -280.28563    181563.75   -13306.495    994.62308   -14301.118   -374.21673    223.45011     78.66252    25.176107    16.351579 
   34800    243.23572   -417.96975    181563.75   -13309.525    1000.5545   -14310.079   -886.68347    223.56165    78.664715    25.181366    16.336697 
   35000    231.38732   -287.64838    181563.75    -13300.78    951.81589   -14252.596   -466.12996     224.9188    78.666086    25.187029     16.30798 
   35200    240.58629   -338.00246    181563.75   -13258.749      989.656   -14248.405    -615.7017    227.76316    78.666577     25.19335    16.296904 
   35400    244.17357   -289.63283    181563.75   -13252.253    1004.4123   -14256.665   -475.41305    227.91821    78.664633    25.199528    16.310026 
   35600     233.2326   -309.09825    181563.75    -13325.48    959.40645   -14284.887   -527.21577    229.67735    78.657105    25.200454    16.307703 
   35800    238.52566   -275.01203    181563.75   -13273.576    981.17957   -14254.755   -380.02623      230.303    78.649546    25.197674    16.278675 
   36000    232.64059   -288.01296    181563.75   -13330.479    956.97124    -14287.45   -444.85134    229.87522    78.649315    25.196834    16.284135 
   36200    238.03063   -244.79425    181563.75    -13325.89    979.14324   -14305.033   -247.97473    232.99177    78.648827     25.19754    16.303263 
   36400    235.84187   -326.76595    181563.75   -13238.388    970.13974   -14208.528    -578.5143    234.19212    78.650306    25.195729    16.309507 
   36600    237.16732   -345.12902    181563.75   -13259.711    975.59203   -14235.303   -684.17792    233.56307    78.650264    25.197319    16.306197 
   36800    242.67494   -256.04103    181563.75   -13297.716     998.2477   -14295.964   -328.69889     235.0755    78.651311    25.197554    16.301453 
   37000    244.75247   -365.11946    181563.75   -13226.301    1006.7936   -14233.095   -736.62976    237.01252    78.652351    25.194006    16.300978 
   37200    242.25422    -385.7767    181563.75   -13297.455    996.51707   -14293.972    -790.2469    239.00121     78.65224    25.189999    16.298043 
   37400    241.75097   -388.89032    181563.75   -13256.336    994.44695   -14250.783   -797.01019    239.15287     78.64486    25.189739    16.314075 
   37600    247.05505   -394.40187    181563.75   -13243.251    1016.2654   -14259.516   -887.97329     242.2531    78.646393    25.191135    16.304157 
   37800    238.79283   -428.21795    181563.75   -13294.296    982.27858   -14276.575    -951.0877    244.59885    78.647937    25.196689    16.295086 
   38000    238.19939   -264.42951    181563.75   -13286.742    979.83744   -14266.579   -375.45616    246.85174    78.647087    25.198513    16.281132 
   38200    239.23615    -195.8541    181563.75   -13258.383    984.10216   -14242.485   -105.90712    249.64549    78.647095    25.201448    16.276016 
   38400    242.41736   -414.05843    181563.75   -13242.984    997.18815   -14240.172   -907.14006    251.28224    78.645024    25.201562    16.290262 
   38600    242.53268   -441.47869    181563.75   -13237.416    997.66253   -14235.079   -1026.2692    252.95333    78.645163    25.202698    16.294383 
   38800    240.73841   -435.29798    181563.75    -13233.63    990.28176   -14223.911   -1013.9605    255.20421    78.646933    25.199218    16.302503 
   39000    251.60881   -249.58949    181563.75   -13234.406    1034.9973   -14269.404   -325.63188    254.98882    78.645882    25.200447    16.281921 
   39200     236.8047   -330.39152    181563.75   -13312.682    974.10035   -14286.783   -631.73597    257.78383    78.645557    25.195931    16.274133 
   39400    235.84116   -265.99534    181563.75   -13236.446    970.13682   -14206.583   -401.77101    259.96353    78.644859    25.195326    16.305937 
   39600    236.58729   -335.73149    181563.75   -13269.745    973.20603   -14242.951   -632.97632    261.12964    78.647253    25.193228     16.27925 
   39800    239.69146   -391.08914    181563.75   -13178.546    985.97511   -14164.521   -803.21068    263.11655    78.647666    25.190284     16.27493 
   40000    242.50748   -381.81047    181563.75   -13285.057    997.55884   -14282.615   -807.07439    263.76562    78.643888    25.190758    16.280897 
   40200    240.96977   -390.69554    181563.75   -13329.403    991.23344   -14320.637   -856.16076    264.67441    78.640761    25.195028    16.268048 
   40400    243.38907   -360.09908    181563.75   -13239.647    1001.1853   -14240.832   -738.22078    266.78966    78.637272    25.195716    16.301773 
   40600     229.2719   -444.73535    181563.75   -13376.683    943.11407   -14319.797   -1009.1537    270.03692    78.636944    25.202281    16.298688 
   40800    240.29783    -348.3796    181563.75   -13278.335     988.4694   -14266.805   -695.69405    271.18588    78.639799    25.204541    16.293197 
   41000    239.95586   -227.11098    181563.75   -13266.139    987.06274   -14253.201   -271.81746    269.88713    78.643035     25.20548    16.306617 
   41200     240.8528   -317.03865    181563.75   -13244.917    990.75232    -14235.67   -535.62936    273.50788    78.645115    25.204079     16.31486 
   41400    244.69656   -283.18471    181563.75   -13251.179    1006.5637   -14257.742   -462.38527    274.90082    78.643559    25.205434    16.294867 
   41600    243.89058   -493.67545    181563.75   -13233.304    1003.2482   -14236.552   -1219.5368    278.14104    78.644354    25.204472    16.317976 
   41800    238.60657   -248.55294    181563.75   -13296.767     981.5124    -14278.28   -391.48861    280.58451    78.645067    25.207895    16.307382 
   42000     240.5026   -304.43779    181563.75   -13299.126    989.31176   -14288.438   -516.12343    280.65206    78.644185    25.211081    16.312512 
   42200     242.4251   -509.39554    181563.75   -13296.997    997.21998   -14294.217   -1257.3949    281.12223    78.644495    25.214419    16.313033 
   42400    234.45626   -522.90454    181563.75   -13309.296       964.44   -14273.736   -1289.2298    279.77735    78.646825     25.21029    16.337145 
   42600    243.03194   -366.60444    181563.75   -13281.506    999.71623   -14281.222   -769.66808    281.95334    78.646477    25.211691    16.313684 
   42800     236.8992   -386.86754    181563.75   -13241.506    974.48911   -14215.995   -840.80512    286.21265    78.648471    25.211697    16.282765 
   43000    242.25567   -433.07268    181563.75    -13215.93    996.52303   -14212.453   -973.04686    286.78313     78.65287    25.209161    16.281764 
   43200    244.04904   -274.69254    181563.75   -13238.971    1003.9001   -14242.871   -433.39405    287.65658    78.652778    25.208235    16.272964 
   43400    242.09662   -311.42589    181563.75    -13285.95    995.86876   -14281.819   -541.22362    290.72967    78.654671    25.206245    16.282253 
   43600    236.83493   -317.56733    181563.75   -13319.089     974.2247   -14293.313   -572.14214    291.76388    78.655017    25.205195    16.312436 
   43800    238.70184   -218.55893    181563.75   -13286.442     981.9043   -14268.347   -226.88191    290.82578    78.657217    25.204978    16.332178 
   44000    233.40925   -403.33196    181563.75   -13333.183     960.1331   -14293.316   -877.67562     290.8359    78.657502       25.204    16.358982 
   44200    245.21728   -377.58617    181563.75   -13311.097    1008.7057   -14319.803    -787.6396    291.01236    78.662044    25.207662     16.38438 
   44400    252.12432   -127.07216    181563.75   -13233.069    1037.1179   -14270.187    143.18102    291.86135    78.659063    25.201988    16.391538 
   44600    241.07846   -450.82014    181563.75   -13314.999    991.68057    -14306.68    -1055.172    293.19317    78.658152    25.199838    16.365107 
   44800    234.26749   -293.64947    181563.75   -13327.772    963.66351   -14291.435   -484.72261    292.20735    78.658424    25.194299    16.356354 
   45000    244.53727   -328.31203    181563.75   -13311.867    1005.9084   -14317.776   -633.71264    290.35702    78.660341    25.191599    16.376903 
   45200    246.46751   -153.91538    181563.75   -13224.906    1013.8485   -14238.755   -3.7260934    291.95401    78.662466    25.189812    16.369032 
   45400    241.21056   -344.03824    181563.75   -13211.117    992.22393   -14203.341   -685.36495    294.08438    78.661272    25.186493    16.393809 
   45600    245.74658   -563.25937    181563.75   -13243.304    1010.8829   -14254.186   -1392.5403     298.4435    78.661262    25.183015    16.428453 
   45800    240.79352   -288.16007    181563.75   -13288.395    990.50843   -14278.904   -503.21393    299.12153    78.660972    25.184595    16.411858 
   46000    240.10979   -331.77672    181563.75   -13274.951    987.69593   -14262.647   -603.50663    298.07999    78.664325    25.186614    16.379429 
   46200    246.93363   -250.80323    181563.75   -13257.602    1015.7659   -14273.368   -296.52488    297.41311    78.667311    25.186384    16.380675 
   46400    241.95969   -256.03917    181563.75   -13239.834     995.3055   -14235.139   -380.17434    299.27519    78.667461     25.19144    16.389094 
   46600    239.47879   -184.61089    181563.75   -13291.028    985.10028   -14276.129   -97.369276     300.6967    78.672055    25.192485    16.398731 
   46800    243.22247   -332.40253    181563.75   -13251.322       1000.5   -14251.822    -597.1496    303.25179    78.669375    25.192683    16.396655 
   47000    243.61441   -276.46333    181563.75   -13194.884    1002.1122   -14196.996   -412.09063    304.64831    78.666414    25.195628    16.377441 
   47200    238.15022   -378.90358    181563.75   -13304.905     979.6352    -14284.54   -751.93667    308.05706    78.666452     25.19635    16.362365 
   47400    236.33445   -427.10914    181563.75   -13264.158    972.16599   -14236.324   -965.20548    308.33599    78.667331    25.195234    16.365712 
   47600    245.27084   -304.77173    181563.75   -13278.069     1008.926   -14286.995   -506.45089    307.20786    78.666868    25.193109    16.363329 
   47800     237.5842    -429.0003    181563.75   -13267.885    977.30686   -14245.192   -990.21467    308.51395    78.668346    25.193159    16.339937 
   48000    244.53351   -280.87059    181563.75   -13265.901     1005.893   -14271.794   -436.53474    307.58629    78.670374    25.191696    16.318155 
   48200    240.74894   -415.31308    181563.75   -13288.571    990.32507   -14278.896   -904.91734    306.68727    78.674088    25.195398    16.326467 
   48400    237.69691   -388.19782    181563.75   -13302.659     977.7705   -14280.429   -836.08148    305.88254     78.67574    25.200144    16.315461 
   48600    243.12768   -377.95063    181563.75   -13276.821    1000.1101   -14276.931   -752.32072    308.23225    78.679031    25.203022     16.31391 
   48800    243.31559   -307.58684    181563.75   -13287.961     1000.883   -14288.844   -496.30629    311.48228    78.680064    25.205719    16.327407 
   49000    240.92716   -163.28778    181563.75   -13236.633    991.05818   -14227.691   -15.595431    312.83101    78.679318    25.206821    16.343678 
   49200    245.26847   -339.87612    181563.75   -13226.512    1008.9163   -14235.428   -679.93415    313.95398    78.678722    25.201529    16.336225 
   49400    244.35766   -381.72789    181563.75   -13246.196    1005.1696   -14251.366   -758.95522    317.05455     78.68044    25.198749    16.320314 
   49600    248.56683   -392.93825    181563.75   -13272.869    1022.4841   -14295.353   -909.97212    318.16338    78.680105    25.197202    16.277317 
   49800    230.70133   -373.97655    181563.75   -13304.974    948.99403   -14253.968   -746.12901    318.97351    78.679676    25.198998    16.255225 
   50000    234.70438   -395.11398    181563.75   -13314.201    965.46066   -14279.661   -835.52658    319.50913    78.680717    25.198026    16.250646 
   50200    239.22858   -485.84701    181563.75   -13251.121    984.07102   -14235.192   -1190.8384     323.2789    78.679295    25.197322    16.245225 
   50400    242.64533   -289.61065    181563.75   -13278.445     998.1259   -14276.571   -430.82278    327.48442    78.676432    25.194358     16.24495 
   50600    225.61536   -187.62869    181563.75   -13357.398    928.07283    -14285.47   -125.88889    328.28952    78.677851    25.196252    16.245042 
   50800    236.19569   -393.55233    181563.75   -13326.669    971.59518   -14298.264   -856.92687    329.30476    78.676383    25.194396    16.226604 
   51000    243.60069   -320.35758    181563.75   -13259.478    1002.0558   -14261.533   -592.11717    331.76181    78.676421    25.196629     16.24385 
   51200    236.84394   -280.30189    181563.75   -13372.948     974.2618    -14347.21   -459.14199    335.97811    78.677629    25.198409    16.246429 
   51400    237.57277   -283.96774    181563.75   -13312.934    977.25983   -14290.193   -427.86803    340.35423    78.681158    25.198069    16.262497 
   51600    239.73538   -495.77761    181563.75   -13305.334    986.15575   -14291.489   -1190.3662    344.51917    78.679575    25.195549    16.263729 
   51800    241.46875   -333.73341    181563.75   -13306.959    993.28602   -14300.245   -608.41794    346.04262    78.676004    25.195889    16.269077 
   52000    244.00138   -354.60745    181563.75   -13330.326     1003.704    -14334.03   -693.04721    349.14431    78.672504    25.199832    16.265219 
   52200    235.40921    -481.9725    181563.75   -13317.489    968.35998   -14285.849   -1151.0172    347.79403    78.672956    25.200151    16.277496 
   52400    234.62247   -426.16925    181563.75   -13308.541    965.12371   -14273.665   -936.81549     346.9356    78.672021    25.201153    16.271028 
   52600    240.18139   -368.44537    181563.75   -13310.362    987.99044   -14298.353    -741.9182    344.25309    78.675193    25.199074    16.276661 
   52800    231.43866   -441.15138    181563.75   -13371.605    952.02708   -14323.632   -1011.1287    342.33801    78.675191     25.19816    16.254133 
   53000    232.82851   -393.23882    181563.75   -13382.169    957.74422   -14339.913   -815.37891    346.38124    78.671784    25.196887    16.243417 
   53200    246.24365   -338.85995    181563.75   -13362.982    1012.9276   -14375.909   -640.90064    348.69587    78.669499    25.199941    16.260645 
   53400    234.45386    -516.5871    181563.75   -13327.721    964.43015   -14292.151   -1282.7705    348.87378    78.670157     25.19611    16.271507 
   53600    242.29301   -305.66523    181563.75   -13270.642    996.67664   -14267.318   -488.64102     348.3917    78.672225    25.193098    16.254159 
   53800    236.10411     -335.671    181563.75   -13299.142    971.21846   -14270.361   -648.96273    347.44036    78.674817    25.195882    16.285291 
   54000     247.0103   -319.22337    181563.75   -13237.308    1016.0813    -14253.39   -544.23571      350.839     78.67588     25.19861     16.29674 
   54200    232.28281   -462.16547    181563.75   -13361.216    955.49947   -14316.715   -1066.9045    353.90586    78.675143    25.198963    16.314008 
   54400    243.45809   -378.96561    181563.75    -13333.25    1001.4692    -14334.72   -830.00796    354.84642    78.678976    25.200899    16.306619 
   54600    230.66562   -408.65437    181563.75   -13307.989    948.84716   -14256.836   -896.64931    355.07895    78.681039    25.206269    16.267511 
   54800    243.31092   -393.57685    181563.75   -13249.501    1000.8638   -14250.365   -848.93505    357.00765    78.683066    25.206373     16.25981 
   55000    237.75713   -610.55425    181563.75   -13299.912    978.01822    -14277.93   -1663.0152    357.76171    78.688485    25.206839    16.275731 
   55200    246.11264   -349.06193    181563.75   -13279.186    1012.3887   -14291.574   -700.80257    360.53464    78.691454    25.205907    16.294784 
   55400    243.93307   -351.62446    181563.75   -13246.115     1003.423   -14249.538   -716.13954    359.68606    78.693534    25.209984    16.275647 
   55600    245.46589   -317.42558    181563.75   -13278.139    1009.7283   -14287.868   -574.03236    361.23063    78.693418    25.210264    16.288603 
   55800     234.6367   -443.52934    181563.75   -13289.215    965.18225   -14254.397   -970.03157    367.90715    78.695428    25.204405    16.292055 
   56000    228.59198   -505.08237    181563.75   -13312.703    940.31718    -14253.02    -1263.297    374.22141    78.697522    25.198988    16.284485 
   56200    241.77952   -472.73633    181563.75   -13248.757    994.56438   -14243.321   -1092.9676     378.5654    78.693278    25.198108    16.296023 
   56400     241.0889   -329.88202    181563.75   -13291.745    991.72352   -14283.469   -626.79071    378.55609     78.69346    25.192842    16.288137 
   56600    238.36186   -434.52408    181563.75   -13366.701    980.50577   -14347.207    -969.7109    382.46013    78.692668     25.19302    16.287124 
   56800    234.25968   -335.66754    181563.75   -13375.471    963.63137   -14339.103   -604.12634    384.74379    78.692145    25.190859    16.288275 
   57000    234.23377   -297.98679    181563.75   -13360.241     963.5248   -14323.766   -485.03432    384.68225    78.693812    25.188885    16.273277 
   57200    234.20887   -425.44145    181563.75   -13352.924    963.42239   -14316.346   -910.84054    389.66387    78.693365    25.189033    16.263371 
   57400    239.67189   -325.03302    181563.75   -13319.893    985.89458   -14305.788   -605.75452    390.47169    78.692838    25.191567    16.250572 
   57600    247.73695   -237.49438    181563.75   -13239.048    1019.0704   -14258.118   -260.94065     392.0049    78.693244    25.192715     16.25627 
   57800    245.06406   -457.64926    181563.75    -13263.42    1008.0754   -14271.495   -1062.7099    393.69061    78.691849    25.189794    16.282134 
   58000    250.53195   -547.52319    181563.75   -13220.718    1030.5677   -14251.285   -1430.4028    397.06227    78.692854    25.193267     16.26999 
   58200    234.51267    -364.1705    181563.75   -13292.472    964.67206   -14257.145   -697.72301    403.10472    78.689126    25.198255    16.264938 
   58400    239.64544   -361.92523    181563.75    -13295.81    985.78582   -14281.595   -695.11921    405.75349    78.688913    25.203543    16.254259 
   58600    245.48808   -287.46136    181563.75   -13296.798    1009.8196   -14306.618   -462.00137    404.95736    78.689842    25.205374     16.27076 
   58800    234.54789   -358.80609    181563.75   -13312.084    964.81692   -14276.901    -700.2503     404.9209     78.68938    25.207509    16.264453 
   59000    239.02195   -148.74119    181563.75   -13337.116    983.22105   -14320.337    14.791413      402.676    78.690235    25.206441    16.249236 
   59200    233.35924   -320.25621    181563.75   -13307.649    959.92739   -14267.576   -549.33375    407.00466     78.69166    25.207528    16.239686 
   59400    240.30904   -441.27611    181563.75   -13295.136    988.51554   -14283.652   -1014.3642     409.0944     78.69199    25.209396    16.230874 
   59600    240.38837   -409.37213    181563.75   -13270.923    988.84186   -14259.765   -910.98892    409.57735     78.69014    25.210456    16.251431 
   59800    243.12096   -259.98761    181563.75   -13287.871    1000.0824   -14287.954   -368.76362    408.77856    78.688303    25.209398     16.26688 
   60000    233.24178   -302.40701    181563.75   -13312.646    959.44423    -14272.09   -523.42585    407.93099    78.687599     25.20872    16.267355 
   60200    243.76625   -427.30206    181563.75   -13260.666    1002.7368   -14263.402   -944.43458    408.75862     78.69015    25.207176    16.261844 
   60400      236.529   -395.49609    181563.75   -13337.454    972.96627    -14310.42   -821.13052    412.18878    78.690484     25.20807    16.253813 
   60600     243.9532   -405.00384    181563.75   -13303.305    1003.5059   -14306.811   -867.12785    412.56465    78.691057    25.205454    16.278194 
   60800    237.40133   -302.37371    181563.75   -13313.173    976.55462   -14289.727   -558.88713    411.66234    78.692236      25.2012    16.252267 
   61000    232.70656   -491.44736    181563.75   -13356.084    957.24259   -14313.327   -1160.4686    411.65752    78.693621    25.198537    16.269764 
   61200    238.69221   -419.32124    181563.75   -13345.763    981.86465   -14327.628   -914.67639    409.89444    78.693015    25.196085    16.269622 
   61400    236.42942   -296.58741    181563.75   -13349.466    972.55666   -14322.023   -509.25701    410.07858    78.691373    25.195762    16.292486 
   61600    239.06637   -361.77137    181563.75   -13365.049     983.4038   -14348.453   -665.07357    411.66092    78.687562    25.199842    16.304241 
   61800     241.7138   -295.18082    181563.75   -13324.002    994.29404   -14318.296   -512.82207    413.75634    78.688369    25.200706    16.304454 
   62000    240.05945   -318.56167    181563.75   -13333.114    987.48884   -14320.602    -574.7752    416.09409    78.687009    25.199844    16.290076 
   62200    246.29366    -458.5796    181563.75   -13260.511    1013.1334   -14273.644   -1049.3882    416.87158     78.68704    25.194094    16.274473 
   62400    244.03261   -338.78108    181563.75   -13240.987    1003.8325   -14244.819   -671.50246    417.21864    78.690892      25.1936    16.279178 
   62600    233.33285   -381.00991    181563.75   -13306.443    959.81886   -14266.262   -761.06614    420.51325     78.69301    25.192548     16.26983 
   62800    235.53902   -296.48322    181563.75   -13284.873    968.89396   -14253.767    -517.3782    422.84551    78.690462    25.192763    16.325116 
   63000     235.8919   -433.76998    181563.75   -13263.591    970.34554   -14233.936   -986.61089    424.08862    78.686909    25.192736    16.323973 
   63200    237.01128   -301.05845    181563.75    -13322.22    974.95014    -14297.17   -530.48163    427.34649    78.684998    25.193455     16.32601 
   63400    244.23558   -320.74079    181563.75   -13285.127    1004.6674   -14289.794   -530.99359    426.54588    78.683015    25.193073    16.333264 
   63600    242.24546   -286.92953    181563.75   -13206.907    996.48104   -14203.388   -429.90332    430.11154    78.680388    25.194736    16.342023 
   63800     240.9388   -468.23322    181563.75    -13225.36    991.10604   -14216.466   -1095.7924     430.3149    78.680281    25.199875      16.3469 
   64000    235.07271   -443.23915    181563.75   -13268.929    966.97578   -14235.905   -1036.1685    434.53684    78.677985    25.200784     16.34708 
   64200    236.02842   -257.02865    181563.75   -13264.748    970.90712   -14235.655    -352.5802     439.9831     78.67649    25.202089    16.358208 
   64400    242.28748    -382.9592    181563.75   -13243.881    996.65387   -14240.534   -802.37121    445.02447    78.676988    25.209383    16.320046 
   64600    234.19565   -342.11971    181563.75   -13253.806    963.36798   -14217.174   -683.12654    447.76338    78.676319    25.211077    16.342314 
   64800    234.84415    -439.7201    181563.75   -13247.778     966.0356   -14213.813    -1017.158    451.13559    78.677331    25.210555    16.314028 
   65000    232.18465   -468.77762    181563.75   -13318.884    955.09571   -14273.979   -1081.9779    454.39983    78.675476    25.210667    16.307978 
   65200    240.15916   -349.33353    181563.75   -13318.799    987.89899   -14306.698   -682.53539    455.81689    78.672416    25.210494    16.317832 
   65400    246.19944   -349.74837    181563.75   -13197.283    1012.7458   -14210.028   -679.46206    459.75968    78.672268    25.209624    16.316251 
   65600    237.38307   -352.68301    181563.75   -13275.737     976.4795   -14252.217   -690.39572    464.29206    78.672897    25.210413    16.326191 
   65800    242.83536   -271.19125    181563.75   -13262.273     998.9076   -14261.181   -405.56331    463.24681    78.673332    25.205829    16.293192 
   66000    241.93266   -353.44064    181563.75   -13347.474    995.19431   -14342.668   -696.39904    460.38756    78.674418    25.206061    16.299442 
   66200    242.37885   -245.78015    181563.75   -13324.843    997.02972   -14321.872   -309.57608    453.57132    78.673015    25.204128    16.323252 
   66400    237.16992   -320.78535    181563.75   -13368.257    975.60269    -14343.86   -538.37463    456.63757    78.672233     25.20361    16.315472 
   66600    232.91144   -419.70185    181563.75   -13316.327    958.08535   -14274.412   -940.85237    457.88934    78.672182    25.206853    16.349634 
   66800    239.87363   -276.57595    181563.75   -13345.579    986.72448   -14332.303   -432.98996    457.37545    78.669834    25.209366     16.35727 
   67000    229.84989   -428.75266    181563.75   -13356.201    945.49162   -14301.692   -980.95378    460.22442    78.670239    25.212722    16.363681 
   67200    229.42105    -477.9965    181563.75   -13363.129     943.7276   -14306.857   -1124.8297    462.40547    78.671783    25.216334    16.345843 
   67400    240.99264    -409.2858    181563.75   -13325.578    991.32754   -14316.906   -908.36341    458.48899    78.670819    25.216722    16.351358 
   67600    235.93714    -328.3964    181563.75   -13351.762    970.53162   -14322.293   -643.18742    455.96175    78.668713    25.218406      16.3342 
   67800    243.76257   -176.64549    181563.75   -13330.065    1002.7217   -14332.787    -41.43591    451.22141    78.669461    25.215921    16.333669 
   68000    236.68601   -421.18079    181563.75   -13306.046    973.61212   -14279.658   -971.71791    450.96511    78.668472    25.215049    16.332602 
   68200    251.95459   -346.19813    181563.75   -13312.348    1036.4197   -14348.767   -692.21145    455.07217    78.668365    25.212185    16.336752 
   68400    240.21583   -415.70554    181563.75   -13241.416     988.1321   -14229.548   -907.82276    454.87056    78.670908    25.208993    16.368916 
   68600    231.12772   -275.72305    181563.75   -13322.535    950.74801   -14273.283   -416.15337    457.48993    78.673763    25.206764    16.336382 
   68800    244.62502    -454.9234    181563.75   -13271.934    1006.2694   -14278.203    -1061.902    466.11845    78.672766    25.204806    16.340915 
   69000    240.82678   -334.60374    181563.75   -13300.064    990.64525   -14290.709   -563.88951    466.26584    78.675498    25.202503    16.343065 
   69200    245.84245   -459.22885    181563.75   -13332.872    1011.2773    -14344.15   -1084.3665    467.37752    78.678229    25.203187    16.355055 
   69400    229.04543   -340.46624    181563.75   -13405.636    942.18247   -14347.819   -692.45321    466.98565    78.681937    25.202752    16.367542 
   69600    235.83185   -248.09122    181563.75   -13331.428    970.09851   -14301.526    -289.1622    471.95818    78.683278    25.199391    16.334769 
   69800     240.6576   -383.38751    181563.75   -13333.986    989.94933   -14323.935   -838.44727    478.74212     78.68241    25.195411    16.346267 
   70000    235.44122   -439.03285    181563.75   -13362.463    968.49168   -14330.955   -1005.0418     483.0162    78.683677    25.196461    16.363084 
   70200    236.72071   -289.75102    181563.75   -13344.685    973.75488    -14318.44   -456.14885    483.21573    78.684713    25.202978    16.390637 
   70400    236.21975   -310.45924    181563.75   -13315.545    971.69415   -14287.239   -537.48601    486.48787     78.68461    25.206047    16.386644 
   70600     244.0157   -290.56719    181563.75   -13290.894     1003.763   -14294.657   -442.72504    491.91545    78.685482    25.204763    16.360535 
   70800    234.49906   -342.57453    181563.75   -13326.042    964.61606   -14290.658   -682.20055    496.11163    78.686036    25.204626    16.376411 
   71000    240.87055   -437.89465    181563.75   -13302.836     990.8253   -14293.662   -960.57837    497.69702    78.684985    25.201227    16.366197 
   71200    254.84254   -395.77841    181563.75   -13185.977    1048.2993   -14234.277   -801.83923    495.09864    78.684588     25.19936    16.350353 
   71400     235.1614   -360.52878    181563.75   -13325.278    967.34063   -14292.619   -697.50609    500.02532    78.688617    25.194601    16.375056 
   71600    238.84665   -265.09608    181563.75   -13340.124    982.49998   -14322.624   -359.55543    502.22664    78.685789    25.192928    16.368489 
   71800    237.11021   -391.57118    181563.75   -13325.368     975.3571   -14300.726   -826.58203    497.89894    78.689359    25.191644    16.416716 
   72000    240.14878   -350.46084    181563.75   -13256.251    987.85628   -14244.108    -659.4307    498.10968    78.688168    25.190311    16.399727 
   72200    236.56907   -408.10955    181563.75   -13274.735    973.13109   -14247.866   -910.00384    498.66943    78.691788    25.191008    16.390612 
   72400    239.85653   -214.97712    181563.75   -13243.916    986.65412    -14230.57   -232.51065     497.2366    78.692758    25.191285    16.376918 
   72600     247.7822   -273.06212    181563.75   -13243.035    1019.2565   -14262.291   -403.44357    501.03957    78.691853    25.189119     16.36961 
   72800    239.51908   -457.96733    181563.75   -13346.765    985.26602   -14332.031   -1057.3888    505.77395    78.693796    25.187142    16.361416 
   73000     238.3134   -444.39172    181563.75   -13297.458    980.30643   -14277.764   -1020.7748    508.15388    78.691058    25.185295    16.361595 
   73200    244.73969   -416.66704    181563.75   -13244.884    1006.7411   -14251.625   -955.04739    506.84587    78.694063    25.179425    16.377001 
   73400    242.56486   -355.01675    181563.75   -13277.997    997.79487   -14275.792   -714.84407    508.91262    78.694189    25.175461    16.373082 
   73600    247.33712   -326.14389    181563.75   -13302.009    1017.4256   -14319.434   -602.75204    511.58223    78.696216    25.173648    16.397252 
   73800      242.745   -276.91311    181563.75   -13216.512    998.53591   -14215.048   -452.97794    509.73176    78.700684    25.177644    16.401587 
   74000    256.66767   -543.81594    181563.75   -13214.574     1055.807   -14270.381   -1368.3367    511.53921    78.701367    25.177058    16.399967 
   74200    243.85266   -519.81512    181563.75   -13220.565    1003.0923   -14223.657   -1273.8702    507.86033    78.703336    25.174443    16.392607 
   74400    237.79495   -294.26421    181563.75   -13269.112    978.17377   -14247.286    -453.8559    502.76564    78.701939    25.176136    16.390942 
   74600    239.68868   -358.41289    181563.75    -13296.49    985.96367   -14282.454   -701.21041    500.23085      78.7019    25.176909    16.363252 
   74800    245.07236   -261.03381    181563.75   -13241.279    1008.1095   -14249.388   -334.75886     503.5722    78.703212    25.180359    16.384129 
   75000    237.61372   -346.12467    181563.75   -13279.178    977.42829   -14256.606    -635.2339    512.69466    78.703117    25.177235     16.37402 
   75200    239.58003   -389.11472    181563.75    -13274.87    985.51675   -14260.387   -767.88922    516.62651    78.702168    25.174106    16.383178 
   75400    250.29816   -458.19788    181563.75    -13227.44    1029.6059   -14257.046   -1064.3884    517.46057    78.703259    25.169891     16.37921 
   75600    232.03834   -280.47703    181563.75   -13283.227    954.49385   -14237.721   -421.29843    520.89562    78.700925    25.169704    16.369646 
   75800    241.59156   -361.01662    181563.75   -13250.609    993.79122     -14244.4   -685.18517    524.57422    78.700071    25.170108    16.370222 
   76000    235.75554   -571.31978    181563.75   -13263.318    969.78463   -14233.103   -1484.0212    530.68789    78.699296    25.168004    16.380535 
   76200    234.09473   -396.50196    181563.75   -13305.292    962.95284   -14268.245   -818.67024    529.17095    78.698342    25.170302    16.387989 
   76400    232.43899   -516.19571    181563.75   -13339.504    956.14193   -14295.646   -1222.0108    534.19774    78.696352    25.171383    16.355937 
   76600     245.3676   -411.82446    181563.75   -13280.827     1009.324   -14290.151   -895.85772    540.70854    78.694515    25.173649    16.355283 
   76800    247.51798   -502.74463    181563.75   -13263.276    1018.1696   -14281.446   -1249.5419    546.03607    78.697021    25.175082    16.359554 
   77000    235.91573   -387.89445    181563.75   -13319.806    970.44356   -14290.249   -834.38463    542.78388    78.697086    25.169269    16.325949 
   77200     240.6691   -391.31946    181563.75   -13313.965    989.99663   -14303.962   -836.10521    543.66477     78.69375     25.16959    16.331639 
   77400    242.26736   -422.12841    181563.75   -13275.776    996.57111   -14272.347   -970.06304    544.37935    78.695143    25.168382    16.332439 
   77600    240.89685   -424.42159    181563.75   -13295.343     990.9335   -14286.276   -959.69119    549.37316    78.694755    25.165945     16.32915 
   77800    240.66516   -396.66158    181563.75   -13296.003    989.98044   -14285.983   -875.31672    552.10615    78.692124    25.163786    16.315025 
   78000    227.86003   -375.35432    181563.75   -13359.717    937.30629   -14297.023   -732.71796     554.1298    78.691532    25.161193    16.306306 
   78200     234.0647   -324.15014    181563.75   -13296.327    962.82934   -14259.157   -589.88336    555.77006    78.693714    25.158579    16.292259 
   78400    237.78046   -391.01529    181563.75   -13276.412    978.11416   -14254.526   -809.74929    556.32778    78.693812    25.153597    16.280767 
   78600    238.04822   -280.01628    181563.75   -13324.812    979.21563   -14304.027   -458.10541    559.66286    78.694162    25.154346    16.282657 
   78800    235.87118    -385.4316    181563.75   -13281.003     970.2603   -14251.263   -802.35646    565.65034    78.693896    25.155168    16.293435 
   79000    242.09851   -218.35454    181563.75   -13251.575    995.87654   -14247.452   -230.23105    572.28788    78.692079    25.157481     16.31043 
   79200    240.00933   -454.09189    181563.75   -13206.185    987.28268   -14193.468    -1066.319    575.99262    78.691004    25.158983    16.321857 
   79400    241.07828   -90.808057    181563.75    -13298.11     991.6798    -14289.79    265.93652    576.95558     78.69229    25.154775    16.339359 
   79600    235.64164   -299.43536    181563.75   -13288.605    969.31609   -14257.921   -543.29925    578.79059    78.691637     25.15141    16.354519 
   79800    242.07264   -277.49201    181563.75   -13294.494    995.77012   -14290.264   -411.14115    583.96761    78.691067    25.149825    16.337893 
   80000    243.36509   -376.28334    181563.75   -13322.616    1001.0866   -14323.703   -742.16444    593.23493    78.690504    25.155926     16.34312 
   80200    244.94695   -305.14321    181563.75   -13268.129    1007.5937   -14275.723   -487.08357    594.37487    78.695637    25.158709    16.363011 
   80400    240.42449   -290.21078    181563.75   -13272.538    988.99044   -14261.528   -440.96047    591.14214    78.697512    25.159035    16.332949 
   80600    240.30853    -351.1421    181563.75    -13212.86    988.51341   -14201.374   -641.96079    593.44911    78.698276    25.159107     16.30491 
   80800    235.75162   -490.93751    181563.75     -13288.4    969.76852   -14258.169   -1185.8097    598.48693    78.697424    25.160685    16.326399 
   81000    249.27889   -532.96877    181563.75   -13230.518    1025.4131   -14255.931   -1325.2402     591.4933    78.694282    25.159183    16.317769 
   81200    245.18898   -302.87358    181563.75   -13299.044    1008.5893   -14307.634   -468.96737    588.29618    78.692928    25.159976    16.301253 
   81400    237.63531   -358.47934    181563.75   -13323.547     977.5171   -14301.064   -667.58788    587.22893    78.694647    25.162572    16.297721 
   81600    236.10447   -442.90269    181563.75   -13275.501    971.21997   -14246.721   -1019.6547    587.93235    78.695324    25.165239     16.31015 
   81800    236.90242   -271.16355    181563.75   -13261.172    974.50236   -14235.675   -402.80296    585.44892    78.696902    25.167553    16.296977 
   82000    242.31636   -482.67032    181563.75   -13222.632    996.77267   -14219.405   -1173.8572    593.11931    78.697911    25.164858    16.307668 
   82200    240.50107   -264.92712    181563.75    -13275.39    989.30545   -14264.696   -349.57801    599.88525    78.694579    25.163755    16.300057 
   82400    239.54288   -330.29692    181563.75   -13299.879     985.3639   -14285.243   -574.30825    600.38481    78.693228    25.161221    16.303276 
   82600    237.27226   -364.34494    181563.75   -13304.236    976.02367    -14280.26   -686.84721    601.19145    78.692541    25.159349    16.291761 
   82800     244.3061   -378.58482    181563.75    -13303.53    1004.9575   -14308.487   -745.01004    601.83147    78.689394    25.164083    16.327486 
   83000      235.188   -270.76856    181563.75   -13285.707    967.45006   -14253.157   -374.97114    611.65717    78.690715    25.167663    16.330882 
   83200    235.59495   -347.69509    181563.75    -13279.47    969.12405   -14248.594    -632.5841    613.94573    78.692976    25.164116    16.345653 
   83400    238.74849   -306.25964    181563.75   -13297.014    982.09619    -14279.11   -497.54376    609.46367    78.692983    25.159598    16.361185 
   83600    241.70296   -428.21538    181563.75   -13264.205    994.24945   -14258.455   -938.31882    608.27207    78.697315    25.160571    16.364634 
   83800    225.55713   -380.08026    181563.75   -13329.277    927.83328   -14257.111   -747.51727    602.82259    78.697827    25.157109    16.373969 
   84000     233.8215   -287.10455    181563.75   -13327.022    961.82893   -14288.851   -454.64064    602.00718    78.700207    25.157946    16.365688 
   84200    230.29274   -383.68991    181563.75   -13314.809     947.3133   -14262.123   -766.35173    605.14084    78.702689    25.157847     16.37848 
   84400    242.24735   -383.82851    181563.75   -13296.345    996.48882   -14292.834   -828.17075    611.27852    78.705235     25.15712    16.382475 
   84600    244.24516    -249.2977    181563.75    -13290.06    1004.7068   -14294.767   -291.45745    613.64285    78.705016    25.158298    16.377168 
   84800    238.55988   -418.48076    181563.75    -13309.47    981.32034    -14290.79   -923.90786    612.60514    78.707871    25.156733    16.407268 
   85000     239.8263   -178.03972    181563.75   -13335.717    986.52979   -14322.247   -73.528854    609.65176    78.710138    25.160988    16.420174 
   85200    250.34007    -412.6954    181563.75   -13220.561    1029.7784   -14250.339   -899.70059    613.48923    78.712241    25.164281     16.40316 
   85400    238.67102   -406.17678    181563.75   -13292.748    981.77752   -14274.525   -932.37486    618.02619    78.713022    25.167936    16.371946 
   85600     231.6969   -389.39585    181563.75   -13322.548    953.08935   -14275.637   -860.52293    619.79176    78.714021    25.171207    16.377807 
   85800    246.99621   -394.41609    181563.75   -13236.762    1016.0233   -14252.785   -819.22844    623.69715    78.711031    25.171866    16.365719 
   86000    241.79361   -298.04437    181563.75   -13224.829    994.62235   -14219.451   -460.38647    619.03167    78.710791    25.176185    16.374858 
   86200    240.86282   -320.07432    181563.75   -13268.364    990.79352   -14259.158   -581.88748    617.42827    78.710343    25.179202    16.377834 
   86400    246.43633   -448.30104    181563.75   -13258.828    1013.7202   -14272.548   -1088.7355    616.64318    78.710639     25.18131    16.380222 
   86600    233.17968   -412.86248    181563.75   -13258.842    959.18876    -14218.03   -882.65408    617.56218    78.712285    25.183742    16.403749 
   86800    239.81648   -311.34937    181563.75   -13264.189    986.48939   -14250.678   -532.98033    616.97858    78.711975    25.184825    16.408776 
   87000    234.77941    -297.8757    181563.75    -13295.89    965.76929   -14261.659   -562.42516    615.25329    78.712006    25.186384    16.431978 
   87200    239.26668   -281.08366    181563.75   -13259.077    984.22776   -14243.304   -447.69668    615.40971    78.709806    25.187205    16.432607 
   87400    241.42594   -363.88835    181563.75   -13254.574    993.10991   -14247.684   -747.90029    614.27096    78.705473    25.184056    16.441885 
   87600    234.74422   -322.98758    181563.75   -13250.007    965.62454   -14215.631   -583.34404    616.42543     78.70611    25.178798    16.436267 
   87800    232.37943   -329.06293    181563.75   -13289.214    955.89695   -14245.111   -609.13407    614.46864    78.705727    25.177045    16.436388 
   88000    246.38242   -253.62391    181563.75   -13239.526    1013.4985   -14253.025   -286.82433    613.69571    78.702377    25.176143    16.434825 
   88200      238.904   -482.36799    181563.75   -13226.058    982.73588   -14208.794   -1160.4583    619.29982     78.70336    25.171437    16.418312 
   88400    231.17766   -488.22279    181563.75   -13240.141    950.95343   -14191.095   -1190.5337    621.28674    78.703436    25.171683    16.419639 
   88600    237.12814   -508.10226    181563.75   -13299.207    975.43085   -14274.638   -1251.7532    619.75096    78.703031     25.17537    16.398734 
   88800    235.55953   -414.20598    181563.75   -13318.675    968.97832   -14287.653   -910.03057    618.55214    78.704009    25.177869    16.414059 
   89000    237.37839   -582.02613    181563.75   -13359.307    976.46026   -14335.767   -1502.7838    617.54107    78.701578    25.178763    16.416939 
   89200    226.39783   -367.05546    181563.75   -13357.067    931.29153   -14288.358   -761.81351    619.87154    78.701908    25.178563     16.43304 
   89400    244.84944   -312.68679    181563.75   -13311.836    1007.1926   -14319.028   -551.88463    625.15396    78.699751     25.17888    16.450437 
   89600    235.99625   -396.37079    181563.75   -13367.876     970.7748   -14338.651    -879.0716    628.86884     78.69616    25.181826    16.452907 
   89800    240.89606   -508.38171    181563.75   -13290.193    990.93025   -14281.123   -1240.7296    626.62422    78.697344    25.181728    16.433018 
   90000    240.23843   -372.41988    181563.75   -13236.563    988.22508   -14224.788   -741.22685    627.56498    78.696361    25.182331    16.441081 
   90200    239.04897   -343.82216    181563.75   -13303.162    983.33222   -14286.494   -671.40384     636.0095    78.694897    25.180961    16.418499 
   90400    228.71489   -414.96776    181563.75   -13335.207    940.82278    -14276.03   -883.61401    640.30688    78.695633    25.182761    16.414951 
   90600    251.00032   -394.11137    181563.75   -13244.257    1032.4943   -14276.751   -816.92576    645.30146    78.695798    25.183005     16.40716 
   90800    244.59256     -431.883    181563.75   -13228.651    1006.1359   -14234.787   -1014.5635    652.62872     78.69647    25.180819     16.43202 
   91000    244.07671   -377.66977    181563.75   -13239.874    1004.0139   -14243.888    -788.1633    655.86404    78.695275    25.180652    16.437879 
   91200    242.69512   -350.33818    181563.75   -13262.131    998.33073   -14260.461   -714.57755    659.03603    78.696045    25.184753    16.419374 
   91400    235.05144   -345.90093    181563.75   -13324.125     966.8883   -14291.013   -699.21236    655.22149    78.700325    25.186621    16.421171 
   91600    244.74006   -330.22271    181563.75   -13240.264    1006.7426   -14247.007   -589.11167    654.32113    78.698035    25.184237    16.423765 
   91800      243.994   -222.00355    181563.75   -13270.374    1003.6737   -14274.048   -247.09712    657.20669    78.697849    25.183519    16.413798 
   92000    244.00873   -313.66661    181563.75   -13264.173    1003.7343   -14267.907    -574.5449     663.7009    78.701961    25.183653    16.404725 
   92200    243.91575   -209.39975    181563.75   -13281.751    1003.3518   -14285.102   -174.33137    657.53649    78.707059    25.184243    16.398051 
   92400    249.76133   -601.20603    181563.75   -13231.272    1027.3977    -14258.67   -1548.3454    657.03458    78.710369    25.183884    16.432509 
   92600    232.11333   -395.64943    181563.75   -13281.855    954.80233   -14236.657   -872.02875    656.78283    78.710529    25.183812    16.440641 
   92800    239.24036    -336.5064    181563.75   -13322.522    984.11948   -14306.641   -648.06696    660.93595    78.715085    25.181271    16.458357 
   93000    230.31346   -407.11115    181563.75   -13380.454    947.39854   -14327.853   -860.32894    666.15838    78.716416    25.181385    16.432534 
   93200    237.39052   -422.84848    181563.75   -13359.886    976.51013   -14336.396   -911.14273    671.89647    78.716247    25.179214    16.419868 
   93400    234.36127   -328.95775    181563.75   -13370.065    964.04925   -14334.114   -597.39388    671.47119    78.713268    25.178248    16.427255 
   93600    242.25987   -459.57707    181563.75   -13363.875    996.54031   -14360.415   -1068.8366    667.58608    78.711521    25.181578    16.443089 
   93800    249.64194   -397.34506    181563.75    -13297.87    1026.9066   -14324.776   -852.95537    661.81479     78.70972    25.184745    16.426943 
   94000     236.2084   -379.80345    181563.75   -13361.045    971.64748   -14332.693   -806.90561    662.16012    78.708228    25.186023     16.43444 
   94200    244.78336   -467.61873    181563.75   -13273.505    1006.9207   -14280.425   -1050.3781    671.49885    78.706266    25.188803    16.406741 
   94400    238.56506   -405.09777    181563.75   -13286.424    981.34163   -14267.766   -885.51689    673.61963    78.706274    25.190361    16.397717 
   94600      247.443   -334.51014    181563.75   -13278.061    1017.8612   -14295.922    -606.7881    678.06312    78.709328    25.187622     16.39522 
   94800    245.04748   -321.98521    181563.75   -13244.769    1008.0072   -14252.776   -576.26607    683.77294    78.709485     25.18571    16.366222 
   95000    232.09257   -421.34393    181563.75   -13347.132    954.71692   -14301.849   -886.63171    694.73213    78.709717    25.185976     16.35206 
   95200    243.45421   -328.64228    181563.75   -13342.639    1001.4532   -14344.092   -614.01747    696.00196    78.712492    25.186074    16.349452 
   95400    241.75184   -358.95836    181563.75   -13334.062    994.45051   -14328.513   -679.53664    691.69914    78.713372    25.182011    16.342039 
   95600    232.63209   -420.54962    181563.75   -13306.928    956.93628   -14263.864   -960.66459     684.1482    78.710612    25.180679    16.342764 
   95800    238.64106   -355.16034    181563.75   -13304.411    981.65426   -14286.065   -734.62354    683.61672    78.711921     25.17897    16.338124 
   96000    240.32694   -269.06032    181563.75   -13320.488    988.58917   -14309.078   -410.84662    689.98805    78.711688    25.181024    16.342403 
   96200    239.25421   -237.98388    181563.75   -13303.977    984.17647   -14288.154   -304.75826    690.10084    78.712202    25.182593    16.316461 
   96400    233.34352   -390.19336    181563.75   -13275.833    959.86276   -14235.696   -818.41416    693.87425    78.712958    25.179718    16.288457 
   96600    227.29649   -367.94365    181563.75   -13323.503    934.98817   -14258.491   -794.32184     690.6799    78.716463    25.179621    16.277439 
   96800    237.90963   -432.07528    181563.75   -13253.702    978.64551   -14232.348   -998.86724    687.73844    78.716321    25.174884    16.266616 
   97000    233.96817    -461.2839    181563.75    -13258.06    962.43224   -14220.493   -1063.7448    685.95384    78.717187    25.178048    16.282611 
   97200    244.18534   -247.82603    181563.75   -13210.988    1004.4608   -14215.449   -330.80674    685.43501     78.71631    25.179739    16.296303 
   97400    227.67483   -430.02731    181563.75   -13286.579    936.54448   -14223.124   -965.37066    687.86939    78.712715    25.184212    16.331771 
   97600    237.74766   -354.32467    181563.75   -13235.369    977.97926   -14213.349   -687.01795    684.67953    78.709446    25.185857    16.297772 
   97800     235.8555   -586.09367    181563.75   -13258.268    970.19583   -14228.464   -1529.2515    686.55107    78.706749    25.186182    16.290977 
   98000    234.75577   -428.30298    181563.75   -13311.003    965.67206   -14276.675   -973.72874    688.24284    78.706081    25.192281     16.28256 
   98200     233.9755   -270.36282    181563.75   -13323.435     962.4624   -14285.897     -412.337    691.34277    78.707862    25.194474    16.278177 
   98400    234.86425   -441.40978    181563.75   -13268.403    966.11828   -14234.522    -1052.604      696.469    78.710029    25.193965    16.265308 
   98600    243.43067   -452.30929    181563.75   -13264.993    1001.3564   -14266.349   -1082.3085    696.63754    78.710332    25.194233    16.255025 
   98800    259.56399   -171.27706    181563.75   -13147.917    1067.7211   -14215.638   -20.670548    699.94626    78.707149    25.192445    16.242447 
   99000     245.5811   -367.25233    181563.75   -13199.023    1010.2022   -14209.225   -727.48119    695.83577    78.705035    25.193869    16.238405 
   99200    237.49153   -344.05145    181563.75   -13234.683    976.92565   -14211.608   -639.98828    696.65406    78.705446    25.192407    16.225788 
   99400    238.61754   -287.08442    181563.75     -13249.5    981.55752   -14231.057   -458.92362     698.2527    78.705636    25.190582    16.229016 
   99600    254.56263   -254.64036    181563.75   -13254.171    1047.1479   -14301.319   -331.39011     706.6146    78.706824    25.194357     16.26296 
   99800    246.90756   -467.05757    181563.75   -13241.747    1015.6587   -14257.405   -1101.3505    715.94903    78.709616    25.195578    16.299261 
  100000    240.07336   -491.41201    181563.75   -13299.718    987.54607   -14287.264   -1194.5241    724.91049    78.706367    25.196432    16.282468 
  100200    248.25574   -224.86287    181563.75   -13212.937    1021.2044   -14234.142   -196.64784    723.70512    78.706871    25.193694    16.287949 
  100400    238.33285   -291.13822    181563.75   -13256.387    980.38645   -14236.774   -499.04823     722.5885    78.706016    25.193056    16.300546 
  100600    232.51537   -398.83603    181563.75   -13321.102    956.45612   -14277.558   -861.31491    720.04636    78.701833    25.195652    16.329729 
  100800    239.80014   -350.16704    181563.75   -13256.878    986.42216     -14243.3   -733.23099    712.64657    78.697743    25.197707    16.340406 
[...]
 5175800    220.13773   -391.82246    181563.75   -14706.475    905.54047   -15612.016   -747.59276    6170.8047    78.541577    24.771398    16.344221 
 5176000    232.31413   -364.15462    181563.75   -14661.094    955.62832   -15616.722   -664.99382    6172.2837    78.542584     24.77149    16.349392 
 5176200    220.53506   -375.06451    181563.75    -14673.11    907.17491   -15580.285   -711.16005     6168.836    78.542056    24.772886    16.341795 
 5176400    223.97375   -371.70694    181563.75   -14715.078    921.32004   -15636.398   -706.48405    6170.2077    78.541754    24.772928    16.341791 
 5176600    231.00732   -347.45036    181563.75   -14672.125    950.25273   -15622.378   -598.89867    6172.4054    78.541778    24.776012    16.345305 
 5176800    227.90979   -322.87465    181563.75   -14691.633    937.51098   -15629.144   -504.95148    6170.6035    78.542424    24.777047     16.35065 
 5177000    219.66834   -281.85909    181563.75   -14703.566    903.60966   -15607.176   -335.74473    6171.2641    78.542938     24.77872    16.340633 
 5177200    229.70047   -315.99094    181563.75    -14655.32    944.87701   -15600.197   -459.19459     6171.443    78.543136     24.77905    16.346786 
 5177400    225.20789   -392.38071    181563.75   -14676.001    926.39668   -15602.397   -797.55111    6171.5621    78.542191    24.779095    16.348989 
 5177600    230.55631   -416.75892    181563.75   -14690.163    948.39749   -15638.561   -849.48322    6170.5057    78.539275    24.780082    16.345492 
 5177800    218.11249   -349.52482    181563.75   -14707.222    897.20964   -15604.432   -568.76736    6171.4702    78.539293      24.7808    16.348837 
 5178000    226.85777   -322.94375    181563.75   -14689.432    933.18348   -15622.615   -497.08001    6171.2362    78.539316     24.78063    16.353499 
 5178200    229.60252   -391.90692    181563.75   -14697.145    944.47408   -15641.619   -773.59378    6174.2062    78.539951    24.781543    16.347544 
 5178400    228.43429   -380.74282    181563.75   -14673.442    939.66854    -15613.11   -726.48075    6173.5565    78.540701    24.781029     16.35479 
 5178600    226.75289   -385.14756    181563.75   -14665.749    932.75205   -15598.501    -744.9647    6172.5625    78.539859    24.781142     16.34495 
 5178800    227.30536   -342.71758    181563.75   -14640.407    935.02466   -15575.431   -540.03976    6172.0947    78.541828    24.781095    16.350215 
 5179000    234.74874    -252.9444    181563.75    -14636.11    965.64314   -15601.753   -248.86671    6170.3694     78.54155    24.781109    16.345597 
 5179200    227.88028   -300.55177    181563.75   -14671.399    937.38961   -15608.789   -422.73774     6171.901    78.541168     24.78047    16.349226 
 5179400     222.2935   -368.83868    181563.75   -14682.047    914.40829   -15596.455   -677.28842     6173.094    78.538708    24.781486    16.345339 
 5179600    222.66457   -431.19321    181563.75   -14708.041    915.93469   -15623.976   -933.32371    6171.9494     78.53669    24.781474    16.346684 
 5179800    228.80218   -335.23318    181563.75   -14669.103    941.18186   -15610.285   -526.21685     6172.985    78.534526    24.782147    16.348018 
 5180000    220.69707   -326.33101    181563.75   -14701.613    907.84134   -15609.454   -470.61697    6171.1782    78.533809    24.783929    16.349513 
 5180200    221.08502   -386.34562    181563.75    -14684.29    909.43716   -15593.727   -773.50004     6169.138    78.532315     24.78464    16.347297 
 5180400    230.61618   -424.38026    181563.75     -14669.8    948.64379   -15618.444   -916.34538    6172.5682    78.531646     24.78614    16.348256 
 5180600    223.25519   -366.16904    181563.75    -14726.07    918.36423   -15644.434   -639.75516    6173.0321     78.53121    24.789417     16.34888 
 5180800    225.23844   -326.23032    181563.75   -14696.441    926.52234   -15622.964   -529.21632    6171.1636    78.528703    24.787682    16.348091 
 5181000    222.50553   -312.51878    181563.75   -14705.845    915.28048   -15621.126    -448.6564    6170.5449     78.52809    24.787851    16.353839 
 5181200    227.75779   -382.34633    181563.75   -14677.812    936.88575   -15614.697   -728.87162     6170.971    78.527839    24.788812       16.349 
 5181400    225.43297    -380.0611    181563.75   -14668.003    927.32254   -15595.325   -699.09722    6172.4222     78.52798    24.789515    16.349699 
 5181600    228.28156   -416.69302    181563.75   -14668.978     939.0403   -15608.019    -871.9669    6172.8458    78.528413    24.790656    16.351508 
 5181800    231.50809   -405.23924    181563.75   -14645.326    952.31265   -15597.638   -792.72593    6173.0877    78.527774    24.790417    16.352977 
 5182000    220.06639   -338.16607    181563.75   -14719.494    905.24701   -15624.741   -541.72935    6174.0756    78.528218    24.790196    16.344511 
 5182200    216.04499   -348.12318    181563.75   -14787.715    888.70494    -15676.42   -567.86982    6171.3846     78.52649    24.791195      16.3407 
 5182400    224.38952    -274.2841    181563.75   -14691.379    923.03031    -15614.41   -321.74746    6171.2313    78.528232    24.789775    16.352758 
 5182600    228.44764   -370.65525    181563.75   -14665.227    939.72347    -15604.95   -709.63127    6172.6941    78.529018    24.790726    16.345786 
 5182800    224.06279   -383.42764    181563.75   -14686.297     921.6863   -15607.983   -729.80299    6172.5647    78.529228    24.791304    16.351992 
 5183000    227.74313   -312.02279    181563.75   -14678.188    936.82544   -15615.013   -466.33557    6173.6849    78.529162    24.791797    16.352401 
 5183200    227.54685   -336.16581    181563.75   -14644.231    936.01803   -15580.249   -549.25328    6171.1519    78.528786    24.791232    16.338834 
 5183400    226.16651   -392.36618    181563.75   -14691.661    930.33997   -15622.001   -747.88211    6172.8357    78.528215    24.790529    16.342791 
 5183600    225.33317   -346.58973    181563.75   -14672.734    926.91202   -15599.646   -598.21407    6174.4854    78.528254    24.792139    16.346897 
 5183800    224.53681   -304.55255    181563.75   -14713.606    923.63619   -15637.242   -437.27971    6172.7064    78.527573      24.7912    16.345338 
 5184000    223.92923   -365.88755    181563.75   -14699.797     921.1369   -15620.934   -681.47417    6171.8149    78.529477    24.790908    16.348347 
 5184200    228.87942    -379.5889    181563.75   -14693.519    941.49958   -15635.018   -673.84689    6173.0587    78.530757    24.790172    16.349066 
 5184400    218.46365   -322.26364    181563.75   -14698.167    898.65411   -15596.821   -486.19352      6172.37    78.530549    24.789135    16.353418 
 5184600    220.32065   -362.18583    181563.75   -14671.637    906.29295    -15577.93   -644.56332    6172.1956    78.530173    24.789818    16.346697 
 5184800    235.65319   -367.92716    181563.75   -14635.878    969.36361   -15605.242   -660.27445    6176.0768    78.528448    24.789492    16.353862 
 5185000    231.17041   -367.86292    181563.75   -14628.535     950.9236   -15579.459   -667.60882    6173.7685    78.526751    24.788853    16.355107 
 5185200     225.4229   -299.03456    181563.75   -14681.213    927.28113   -15608.494   -430.02816    6171.7027    78.528508    24.789561    16.348932 
 5185400    224.33841    -352.6081    181563.75   -14693.505    922.82006   -15616.325   -612.54514    6175.1005    78.528698    24.790001    16.346682 
 5185600    222.90506   -371.73733    181563.75   -14746.232    916.92395   -15663.155   -681.26138    6174.9541    78.528466    24.788672    16.354093 
 5185800    226.40749    -346.2039    181563.75   -14690.013    931.33124   -15621.344    -577.9242     6172.166    78.527691    24.786541    16.348902 
 5186000     233.7062   -267.05578    181563.75    -14656.76    961.35461   -15618.115   -287.42033    6174.5504    78.529567    24.786318     16.35494 
 5186200    237.75526   -416.02584    181563.75   -14635.034    978.01051   -15613.045   -888.47902    6176.0706     78.53102    24.786002    16.348975 
 5186400    222.89358   -365.35383    181563.75   -14695.924    916.87672   -15612.801   -683.31683    6172.8236    78.531154    24.786603    16.355954 
 5186600    219.70159   -322.71585    181563.75   -14677.084    903.74642    -15580.83   -478.24367    6172.6694    78.533862    24.789073    16.355466 
 5186800    227.89869   -330.15852    181563.75    -14648.04    937.46532   -15585.506   -497.45853    6172.9171    78.535535    24.791372    16.350705 
 5187000    227.14292   -405.44148    181563.75   -14693.459    934.35644   -15627.815   -814.46498    6174.0301     78.53471    24.790557    16.353531 
 5187200    228.58447   -325.60797    181563.75   -14671.342    940.28631   -15611.628    -528.0232    6174.6444    78.534734    24.790257    16.360278 
 5187400    219.63435   -289.01276    181563.75   -14717.111    903.46983   -15620.581   -356.74098    6173.4052    78.535302    24.790999    16.351535 
 5187600    227.26961   -327.57607    181563.75   -14697.226    934.87758   -15632.104   -519.81837    6175.2501    78.534029    24.791033    16.357878 
 5187800    227.67402   -380.84702    181563.75   -14678.156    936.54116   -15614.697   -732.49962    6172.4566    78.532422    24.793228    16.359683 
 5188000    225.48141   -348.51368    181563.75   -14703.091    927.52182   -15630.613   -616.95485    6172.9907     78.53207    24.793607    16.360586 
 5188200    227.94268   -347.12997    181563.75   -14673.608    937.64627   -15611.254   -609.05894    6174.1769    78.531725    24.796256    16.359614 
 5188400    219.07423   -405.40955    181563.75   -14690.037    901.16575   -15591.203   -795.26015    6174.9374    78.530715    24.796753    16.354967 
 5188600    219.78091   -358.79257    181563.75   -14713.515    904.07268   -15617.588   -616.92504    6173.9445    78.530881    24.798309    16.356799 
 5188800    227.73841   -283.43028    181563.75   -14671.105    936.80603   -15607.911   -361.52032    6172.6402    78.532698     24.79886    16.354853 
 5189000     230.6472   -356.42119    181563.75   -14686.568    948.77138    -15635.34   -625.39573    6174.8964    78.534228    24.798814    16.358807 
 5189200    228.18077   -377.47187    181563.75   -14665.791    938.62569   -15604.417   -715.44821    6172.5517    78.535184     24.79815    16.362608 
 5189400    224.04692   -383.22516    181563.75   -14685.642    921.62102   -15607.263   -716.78457    6171.9229    78.534147    24.798567    16.349086 
 5189600    221.79935   -355.90456    181563.75   -14699.316    912.37557   -15611.691   -628.54754    6174.6482    78.533784    24.797849    16.348802 
 5189800    221.27553   -448.09654    181563.75   -14703.886    910.22086   -15614.107   -915.10843    6175.3638    78.533681    24.796652    16.353363 
 5190000    219.53431   -450.74886    181563.75   -14682.975    903.05831   -15586.034   -952.08617    6174.5806    78.534398    24.797594    16.348699 
 5190200    228.35447   -320.59833    181563.75    -14716.54     939.3402    -15655.88   -485.45456    6173.1296    78.533498    24.797345    16.353564 
 5190400     222.4727   -413.27222    181563.75   -14672.396    915.14541   -15587.541   -846.20285    6174.2087    78.533607    24.797321    16.352576 
 5190600    233.16439   -397.93834    181563.75   -14651.965    959.12589   -15611.091   -745.25835    6174.9215    78.534904    24.797019    16.355691 
 5190800    226.76068   -244.92218    181563.75   -14683.361    932.78413   -15616.145    -218.3211     6172.876    78.534443    24.799297    16.356746 
 5191000    228.79693   -369.11417    181563.75   -14731.448    941.16025   -15672.608   -710.79792    6174.5834    78.533562    24.800904    16.358013 
 5191200    226.64293   -443.49334    181563.75   -14702.882    932.29976   -15635.182   -953.02228    6176.4008    78.534568    24.801307    16.349762 
 5191400    231.87578   -418.44946    181563.75   -14689.564    953.82516    -15643.39   -847.38051    6175.1972    78.534317    24.802031    16.356079 
 5191600    220.94383    -309.5512    181563.75   -14688.774    908.85638   -15597.631   -485.44491    6175.0544    78.536019    24.804215    16.357696 
 5191800     223.3204   -399.09969    181563.75    -14703.26    918.63247   -15621.893   -769.42036    6173.8551    78.536235    24.802644      16.3528 
 5192000    223.62271   -353.26903    181563.75   -14664.936    919.87603   -15584.812   -590.85596    6174.9833    78.537994    24.804528    16.353809 
 5192200    232.26172   -277.98242    181563.75   -14612.999    955.41272   -15568.412   -338.67712    6172.1222    78.538396    24.806202    16.351176 
 5192400    232.87527   -338.23972    181563.75   -14606.439    957.93658   -15564.375   -548.90869    6173.4962    78.539481    24.805738    16.353456 
 5192600    232.60393   -380.30109    181563.75   -14678.789    956.82041   -15635.609   -698.80701    6175.9766    78.539496    24.807127    16.350402 
 5192800     225.5938   -326.30786    181563.75    -14696.78    927.98412   -15624.764   -505.18299    6173.2116     78.53785    24.808609    16.353718 
 5193000    226.34201   -312.26648    181563.75   -14681.172    931.06189   -15612.234   -512.46469    6174.7462    78.538836    24.807995     16.34675 
 5193200    233.66844   -398.59848    181563.75   -14673.291    961.19932   -15634.491   -810.42033    6176.3129    78.538394    24.809252    16.350252 
 5193400    223.31056   -389.66064    181563.75    -14733.99      918.592   -15652.582   -718.13793    6175.7609    78.539608    24.810709    16.344857 
 5193600    225.08268   -301.55756    181563.75   -14669.336    925.88162   -15595.218   -393.06126    6175.6707    78.537988    24.812446    16.352273 
 5193800    226.30954   -415.90542    181563.75   -14706.897    930.92835   -15637.825   -849.79826    6174.2485    78.538287    24.813868    16.355754 
 5194000    225.43986    -401.7102    181563.75   -14653.452    927.35091   -15580.803   -803.29359    6174.5059     78.54031    24.814736    16.355627 
 5194200    229.88166   -386.20237    181563.75   -14682.588    945.62233   -15628.211   -720.87833    6176.4142    78.539398    24.816922    16.356769 
 5194400    234.82304    -384.3628    181563.75   -14650.377    965.94876   -15616.326   -725.48379    6177.2375    78.537792     24.81894     16.35751 
 5194600    230.02588   -323.08835    181563.75   -14700.506    946.21558   -15646.722   -508.80745    6174.1765    78.537244    24.822404    16.350036 
 5194800    227.18001   -341.29373    181563.75   -14664.951    934.50903    -15599.46   -578.47029    6175.1642    78.538518    24.823699    16.357173 
 5195000    222.38396   -419.66693    181563.75   -14668.221    914.78037   -15583.001   -870.44755    6175.3198    78.537045    24.825921    16.358341 
 5195200    222.89091   -384.92206    181563.75   -14719.269    916.86576   -15636.134   -719.52888    6175.6587    78.536422    24.826983    16.362072 
 5195400    225.10474   -397.42386    181563.75   -14690.897    925.97238   -15616.869    -785.6534    6175.5197    78.537425    24.826616    16.365531 
 5195600    225.21275   -390.38445    181563.75     -14685.4    926.41666   -15611.817   -751.10891    6174.8087    78.538131    24.828228    16.354704 
 5195800    217.96097   -326.79078    181563.75   -14699.828    896.58633   -15596.414   -461.89876    6177.9763    78.537697    24.829208    16.354798 
 5196000    232.71547    -378.4684    181563.75   -14657.955    957.27926   -15615.235   -685.79637    6174.9806    78.536885    24.829674    16.356426 
 5196200    232.43243   -303.98361    181563.75   -14684.028    956.11494   -15640.142   -455.20687    6175.1439     78.53553    24.831068    16.361089 
 5196400     224.4277    -357.4191    181563.75   -14641.357    923.18736   -15564.544   -628.93459    6175.7472    78.534814    24.831971    16.364559 
 5196600    225.76867   -323.51377    181563.75   -14726.845    928.70347   -15655.548   -544.26946    6174.5938    78.534931    24.832773    16.357747 
 5196800     223.0797   -328.40947    181563.75    -14703.39    917.64234   -15621.032   -529.00416    6174.6225    78.534272    24.834549    16.366984 
 5197000    226.76565   -341.44999    181563.75   -14681.036    932.80456    -15613.84   -543.41455    6173.3692    78.532753    24.833243    16.359983 
 5197200    224.95507    -374.2058    181563.75   -14692.756    925.35671   -15618.113   -684.24619    6176.6507    78.530472    24.833676    16.364075 
 5197400    231.09361   -386.83751    181563.75   -14629.652    950.60768    -15580.26   -766.07521    6176.7548    78.531249    24.835366    16.361653 
 5197600    236.93911   -294.12298    181563.75   -14668.234    974.65327   -15642.887   -373.47897    6173.6825    78.529259    24.835763    16.358482 
 5197800    229.97574    -355.8698    181563.75   -14669.099    946.00932   -15615.108   -604.99462    6175.2678    78.528846    24.836345    16.360422 
 5198000    233.26963    -413.6605    181563.75    -14641.78    959.55881   -15601.339   -819.91975     6177.925    78.529552    24.837198    16.361026 
 5198200    221.95628   -369.80742    181563.75    -14682.25    913.02111   -15595.271    -669.3285    6175.9022    78.529247     24.83759     16.36007 
 5198400    221.75683   -334.88426    181563.75   -14706.494    912.20067   -15618.695   -506.35086    6174.9036    78.530073    24.838893    16.358388 
 5198600    228.70508   -335.73069    181563.75   -14688.265    940.78243   -15629.047   -543.65852    6175.9682    78.528821    24.841734    16.366106 
 5198800    217.09372   -369.27522    181563.75   -14734.825    893.01891   -15627.844   -678.26691    6175.3385    78.528269    24.841902    16.359657 
 5199000    230.99169   -381.60391    181563.75   -14707.955    950.18846   -15658.144   -757.75313    6176.7491    78.527577    24.843973    16.359814 
 5199200    228.14562   -346.36563    181563.75   -14713.845    938.48109   -15652.326   -572.80512    6174.6931    78.525898    24.845148     16.36874 
 5199400    215.24512   -309.04832    181563.75   -14740.347    885.41465   -15625.762    -468.0477    6174.3633    78.525802    24.845591    16.358793 
 5199600    210.65118   -395.01039    181563.75   -14735.573    866.51739    -15602.09    -809.9756    6175.8651    78.526521    24.847161    16.366201 
 5199800    224.48958   -351.66863    181563.75   -14683.629    923.44189   -15607.071   -592.33799    6174.7996     78.52374    24.848168     16.35949 
 5200000    227.64933   -271.21922    181563.75   -14682.478    936.43958   -15618.917   -328.15455    6174.6919    78.523458     24.85029    16.358328 
Loop time of 6090.32 on 64 procs for 5200000 steps with 9253 atoms

Performance: 737.695 ns/day, 0.033 hours/ns, 853.813 timesteps/s
100.0% CPU use with 64 MPI tasks x no OpenMP threads

MPI task timing breakdown:
Section |  min time  |  avg time  |  max time  |%varavg| %total
---------------------------------------------------------------
Pair    | 0.52743    | 1622.9     | 4717.1     |3685.1 | 26.65
Neigh   | 7.3334     | 224.37     | 515.97     |1206.1 |  3.68
Comm    | 179.05     | 1612.3     | 4271.5     |3356.6 | 26.47
Output  | 160.41     | 160.47     | 160.68     |   0.3 |  2.63
Modify  | 138.52     | 2407.7     | 5677.5     |4708.8 | 39.53
Other   |            | 62.53      |            |       |  1.03

Nlocal:    144.578 ave 292 max 0 min
Histogram: 16 8 0 8 0 0 0 2 19 11
Nghost:    960.828 ave 1327 max 657 min
Histogram: 13 3 1 5 18 0 11 5 0 8
Neighs:    0 ave 0 max 0 min
Histogram: 64 0 0 0 0 0 0 0 0 0
FullNghs:  15549.9 ave 35352 max 0 min
Histogram: 24 8 0 0 0 0 0 11 15 6

Total # of neighbors = 995192
Ave neighs/atom = 107.553
Neighbor list builds = 521339
Dangerous builds = 0
write_data 		${DIR}/data.${NAME}_run
write_data 		run_6/data.${NAME}_run
write_data 		run_6/data.ibeam_cooling_6_run
Total wall time: 1:41:42
