LAMMPS data file via write_data, version 7 Aug 2019, timestep = 5000000

4097 atoms
1 atom types

9.0201995864230611e-02 5.1329798004138425e+01 xlo xhi
9.0201995864230611e-02 5.1329798004138425e+01 ylo yhi
9.0201995864230611e-02 5.1329798004138425e+01 zlo zhi

Masses

1 18.15

Atoms # atomic

1033 1 5.2602266743755308e+00 2.7178888506710845e+00 3.0784072598712395e+00 2 1 2
3195 1 2.1299189194813165e-01 4.4019715597640552e-01 7.4654652930545140e+00 0 1 0
199 1 9.2564517067736034e+00 8.9032491877632347e-01 1.2453727115865971e+00 0 1 0
3920 1 9.7220801875588894e+00 2.2159709808707518e+01 4.7321219051897195e-01 1 2 3
2118 1 1.4691329653801168e+01 1.8340263378651429e+00 1.2405220688341465e+00 1 0 -3
3277 1 1.6959893118656694e+01 2.6179803474559766e+00 2.0636349655693857e+00 0 1 -1
1516 1 1.9009129604608564e+01 2.4815580957312891e-01 1.8276957031000918e+00 -2 0 1
2469 1 2.1167814157775229e+01 1.2631717457453633e+00 2.7516518763723230e+00 0 0 -2
2019 1 1.3336413752399185e+01 4.5877605138435884e-01 4.8808676246868297e+00 1 -1 -3
562 1 1.9997710869099130e+00 4.1084894780672352e+00 3.6385248820468263e-01 1 0 0
3777 1 4.6120590211228796e-01 2.2011514054132167e+01 1.0812042322355431e+01 0 1 -1
1421 1 4.5041425828091919e+00 4.4400501130220498e+00 1.4326998519539287e+00 0 0 3
2856 1 4.2806392345837692e+00 6.7661609335132518e+00 2.6791442841844004e+00 2 0 0
767 1 8.3442973790449688e+00 5.7349198766223184e+00 3.3511062951848500e+00 -1 -1 -2
963 1 8.6603357830724068e+00 5.2946708506548719e+00 7.6843937400998308e-01 0 1 0
1388 1 1.2718003218310114e+01 3.7811178447421865e+00 1.2057967619256165e+00 -2 1 0
1764 1 1.8132321859938557e+01 4.8054785394542465e+00 8.1216828703627664e-01 -1 1 1
910 1 2.2283321154996859e+01 3.7987492581896696e+00 1.8633660454314602e+00 -1 -1 1
1 1 8.8161692583032529e+00 2.5284107969868618e+01 1.0436763289140615e+01 -2 -1 0
46 1 3.8699043034045628e+00 8.6196124136378387e+00 1.1108053082159397e+00 1 1 -1
347 1 7.7989090675587258e+00 9.8684989482035590e+00 2.8076075790442467e+00 2 0 1
2071 1 6.6241685203298211e+00 7.8055942857529397e+00 4.0120578010286394e+00 1 2 -1
968 1 1.0025773470071243e+01 9.3053280174349737e+00 1.4255050189166292e+00 -1 0 1
3297 1 1.1765493451898640e+01 8.2697091191156300e+00 3.1501515249399379e+00 -1 -2 -1
2410 1 1.4138675804987523e+01 8.0606027082666323e+00 2.1281413507253579e+00 1 1 -1
1857 1 1.8405043543744782e+01 6.6425876857743598e+00 2.6207471870720935e+00 -1 2 2
2337 1 1.9222908557117655e+01 9.1889753484637886e+00 1.4776944928614779e+00 -1 -2 0
1235 1 2.8332474770267913e-01 1.4317984678960693e+01 4.6637580610441036e+00 1 -1 0
942 1 2.3436738329084548e+01 7.7488841918621540e+00 1.6183651594065649e+00 1 -1 -1
1225 1 1.6978583577335844e+00 9.6268226032189474e+00 1.7618661953607071e+00 2 2 0
3980 1 2.5076283200097262e+00 1.1960266534123539e+01 1.8831874746405071e+00 1 -1 1
1344 1 5.1754319894149337e+00 1.2443806872134623e+01 1.6191512420510046e+00 0 0 -1
2214 1 6.1845459950871300e+00 1.0300336900804547e+01 7.2628536967262203e-01 1 1 2
2592 1 1.4089705800746655e+01 2.5264203180847858e+01 5.4022588088928405e+00 -1 -2 0
3054 1 1.4885513488083603e+01 1.0510802428327443e+01 1.0933228222130513e+00 -1 -1 1
2093 1 1.5111209245921863e+01 1.2203506099432065e+01 3.2342346435377345e+00 1 0 -1
3580 1 1.9163735459300998e+01 1.1044740680506751e+01 3.3743567433824793e+00 0 2 0
398 1 2.2413177965171393e+01 1.3243779939473017e+01 1.5657122724010570e+00 0 0 2
2234 1 2.1596681798696775e+01 9.0657904996750602e+00 2.0496137501029710e-01 -1 2 2
1611 1 9.2782045517919833e+00 1.5276168349468687e+01 1.1664642559192682e+00 0 0 0
3565 1 1.0954915973532408e+01 1.3361189470236937e+01 2.1425122290151450e+00 0 0 1
3291 1 1.3640910579185562e+01 1.4115369267695367e+01 2.2219134360308970e+00 1 -2 2
526 1 1.7739980265301941e+01 1.3054303121628902e+01 3.3678017622249201e+00 0 0 0
1618 1 1.8270030024384862e+01 1.4086453828068787e+01 9.8776190044048406e-01 -2 2 0
643 1 2.0770979464032177e+01 1.5363066103669134e+01 8.1825515252070413e-01 -1 1 0
1579 1 2.4929447388890974e+01 1.4413864534296833e+01 1.4963650095036820e+00 0 1 1
3964 1 1.8977183381060052e+00 1.6165124462937577e+01 9.8845276892550726e-01 3 0 -1
3959 1 5.7690642200822371e+00 1.7610307019585658e+01 2.7752424307933858e+00 1 1 -2
2933 1 5.2032102819119990e+00 2.9067695679018768e-01 2.6298688283942377e+00 3 1 -1
1004 1 1.0737811212480928e+01 1.7515661562800890e+01 1.1277323421043821e+00 0 0 2
2781 1 1.6652973223313442e+01 1.7958290965188624e+01 2.3004837656574684e+00 1 1 3
1693 1 1.9046479943062028e+01 1.8979720851980101e+01 2.4900550569392048e+00 -1 2 2
1926 1 2.0934192711301886e+01 1.6920633988021624e+01 2.8751868314409954e+00 1 1 0
1043 1 2.3384990270045606e+01 1.7958550885342699e+01 3.1907032836921418e+00 -2 2 -1
955 1 2.3727535905251653e+01 1.9511633939434169e+01 8.2111123848419743e-01 -2 -3 -2
1311 1 6.2116353855087114e-01 2.0714728701112179e+01 2.7738135641164714e+00 1 -1 0
1156 1 4.8569374510266758e+00 2.1849291337184557e+01 2.3790138195862092e+00 -2 1 0
3354 1 6.8068084662521384e+00 1.9877762835810131e+01 2.3307326947542970e+00 1 0 3
3524 1 9.0371218091006256e+00 1.9585820178615482e+01 5.5887853334255777e-01 1 2 2
1236 1 5.4947981604013849e+00 1.9319356717853037e-01 1.3293477260058912e+01 -1 1 -1
1748 1 1.5045417796942600e+01 2.0009400941966909e+01 1.6058511822972330e+00 -2 1 1
845 1 1.6346491810535721e+01 2.2480544753870248e+01 1.8196974736339859e+00 -1 0 2
3260 1 1.1428344243770969e+00 1.3762304740268455e+01 5.1753376005583251e-01 1 0 1
1049 1 6.3730566210283550e+00 2.4239040668243796e+01 2.0260473529465743e+00 -2 1 2
1189 1 1.1429462152451478e+01 2.2797062210663402e+01 2.8609058161759524e+00 -1 -1 -2
1116 1 1.3231602641452708e+01 2.4894018229922487e+01 2.8860040601205617e+00 1 0 0
1483 1 1.4697298656533830e+01 2.4287877936131888e+01 7.1055302538736886e-01 0 1 1
4003 1 2.1277556981673250e+01 4.5477499199385116e+00 1.7025263206445956e+01 2 -1 1
2814 1 4.4302514987567392e+00 1.6654915514706339e+01 8.1615774171959254e-01 -3 -1 3
1654 1 1.4434044483068774e+01 2.4184180697919256e+01 1.4571412494143251e+01 -1 1 0
1860 1 2.3400180571658893e+01 2.2424587609185380e+01 2.6295973929823933e+00 0 1 1
2624 1 3.8859700882764154e+00 2.6525664541337526e+00 5.1016928596836415e+00 -2 -1 0
3217 1 7.3928811448266796e+00 3.3398718179906979e+00 4.5598907382458611e+00 0 1 1
3472 1 9.4603503777737465e+00 1.4052309997202064e+00 3.8515418531286487e+00 0 1 2
500 1 1.1489879484860321e+01 2.3246132809028666e+00 5.2657824986110127e+00 -1 1 -3
2972 1 1.5871759578149556e+01 7.6831215413891485e-01 5.8638210354634239e+00 0 0 0
617 1 1.6436709938297380e+01 3.1375123273897572e+00 4.7346784264141455e+00 -2 0 1
2959 1 2.0887436218463904e+01 1.5295322705973544e+00 5.4628578173224946e+00 0 2 1
2671 1 2.3009040543348288e+01 2.4099241272268728e+00 6.6329186856921982e+00 0 -1 3
999 1 1.5626327560120468e+00 4.0567786513065140e+00 4.7341100792116677e+00 -1 -2 1
3604 1 2.3107785400934735e+00 6.7653262596574333e+00 4.6927601891273678e+00 0 0 1
2543 1 1.0794958637515972e+01 6.2070397764716105e+00 4.4970459572613057e+00 0 -1 1
2056 1 1.2586700470900174e+01 4.2447609927336867e+00 3.8837510207216908e+00 0 2 -1
397 1 1.4814835925410181e+01 4.9802729717795993e+00 4.8804981332745214e+00 0 2 -1
499 1 1.8915627498176061e+01 3.5254672970433028e+00 5.5887919640216479e+00 1 0 1
1902 1 2.2573249421914422e+01 5.8679957869056825e+00 3.5932408654027546e+00 1 -1 0
842 1 1.9890578160257078e+01 5.7770838795791866e+00 4.5933384041709600e+00 1 0 0
2694 1 2.4145804038840208e+01 4.6207636034734119e+00 5.4021244454069670e+00 -1 -1 -1
1687 1 7.4151442913788546e-01 8.7346615749098007e+00 3.9841082194188289e+00 -1 -3 2
3994 1 3.3554723277352876e+00 7.6767764779991197e+00 6.8947017151314265e+00 2 1 2
333 1 6.0913714921238213e+00 8.0723115923479156e+00 6.4224457760660014e+00 1 -1 2
1944 1 1.5999393932930225e+01 7.1970232616892531e+00 3.7775511471322649e+00 -1 0 0
1110 1 1.5997070076576561e+01 8.9222319533946877e+00 5.7893249015035053e+00 1 1 1
2313 1 2.0288177204628465e+01 7.8055103116346283e+00 6.3479259427795141e+00 2 1 2
445 1 2.2759082035121491e+01 8.9165995201790373e+00 6.3815353564388557e+00 0 -1 1
1472 1 1.2876998419607055e+00 1.0302544498022646e+01 5.7600489210316832e+00 0 0 1
3477 1 1.9774530872600358e+00 1.2496320045974842e+01 4.3008371055765560e+00 1 0 -1
2752 1 7.9194695852267882e+00 1.1478426587290578e+01 4.5675613819326504e+00 0 -2 1
247 1 7.1433520470320975e+00 1.0256505923923518e+01 6.6805780834789470e+00 0 -2 1
3210 1 1.1859516791100509e+01 1.0132525539240440e+01 5.0577685031291457e+00 1 0 0
4088 1 1.0326029175121633e+01 1.2033774403705472e+01 4.4217683570959645e+00 0 -1 1
1593 1 1.4350530180478623e+01 1.0799177040165850e+01 5.2770728006798437e+00 0 3 0
3582 1 1.8643752688050380e+01 9.7123789470780757e+00 5.7887597565397471e+00 1 4 1
3394 1 2.1740856890605457e+01 1.1983875973383661e+01 3.8228592747880419e+00 -1 0 -2
2492 1 2.3647353508409282e+01 9.8227636218084164e+00 3.9975786700841902e+00 0 1 1
1530 1 1.5699515787212608e+00 2.2494412832661169e+01 1.6969977135884250e+01 0 -2 -1
1951 1 6.5090804046346831e+00 1.3449362752319820e+01 3.6522668785176493e+00 2 1 2
2909 1 4.3531173547804665e+00 1.3414919354429927e+01 5.2676495763193216e+00 1 1 2
1119 1 4.4799792224827488e+00 1.5713192780172193e+01 6.4521476857306830e+00 0 -1 0
4049 1 7.6019151406088445e+00 1.5683563124317370e+01 3.2511209743069842e+00 0 2 -1
2988 1 8.7648459364005298e+00 1.5816019328508373e+01 5.7384570513920039e+00 1 0 1
1253 1 1.0372770695252827e+01 1.3919685661146429e+01 6.4016442221902246e+00 1 1 0
3630 1 1.2869344144060413e+01 1.4969801447056545e+01 6.3512354932684376e+00 1 -1 0
2914 1 1.7640309362841570e+01 1.5010920089425687e+01 5.1944569845963988e+00 -1 1 2
1025 1 2.2089555454631682e+01 1.3981364256044159e+01 5.9204504573362362e+00 -3 -1 0
1705 1 2.0414284562979624e+01 1.5951860002387122e+01 5.3778983901408726e+00 -1 1 0
95 1 2.4578282620850217e+01 1.5185565623585445e+01 5.9336941247917432e+00 -1 0 -1
1047 1 1.4575245266674872e+00 1.6536531925266363e+01 3.6485564440310205e+00 1 1 0
1469 1 3.6162727897360578e+00 1.7678637661849805e+01 4.4802700504958288e+00 1 0 0
1903 1 1.1548217524873863e+01 1.8147749514163745e+01 3.5331039508628033e+00 1 0 0
1283 1 9.7886398494629034e+00 1.8299940993126405e+01 5.3397599805578304e+00 -1 1 -1
330 1 1.3385769102162406e+01 1.6174619362672686e+01 4.1458652137945817e+00 -1 1 0
1556 1 1.6003578223404467e+01 1.7035080746505066e+01 4.7597040898262266e+00 0 1 1
441 1 1.5788849024833480e+01 1.8859090086981755e+01 6.5455451168077410e+00 -1 1 -1
2576 1 2.5380200619414055e+01 1.6060136365121370e+01 3.4843866037417950e+00 1 -1 1
3227 1 2.8016639545916733e+00 2.1790439843881938e+01 4.0947557726519506e+00 2 1 -1
1072 1 3.5640265565989648e+00 1.9924799817527941e+01 5.9267202852311023e+00 0 1 2
2880 1 6.2832976599192305e+00 2.0395290484651667e+01 6.5752282262330448e+00 4 -1 1
2789 1 8.1247168456843326e+00 2.0270939775953337e+01 4.6514580239714993e+00 2 1 2
2637 1 1.2966603173097088e+01 2.0362904325405939e+01 3.5799137715191858e+00 0 1 2
3163 1 1.4039642667286936e+01 2.0942338505040276e+01 5.8114978515684150e+00 0 -1 -2
1622 1 1.8165043248640977e+01 1.9996538525871731e+01 6.9371213129044875e+00 1 0 0
2229 1 1.9225296942925716e+01 2.1034211320742358e+01 4.5244215379710093e+00 0 0 0
3698 1 2.1836946951853754e+01 2.1813266598264594e+01 4.8594245874982063e+00 1 1 0
3502 1 2.3464400910262391e+01 1.9767491473694903e+01 5.0363881054564450e+00 1 1 0
1794 1 3.1820502791658734e+00 2.4185127284079890e+01 5.1940202952857781e+00 3 0 0
2642 1 1.0190345635404092e+00 2.4293761929852238e+01 6.8049785694568303e+00 2 -1 2
2618 1 5.7104638511321930e+00 2.4797980296385042e+01 6.2059615140835476e+00 -2 2 0
961 1 9.2062537584632551e+00 2.2682400300005046e+01 4.7989126121539538e+00 2 0 -1
3512 1 7.7810041655683229e+00 2.4716888862862721e+01 4.4226296911469429e+00 -1 -2 2
816 1 1.5470951309231920e+01 2.3233515041334464e+01 6.0009560805615783e+00 -1 -1 2
2928 1 1.7697173636508140e+01 2.3257966456362908e+01 4.0925339168612185e+00 -1 -2 1
2418 1 2.1985337343602627e+01 2.3563500273104310e+01 6.6320886596230597e+00 4 1 -2
3067 1 2.8579572684496304e+00 3.1087856338565949e+00 1.7000272891274950e+01 0 -2 1
2010 1 1.4633702530521928e+00 1.2549576456050995e+00 9.6576082759069219e+00 0 -1 -1
3405 1 4.0344730404067946e+00 1.6718019888749394e+00 9.2974484379180407e+00 1 -1 0
1570 1 4.5519084720413341e+00 3.4394483364517856e+00 7.4891144109832926e+00 1 0 2
2704 1 8.5711633865889798e+00 1.9239395626188305e+00 8.5835741513649886e+00 2 -1 0
588 1 1.1340923991423281e+01 2.1527832040146544e+00 7.9187694150180850e+00 1 -2 1
1956 1 1.3040674922101980e+01 6.1849929016553640e-01 8.9436224766397387e+00 2 0 -1
2976 1 1.5623476915719928e+01 1.0544393134071570e+00 8.5704788229600659e+00 1 -2 -2
3633 1 2.0393196458378917e+01 2.3016078398309885e+00 1.0115917398944564e+01 0 0 2
2074 1 2.3011806624946640e+01 2.9494940362041580e+00 9.2018384575157182e+00 -1 0 -3
2061 1 7.2512182421907390e-01 5.2576092874077052e+00 8.5422971149696565e+00 1 0 2
1291 1 3.3241604500467061e+00 5.6588046136522845e+00 8.4640551394529009e+00 3 1 0
25 1 7.1179900305845099e+00 3.6532133986951529e+00 7.1643475836445312e+00 1 0 -1
2699 1 7.7303131255015094e+00 6.2993012705464952e+00 7.4166089903470827e+00 0 -2 1
3337 1 1.2138403192631833e+01 4.6151511072810392e+00 8.2786558607989207e+00 2 3 -1
3715 1 1.0322392978634335e+01 6.6679152073138042e+00 6.9122495977406659e+00 2 0 1
3077 1 1.4698065410074131e+01 5.2002675934126614e+00 7.4406953766299573e+00 2 3 0
666 1 1.6277441626950498e+01 3.5370939483178092e+00 9.0280766912344497e+00 0 2 0
147 1 1.9014122501912947e+01 4.0113300934224849e+00 8.3024363047700120e+00 1 0 1
2966 1 2.3341822102422867e+01 5.8097391648778691e+00 9.7456371593736790e+00 -1 -1 2
1097 1 2.4185987341652105e+01 6.6982741886389050e+00 7.1875431650928636e+00 1 -1 0
372 1 1.8965860579253697e+00 9.4607923543252728e+00 1.0082466967629566e+01 -1 0 1
1824 1 3.0107642083246771e+00 9.9858761040150998e+00 7.7071723065573385e+00 1 0 1
1718 1 6.9401994385542558e+00 2.5367324542151920e+01 1.2434379713792774e+01 1 2 0
490 1 6.9830148963334766e+00 6.2912465006453449e+00 1.0174836656123990e+01 -3 1 1
3207 1 1.1157393317696638e+01 9.1824804542603804e+00 7.5814727215871649e+00 1 0 -1
1346 1 1.5038163460840840e+01 7.8375206863633986e+00 7.9305649308259012e+00 0 0 -1
3107 1 1.3172067078030468e+01 9.1472500839946171e+00 9.1558903842124675e+00 1 2 -1
3265 1 1.7321954521475856e+01 7.9806825434448774e+00 9.6798210440543553e+00 0 2 1
181 1 1.9539422215763132e+01 6.6411313060338486e+00 8.6226236991017782e+00 0 1 -1
1431 1 1.3106743021684661e+00 1.1891772475697794e+01 1.0392291408720203e+01 1 2 0
2570 1 4.9652053205238751e+00 1.1620688623173633e+01 7.1590414191980907e+00 1 -1 1
3174 1 5.5647145986906450e+00 1.2401189501632247e+01 9.6506033031328133e+00 1 0 -2
2982 1 8.8919744008307067e+00 1.0251290094301531e+01 8.6517813534674843e+00 0 0 1
351 1 9.7278982502867120e+00 1.2611745480706812e+01 8.8335958635302188e+00 1 2 0
3843 1 1.3787056917314326e+01 1.1639021934442932e+01 9.7378362142848367e+00 1 0 -1
3809 1 1.8718784869258290e+01 1.1540309517754881e+01 7.8441691946061471e+00 0 -3 -2
2359 1 1.7898207861644114e+01 1.0556289666872514e+01 1.0216390631605737e+01 0 0 0
550 1 2.1217285049246023e+01 1.2789123792497483e+01 8.0770975760196642e+00 0 1 0
729 1 2.5398178974942613e+01 1.1414095718878700e+01 8.6347602320088601e+00 0 1 2
3037 1 2.2739402237334652e+01 1.0550529944529249e+01 8.5611935379367381e+00 2 1 -1
2900 1 2.7811290012711245e+00 1.5692778609966807e+01 8.3951353318737354e+00 1 -1 -1
14 1 3.4504873646491472e+00 1.3711780318891691e+01 1.0086189193439868e+01 2 -1 -1
1989 1 7.6858667992295420e+00 1.4159587301790744e+01 9.5152083867343116e+00 -1 0 1
952 1 6.9021512949312056e+00 1.6250209425492297e+01 7.9117451309429994e+00 1 2 1
2580 1 1.1503638113643621e+01 1.3004319151990947e+01 1.0631513585170628e+01 1 -1 1
1296 1 1.4636739805097170e+01 1.2827333817921788e+01 7.2647943402459241e+00 -2 1 -1
3936 1 1.7115091878784792e+01 1.3462778113697496e+01 7.2093689257209750e+00 2 2 1
753 1 1.6996714569745485e+01 1.5371515004805760e+01 9.2514257983267338e+00 3 -2 1
2344 1 2.1252742429842346e+01 1.4571421120782507e+01 1.0043970579309928e+01 -1 -1 0
336 1 2.6394692217957836e+00 1.8200041022201965e+01 9.5985284123736641e+00 0 3 -1
3526 1 1.6297866381680228e+00 1.9971730548461373e+01 7.8351949286518252e+00 2 2 1
2053 1 6.9250942691290920e+00 1.8503732514234077e+01 8.7895875335770146e+00 3 -1 0
318 1 9.1701753653955276e+00 1.8830583527190427e+01 1.0047594799478434e+01 0 0 -1
1939 1 1.0996666926840911e+01 1.8678349083342457e+01 8.0340917414123627e+00 0 -1 1
429 1 1.2847867682303866e+01 1.6773722452709212e+01 8.5239850630043321e+00 0 -1 0
3102 1 1.5093879113612047e+01 1.7755111605512511e+01 8.7723765189029983e+00 -3 2 -2
466 1 2.0022281722727087e+01 1.8037488762530426e+01 7.1651282715133977e+00 -1 0 0
332 1 1.9310668825205564e+01 1.6689008629201680e+01 9.5117796993634656e+00 0 1 -2
1578 1 2.2672842936524457e+01 1.8759685568554048e+01 7.2913191988295809e+00 -2 1 1
2989 1 2.4199189931128821e+01 1.6859644222888733e+01 7.8541691144359458e+00 2 3 2
2445 1 1.9558361195414438e+00 2.2397976219585505e+01 8.4402692466252045e+00 1 0 1
3136 1 1.2208613118414181e+01 2.1144866786060074e+01 7.6823804015456894e+00 -1 0 0
1665 1 1.3652970158135515e+01 2.1386983129322438e+01 1.0052483128092399e+01 -2 0 0
2119 1 1.8646298868368355e+01 2.1674887201770385e+01 8.9619916907178467e+00 1 0 -1
3200 1 2.2719632565538422e+01 2.0735931784048130e+01 9.2580457075284261e+00 1 1 -1
3442 1 2.5192175644695638e+01 2.1817038912599578e+01 8.9838203250786250e+00 1 0 -1
2720 1 4.5399227448289743e+00 2.2680657761922589e+01 9.5974709604175761e+00 1 -1 1
3168 1 6.6450222441590752e+00 2.2790171436552221e+01 7.7040438202383479e+00 0 1 -3
2299 1 8.9992078333120293e+00 2.3011835366880636e+01 9.0442598439164481e+00 1 0 1
2422 1 1.0748437915517481e+01 2.3233962324166676e+01 6.9324574810003936e+00 1 -2 -2
860 1 1.5079695839837948e+01 2.3849868914264992e+01 1.0057505274236238e+01 -2 -2 1
47 1 1.7262387659942345e+01 2.3974043944718051e+01 8.2222480263184199e+00 0 0 2
1425 1 2.1053102357035222e+01 2.2818779794993262e+01 8.9901840130934367e+00 0 1 -2
3266 1 2.4664806623234291e+01 2.4110671364047661e+01 7.4174322505016308e+00 2 0 3
1353 1 3.9389164643106261e-01 3.5436238677780696e+00 1.0472599146203070e+01 1 1 0
1602 1 5.7140799779959313e+00 2.4278078809173365e+00 1.1654886410649546e+01 1 2 1
156 1 8.3215764500175027e+00 2.5031046423527936e+00 1.1313283994780686e+01 0 -2 0
1858 1 9.7878660428427509e+00 6.4917925334025606e-01 1.2495141597696923e+01 -1 1 1
3368 1 1.2296508720888987e+01 1.0531147697314021e+00 1.1587666244733684e+01 1 1 1
1998 1 2.4481788773773833e-01 2.4142185754277339e+01 1.2514300845401532e+01 1 1 0
2211 1 1.7035759570111040e+01 2.4948522620360429e+00 1.3340171029106143e+01 2 1 -1
3558 1 1.9736096537220256e+01 2.8679247778006123e+00 1.2793451675803999e+01 1 2 1
1772 1 2.5087267270379691e+01 2.2259892120177107e+00 1.0549301092206241e+01 -1 2 2
207 1 2.3941417000912910e+01 2.0434427801456669e+00 1.3082554675155595e+01 0 0 -2
3681 1 1.8851714676553555e+00 4.3806189538094031e+00 1.2616194429246697e+01 1 1 0
170 1 1.2066352896638628e+00 6.8066704314792235e+00 1.3573979650664933e+01 -1 1 -2
1669 1 4.2521837931517359e+00 4.5322351942107542e+00 1.2467084808932956e+01 0 2 1
345 1 4.4629709253187748e+00 6.3078167105055210e+00 1.0661054798171767e+01 -2 0 0
717 1 9.0878745410653465e+00 4.9405269348440974e+00 1.1552989951368408e+01 1 2 2
607 1 1.1761594258384584e+01 5.1413550668059456e+00 1.1352938078254827e+01 -1 3 0
3060 1 1.3360605115498382e+01 3.3501436384042145e+00 1.2291340311584957e+01 1 0 1
2379 1 1.5776902510079912e+01 4.0992389960398254e+00 1.1634691382609747e+01 0 1 -2
2346 1 2.0371042561267398e+01 5.9320651621326723e+00 1.2811590577154970e+01 -1 2 0
1417 1 2.5105802133141868e+01 5.7971261212807939e+00 1.1462539376226180e+01 -2 0 -2
706 1 3.7806939670025526e+00 8.5526289858596964e+00 1.1740747106240260e+01 -2 0 0
3673 1 8.2441198658570780e+00 8.7718285740389845e+00 1.0831104627203180e+01 2 1 0
3220 1 1.2475505913943035e+01 7.9600744354769253e+00 1.1452749100224915e+01 0 2 -1
560 1 1.0240581905540941e+01 9.0709920784671478e+00 1.2445367963777905e+01 2 -1 0
1567 1 1.4117930545836288e+01 8.0925751014888689e+00 1.3382402141833655e+01 -1 1 -2
3028 1 1.6226910283459368e+01 6.7852156177547940e+00 1.2136632613081131e+01 2 2 1
198 1 1.8234481477839207e+01 6.9931541891613476e+00 1.3946266816301849e+01 -1 2 -2
3946 1 2.1148842397606813e+01 7.0211835098587922e+00 1.0522788935533741e+01 1 2 0
2922 1 2.1912478730233218e+01 9.5572022575120954e+00 1.0954017736542840e+01 1 0 0
1852 1 2.3654582042075734e+01 9.7598397536811810e+00 1.2694546408634542e+01 -2 0 2
2209 1 2.2237917209406239e+00 5.3747321018380056e-01 5.2151779356367376e+00 0 3 1
3748 1 5.9800036474252174e+00 1.0255548499843329e+01 1.1104393408520149e+01 -1 3 -1
3499 1 1.0734721763893518e+01 1.1785963007713947e+01 1.3071007790325579e+01 0 2 -1
1137 1 1.5700567004542055e+01 1.1934882027356821e+01 1.1443535318010509e+01 1 2 0
2847 1 1.4849699717449841e+01 1.0710016862947914e+01 1.3652413430773297e+01 1 -1 2
254 1 1.9805844044708515e+01 1.0880939855760865e+01 1.1984067170797461e+01 1 1 -3
2226 1 2.4663801376480933e+01 1.2345275321865580e+01 1.3030774298081393e+01 2 0 -1
1143 1 1.5695005183955018e+00 1.5763658134134330e+01 1.3333256490362551e+01 0 -1 1
3074 1 4.1592705177660036e+00 1.4721270440745682e+01 1.2644598311030736e+01 1 1 2
3685 1 8.0422897831698954e+00 1.5245957071675967e+01 1.1821762612530744e+01 0 2 1
2412 1 1.2224911685849003e+01 1.5682665795223960e+01 1.1024402038075731e+01 1 -1 0
359 1 1.4301387731628848e+01 1.5784420543896076e+01 1.2794277373821377e+01 -1 1 -1
567 1 1.6269178571905051e+01 1.4394557262517251e+01 1.1668217347985776e+01 1 3 -1
2819 1 2.0510636066629338e+01 1.3561756874368374e+01 1.2413505019930209e+01 1 -1 1
3001 1 2.5321099612434637e+01 1.3389623509221252e+01 1.0591609916383245e+01 1 -3 1
3589 1 2.3519024039276168e+01 1.5628354631431908e+01 1.0170576964741839e+01 -1 -2 1
101 1 1.0249416606075776e+00 1.7701272358810851e+01 1.1593395404999940e+01 -2 2 0
3535 1 5.8752255033542156e+00 1.6657143060250011e+01 1.2604421701673443e+01 2 2 1
3912 1 5.1213732255359741e+00 1.8352477859255192e+01 1.0716765265118100e+01 2 1 -1
1645 1 9.9589300272666250e+00 1.6888657024494702e+01 1.1760760185838965e+01 -1 -1 -1
3889 1 1.4996330576426788e+01 1.8475321750149632e+01 1.3084295627887277e+01 -1 0 -1
2103 1 1.9639461273276517e+01 1.8469976475932377e+01 1.1701633030388166e+01 0 0 0
2701 1 2.3915118063609277e+01 1.7744023026361958e+01 1.2191575484188478e+01 -1 1 1
3707 1 3.2009481830686530e+00 2.0334084947977534e+01 1.3406686631903982e+01 1 1 -1
1284 1 8.0186480352035094e-01 1.9954676359851867e+01 1.2656515140961472e+01 2 3 0
2034 1 5.0353104470597732e+00 2.0995497494133353e+01 1.1619412623655576e+01 -1 2 -1
2555 1 7.5266283199330877e+00 2.1362581659185029e+01 1.2954954209471321e+01 0 2 0
386 1 9.2883499422682210e+00 2.1518286681571368e+01 1.0963892281567254e+01 1 -1 0
2627 1 1.1827198848478993e+01 2.1609285410926731e+01 1.1994397326884986e+01 2 1 -2
3167 1 1.5346258236910026e+01 1.9496790567701833e+01 1.0802137876376825e+01 1 -1 0
178 1 1.7731048497570022e+01 2.0661686390797815e+01 1.1295398966637105e+01 0 -3 -2
1106 1 2.2013878876791068e+01 1.9556455125090430e+01 1.1503578359425529e+01 0 3 0
2740 1 2.2510314384436146e+01 2.1859943245978076e+01 1.2607723068300801e+01 1 -1 0
1282 1 2.5249926693958820e+01 2.2723307607650497e+01 1.2310509965619433e+01 -4 -1 -1
3941 1 2.5521121587725788e+00 2.4520222598048996e+01 1.3238003265526011e+01 -1 -1 3
488 1 4.6579288824980747e+00 2.4916290768393218e+01 1.1198008716853826e+01 2 -1 -1
3699 1 2.5676930114041127e+01 6.6908654790383215e-01 1.4733313506742531e+01 2 2 0
3229 1 1.1981523663827033e+01 2.3967778685277267e+01 1.3174455020779190e+01 -1 1 1
1362 1 1.6122877713465293e+01 2.4193799323383750e+01 1.2478931942005376e+01 -1 0 -2
69 1 1.7823810713682295e+01 2.2429666419722952e+01 1.3241507281113581e+01 1 -1 -1
956 1 2.1013827002659156e+01 2.5184805825820579e+01 1.0446182495225386e+01 0 2 3
1588 1 2.0467320026262136e+01 2.3545837765480211e+01 1.3076003416645866e+01 -1 -1 0
1300 1 1.4889601430919555e+00 2.5657594647874178e+00 1.4579144188758283e+01 2 0 0
2481 1 1.0850746375202990e+01 1.1636336212572859e+01 3.2027659314027213e-01 1 1 3
862 1 5.6699432114451316e+00 3.5942334505817337e+00 1.6594080973447070e+01 0 -3 0
1159 1 6.6781818428453628e+00 1.1617456612258488e+00 1.5704861837701394e+01 0 1 -2
828 1 9.1916951538207563e+00 1.1251800877668423e+00 1.5075218996977258e+01 1 -2 1
3365 1 2.5056066823029560e+01 2.2990603850918248e-01 6.3209915207549345e+00 -1 1 -1
3198 1 1.4209329732061658e+01 2.9360598320501881e+00 1.6321446177462899e+01 2 1 -1
2109 1 1.6904664148940409e+01 3.3751995119977924e+00 1.5807928997614908e+01 1 2 -3
1199 1 2.1414678099111228e+01 1.3013937317484969e+00 1.4137974562013854e+01 -2 0 0
1051 1 2.0745090838434532e+01 2.1823931451409906e+00 1.6750394818237549e+01 1 2 0
2235 1 1.0032719781988400e+01 2.3802718679520734e+01 1.5202156882539681e+01 0 0 -2
3282 1 7.4817939339189667e+00 2.3597145802379650e+01 1.4283217770904365e+01 1 2 1
1583 1 5.9893615108636107e+00 5.1274011369834271e+00 1.4490447003864787e+01 -1 2 0
1454 1 8.7275669905033428e+00 5.6266643395988316e+00 1.4090525923225945e+01 -1 0 1
220 1 1.0274049842118924e+01 3.8914104738279836e+00 1.5309256179250585e+01 1 1 -2
145 1 1.2556204481946429e+01 4.3255063898668160e+00 1.4858444738523229e+01 -2 1 -1
2015 1 1.7275437105236300e+01 5.8371816742431424e+00 1.6145364023615723e+01 0 2 2
1666 1 2.4748619367045489e+01 2.8085528457698872e-01 4.7432673334121794e-01 1 0 1
2366 1 2.2208916649993142e+01 5.4369635857292309e+00 1.4700191985647717e+01 0 0 -2
3856 1 2.4626021868270691e+01 4.6216734413716658e+00 1.3691916318257185e+01 -1 2 0
446 1 3.2062142275259480e+00 8.4851495752520858e+00 1.4312154275739891e+01 0 0 0
3350 1 5.4352104533404448e+00 7.6231972312219547e+00 1.5713643602589002e+01 0 0 -1
2069 1 7.1411101570298330e+00 9.6437551791595073e+00 1.5282204669420882e+01 0 -1 0
2865 1 9.3175154349065252e+00 8.1751727278908373e+00 1.4568849846396091e+01 2 0 1
1314 1 1.1230222587687228e+01 8.4325826650083826e+00 1.6369035663962162e+01 0 -1 -1
2348 1 1.3276236023731290e+01 6.7148682087913523e+00 1.5314169757341121e+01 -2 -2 1
2147 1 1.8813288667992211e+01 9.6101811512302717e+00 1.3929256306569112e+01 0 -1 1
389 1 2.0733796603927686e+01 9.5330277620378947e+00 1.6039856073235431e+01 0 1 2
3489 1 2.2954155198604944e+01 8.4642266332866996e+00 1.4941080002124000e+01 0 2 1
3900 1 3.3123427225920604e-01 3.9762982977361556e+00 2.3875939953600724e+00 -1 2 1
950 1 2.4891227327985650e+00 1.1102767200812334e+01 1.4557681311008448e+01 0 -1 1
3055 1 2.2123493337114112e+01 2.1307347042633669e+01 3.9063533180594084e-01 2 -2 1
3961 1 6.3717122427167556e+00 1.1572308034655340e+01 1.3502177998589660e+01 0 -3 1
3752 1 4.3795113574816726e+00 1.2813559632194536e+01 1.4400616421299580e+01 -1 0 1
3084 1 8.4265279113271294e+00 1.3126742687440967e+01 1.3384347385538371e+01 1 0 -1
380 1 1.1726126627968434e+01 1.1077357307758440e+01 1.6910078427738732e+01 1 0 -3
2078 1 1.2612759833392031e+01 1.2119502369215716e+01 1.4662947709709501e+01 -1 0 2
3380 1 1.7100712922249869e+01 1.1186777673019863e+01 1.5635547171489687e+01 0 0 3
1966 1 6.9561605912926323e+00 2.7171663524662198e-01 5.1006823937384160e-01 0 0 0
1433 1 4.5138481250054872e+00 1.3620775279563933e+01 1.6783058080250726e+01 2 1 0
3596 1 6.6184428556567383e+00 1.5230837830333568e+01 1.6970846139870037e+01 2 0 1
639 1 8.7537702515165723e+00 1.4103379479140804e+01 1.5957982003407793e+01 0 1 1
2634 1 1.0837950573912215e+01 1.5806574641021722e+01 1.5751822230606299e+01 -2 0 2
2141 1 1.5399819004616758e+01 1.4686607719000527e+01 1.6638508709473570e+01 1 0 0
747 1 1.3359741140895133e+01 1.4517680734890796e+01 1.4945573469161495e+01 -1 -1 2
739 1 1.8314189378481831e+01 1.4769205811597427e+01 1.3278997314723281e+01 -1 -1 0
1438 1 1.7842084781607223e+01 1.3707182931602478e+01 1.5783703263627434e+01 -1 2 2
2540 1 2.2364915403773182e+01 1.3260314502595753e+01 1.4219251794180341e+01 -1 0 1
1254 1 1.6846831535707494e+00 1.6628590065652727e+01 1.5736874606849156e+01 -1 1 -1
298 1 3.9025237011420515e+00 1.8514799399083440e+01 1.5510425295075022e+01 0 2 -1
3452 1 6.2360484290860860e+00 1.7358774793871444e+01 1.5118883987695298e+01 -1 0 1
2064 1 8.1743879026190402e+00 1.9240292406137186e+01 1.4603621085226941e+01 -1 1 -2
1191 1 1.0185180573860785e+01 1.7845802957027246e+01 1.4048563988318355e+01 -1 1 -2
476 1 1.3642031819855143e+01 6.2005805020693456e+00 4.8454480353732521e-01 -3 -1 1
537 1 1.9035985332786328e+01 1.7269072944199554e+01 1.4173348882275418e+01 -1 -1 1
1202 1 1.6644862307702475e+01 1.8316287862158564e+01 1.4974077474704574e+01 2 1 0
786 1 2.1320768586576257e+01 1.7283443756848818e+01 1.5833543823444936e+01 1 -1 -1
3398 1 2.3131791644665931e+01 1.5891246972276802e+01 1.4299777520409155e+01 2 0 1
123 1 1.2286352955799982e+00 2.0479972571367437e+01 3.4187031055497719e-01 1 -2 0
2761 1 1.2673694931667358e+01 2.0294250578597090e+01 1.6179658702224174e+01 1 0 -2
3948 1 2.5272064710670929e+01 1.5382122645672727e+01 1.5842036060980798e+01 -2 -1 -2
1650 1 1.2105444947370131e+01 1.9407480818217017e+01 1.3592033223541700e+01 -1 0 0
20 1 1.4820770319919747e+01 2.2208211564827412e+01 1.6011688654630319e+01 0 1 1
3723 1 1.7317686585473343e+01 2.1014616567136702e+01 1.5627241149569096e+01 2 1 -2
1992 1 3.3043578897284367e+00 2.2632363212623559e+01 1.4970733851309259e+01 1 0 -3
414 1 1.2931662750946318e+00 1.0488541689661663e+01 1.7014358580220339e+01 1 -2 3
3637 1 5.6055278866667937e+00 2.3050522421506056e+01 1.6088725790405668e+01 2 -3 -1
3514 1 3.2490710208770213e-01 6.6377470024935530e+00 1.6061892013359582e+01 0 1 -2
2168 1 4.1343666824178754e-01 1.4914455664636520e+01 7.4144055976432925e+00 1 -1 1