LAMMPS data file via write_data, version 7 Aug 2019, timestep = 200000

4097 atoms
1 atom types

2.2536847566680152e-01 5.1194631524334724e+01 xlo xhi
2.2536847566680152e-01 5.1194631524334724e+01 ylo yhi
2.2536847566680152e-01 5.1194631524334724e+01 zlo zhi

Masses

1 18.15

Atoms # atomic

3076 1 2.0949979000842998e+00 2.8678021823966215e+00 3.3137480754880198e+00 1 1 0
946 1 4.6490132822838763e+00 3.1137786859036338e+00 2.2464675169316743e+00 0 0 1
3890 1 8.3507301783251329e+00 9.2716294368879950e+00 1.7003309873415354e+01 0 0 1
2797 1 2.4576121426227282e+01 9.3676992956674905e+00 1.5324448527416447e+01 0 0 1
2415 1 2.5520062476793356e+01 2.1296430250081741e+01 6.3442002722902506e+00 1 0 0
2037 1 2.3880693192000013e+01 3.5400187575523745e-01 7.3517147933166722e+00 0 1 1
3403 1 9.6668114948540502e+00 2.3040534873928969e+01 1.5638791881830521e+01 0 0 0
1707 1 2.1674548899926812e+01 3.9077757978898018e+00 1.4354940746191100e+00 0 1 1
995 1 2.4356898113602899e+01 4.9042787754633572e+00 3.1852862851390568e-01 0 0 1
4056 1 1.7500092248732444e+00 5.0539027413756772e+00 1.4359809268488823e+00 1 0 1
2396 1 2.9265067000239986e+00 7.2790999921040855e+00 2.8883638251260773e+00 1 0 0
1201 1 1.4334928604309816e+00 2.3830474118371349e+01 1.6530874642139320e+01 1 0 0
293 1 1.0840843539475982e+01 4.9211661816038346e+00 4.7579243863678782e+00 0 0 0
2714 1 1.2678170631052202e+01 3.7557398331752503e+00 3.4889659341998902e+00 0 0 1
216 1 5.3732282450763238e+00 5.6937182516972387e+00 3.2390962851778649e+00 0 0 0
1157 1 1.6701128619629557e+01 5.5439959798064979e+00 2.7546821574453859e+00 0 1 0
2446 1 1.9245087066827832e+01 5.4603697323667735e+00 5.0852405216661034e-01 0 0 0
396 1 2.4344867628470507e+01 7.2643462547554272e+00 1.9159408370455164e+00 0 0 0
1171 1 2.5173230554827196e+01 1.9483246936925561e+01 1.0425099408001531e+01 0 0 0
2320 1 1.5196933069636094e+00 2.2538107275372553e+01 3.5989893709578786e+00 1 0 0
100 1 7.5416561215742570e+00 8.9260925901381238e+00 2.1885763656864605e+00 0 0 0
3232 1 8.9868404804819679e+00 7.3636106170548326e+00 3.9943116171513515e+00 0 0 0
848 1 1.6616990871218270e+01 4.2149768918756636e-01 4.7063739427443974e-01 0 0 1
404 1 2.1132223488410872e+01 1.1452194848771982e+00 2.1305117250307384e+00 0 0 0
577 1 5.6657071288545433e+00 1.6215171386242119e+01 1.0107621302838421e+00 0 0 1
1186 1 1.4497889177169116e+01 1.6929446293532106e+01 1.4389885973794585e+00 0 0 0
3854 1 1.7686109212970663e+01 9.8544720856395660e+00 1.6589402688137547e+00 0 1 1
2469 1 5.7415333375085575e+00 2.5255927885681803e+01 1.4934715837068632e+01 1 0 0
317 1 1.9720905529389228e+01 2.4675594175066522e+01 1.3504598261869814e+01 0 0 0
1154 1 2.4051737176721179e+01 6.0421536866928705e+00 5.0868841599973900e+00 0 1 0
3383 1 6.6106723845733639e-01 2.3480269697155066e+01 9.3133979250051198e+00 1 0 0
2522 1 2.5148232598072271e+00 1.2239950567375862e+01 4.1154780761943517e+00 1 0 0
3245 1 6.1238337945884036e-01 8.8457917741435086e+00 1.1969012652261098e+01 1 0 0
1691 1 4.8601978722761823e+00 2.5180132996281635e+01 1.4402738557609196e+00 0 0 1
827 1 1.4119882522244485e+01 1.0911145402711217e+01 2.0818404578308569e+00 0 0 1
1013 1 1.6180556279726744e+01 1.1723841299852024e+01 3.6888349750605025e+00 0 0 1
564 1 2.1531920428456672e+01 1.0191083072989411e+01 8.7829794155663476e-01 0 0 0
1946 1 2.1334399243054282e+01 1.3094530522254544e+01 5.9770590131110102e-01 0 1 1
1228 1 1.0012727762004863e+01 2.6942725072756241e-01 8.9195484276355739e+00 0 1 0
1143 1 6.8754092529046122e+00 1.3625986970680810e+01 5.8946890932836036e+00 0 0 0
4038 1 1.9591177757767975e+00 2.4894413653954346e+00 1.4324152645042899e+01 0 1 0
602 1 9.1100639263984391e+00 1.3716218603850210e+01 2.5869515060622601e+00 0 0 1
1875 1 1.2267646598412549e+01 1.6004650790005613e+01 2.4791131173520592e-01 0 0 1
160 1 1.1921608701616821e+01 1.3675280612132889e+01 3.2775905841254573e+00 0 0 0
956 1 1.6763454156596129e+01 1.4228589446984145e+01 2.8686398704348752e+00 0 0 1
2153 1 2.4865852029453393e+01 8.6146617481573724e+00 6.4898842956691389e+00 0 0 0
73 1 1.9505555568006063e+01 1.4169759349079365e+01 2.5065142474820568e+00 -1 0 0
3 1 2.4494108657835245e+01 1.3789281257790057e+01 4.4145016334837726e+00 1 0 0
1817 1 1.1289144740283863e+00 1.6021226505955454e+01 3.7735038990937380e+00 0 1 1
376 1 8.7403961166586086e+00 1.7545315245321225e+00 3.6302184958241079e-01 0 0 0
2301 1 8.4853623128685030e+00 1.7681370052638226e+01 4.4977251731615215e+00 1 0 0
2170 1 9.7000246888904815e+00 1.6371734247031316e+01 1.2650762558080113e+00 1 0 0
128 1 6.9148421761785599e+00 1.8775250012239873e+01 2.0025174719498331e+00 0 0 0
3175 1 9.8287872493846216e+00 2.5463772727971389e+01 1.7604919775533470e+00 1 0 0
2091 1 1.2336348363036013e+01 1.5945588012134618e+01 4.3658084413230851e+00 0 0 0
3937 1 5.1126687753658260e+00 9.7085386498856714e+00 2.7827418913571251e+00 1 1 1
604 1 2.0393189774128025e+01 1.6788822414092092e+01 2.3036685729113162e+00 0 0 1
408 1 1.8298854130808294e+01 1.7281408457776696e+01 9.1091710331860887e-01 0 0 0
2371 1 2.3055632013131785e+01 1.6311910691935253e+01 1.6638351825917659e+00 0 0 0
466 1 2.2505827028946303e+01 1.8490259545444439e+00 1.0698091994164596e+01 0 0 0
2919 1 6.3469404329963641e+00 2.3063309302815398e+01 2.8213496400963627e+00 1 0 1
2016 1 3.8368204774421653e+00 9.6826695533596840e+00 2.9674093210279323e-01 0 1 1
255 1 1.2909516123446135e+01 1.3084387121067358e+01 5.0885331716915805e-01 0 0 0
182 1 1.0941057539616507e+01 1.7921928773472832e+01 3.4422018672144432e+00 0 0 0
2944 1 1.2916585954791399e+01 1.9240306178331146e+01 1.3007875124319710e+00 1 -1 1
923 1 1.4947966831356750e+01 2.0946733638113258e+01 1.6304259235936631e+00 0 0 1
1843 1 1.6968316221553742e+01 1.9257248049546330e+01 2.3648308733435126e+00 0 0 1
798 1 2.3893931544757049e+01 2.5253400232877969e+01 2.8446763485933499e+00 0 0 1
3869 1 1.9394449389421201e+01 2.0722672838655150e+01 2.1543479454522698e+00 0 1 1
1065 1 2.3590854052393492e+01 2.2431736559485191e+01 2.9356747527183060e+00 0 1 1
23 1 7.8704606233310559e-01 1.9539891010225691e+01 1.4081337189505655e+01 0 0 0
538 1 6.3911726678738194e+00 6.3910587766318772e+00 8.8786508785970486e-01 0 0 0
1169 1 2.1227772643582443e+00 2.4628193977728813e+01 1.9047973828039189e+00 1 0 0
1046 1 2.5352241405523426e+00 2.7080360226661265e-01 1.0654916000299780e+01 0 1 0
1254 1 1.2166692890021618e+01 2.0694003784940556e+00 1.5317791447973488e+00 0 1 0
1711 1 9.0445881508492629e+00 2.2878828063736467e+01 2.3633608940068109e+00 0 0 1
1000 1 2.5074643622229274e+01 2.0457122431129076e+01 3.3426076504326789e+00 0 0 0
502 1 1.5733161643381809e+01 2.3116890855736049e+01 3.3438478877586157e+00 0 0 0
594 1 1.8584454245716433e+01 1.7443578768269202e+01 1.6403787899333530e+01 0 0 0
2309 1 1.8152869168809236e+01 2.3600823506225950e+01 2.6286479583241080e+00 0 0 0
156 1 7.5124729099225185e-01 2.2079195632392430e+01 1.2734637709640449e+01 0 0 0
818 1 2.3104806619069476e+00 1.5518674222978115e+01 1.1985676262728915e+00 0 0 1
2738 1 1.5524912075177295e+00 4.2134998042276681e+00 5.8582361468722342e+00 1 1 1
3182 1 6.5143414883614730e+00 1.1122519755875819e+00 4.0030284034768453e+00 1 1 0
762 1 9.7155103915074399e+00 2.6527049294687988e+00 5.8376491243734554e+00 0 0 1
792 1 9.3686540363294597e+00 1.8741818073232899e+00 2.8062165278886910e+00 0 0 1
1770 1 1.1991454731455976e+01 1.8638233641661541e+00 7.1214197787286242e+00 0 1 1
2168 1 1.7211918415548251e+01 2.8189112996970329e+00 3.6473598142081540e+00 1 0 0
974 1 1.9247568518310509e+01 3.9222483287626542e+00 5.1691177931595282e+00 0 0 1
146 1 2.1781890650273542e+01 4.5748925916152317e+00 4.0702710130576509e+00 0 0 0
965 1 1.7048725437352541e+01 3.1921858415791386e+00 7.5912158708853117e-01 0 1 1
2849 1 7.8098479488315442e-01 9.3414260543069592e+00 4.1104044569148517e+00 1 0 1
1234 1 3.1018586842328806e+00 7.2938512986365662e+00 5.8121501587039672e+00 0 1 0
3844 1 3.6232053062523901e+00 2.3677877138333807e+00 6.5084121609934114e+00 0 1 1
2930 1 6.8017922350855935e+00 6.8686808742409564e+00 5.2197398849001022e+00 0 0 1
2129 1 1.1482893568315330e+01 5.5477170804151150e+00 7.4011572280955189e+00 1 0 0
40 1 1.4746895926097617e+01 2.8392706915274806e+00 4.9617494412331293e+00 0 0 0
1720 1 1.3841014193620856e+01 6.1357951720233217e+00 2.6253653963922008e+00 0 0 1
3596 1 1.5385254861721213e+01 6.5475706710954302e+00 5.5580460007134915e+00 0 1 0
1098 1 2.0576870453340721e+01 7.3651190055971503e+00 4.3980382317956108e+00 0 1 0
780 1 6.7515675109036737e+00 2.5225033230216802e+01 7.0360694879269223e+00 0 0 1
2067 1 2.8138956345564021e+00 9.9865418106789612e+00 6.6646691670441962e+00 0 0 0
1227 1 5.7920379172612133e+00 9.1792659386846474e+00 6.5206544284542494e+00 0 1 0
464 1 1.0822650698528475e+01 9.4886525388206859e+00 4.0722065316104645e+00 0 0 0
2144 1 1.3355948731513479e+01 8.7495745330190591e+00 3.5163402900591136e+00 0 0 0
121 1 1.8824149095065749e+01 7.2110798399879590e+00 2.4709839828819979e+00 0 0 0
175 1 2.1883085417465598e+01 9.2281654354349154e+00 3.2696795677652792e+00 0 0 0
1195 1 2.2081407521704097e+01 7.1341421515265617e+00 9.0697464454851300e+00 0 1 0
78 1 2.2654018715292841e+00 1.3264729933798669e+01 6.8310934363517930e+00 0 0 0
3187 1 9.6150329234495280e-01 1.1730100472589022e+01 1.1179998944467293e+01 1 0 0
2325 1 5.3667900147328735e+00 1.1305405775948419e+01 4.9221123537759555e+00 1 0 0
1450 1 8.4803455055180272e+00 1.1273897225655483e+01 4.0057906837389794e+00 0 1 1
2743 1 1.2309847084841167e+01 1.0915239721781967e+01 7.0672971758182088e+00 0 0 0
1191 1 7.8858927344859708e+00 1.4114927032499967e+01 8.3088388330096610e+00 0 1 0
1376 1 1.6838449147282539e+01 1.0517749196348003e+01 6.4176633079586232e+00 0 1 0
3917 1 1.9307821864903030e+01 1.0698635709384400e+01 4.7523247266828088e+00 1 1 1
4070 1 2.0083433408030395e+01 1.3396898412634279e+01 5.3396575389808119e+00 0 0 1
2592 1 2.2450081598593716e+01 1.1728332704638509e+01 5.8950535254779046e+00 0 0 0
2402 1 3.9140827779729164e+00 1.5729855476169124e+01 4.7797948058195718e+00 1 0 0
3078 1 1.8979630810559623e+01 6.2935882680785094e-01 3.4606265384473565e+00 0 1 0
823 1 3.5495464341263867e+00 1.7003031384592500e+01 8.0916715448367142e+00 0 0 0
865 1 4.6670221565636458e+00 1.4644340449146448e+01 7.4303075171739295e+00 0 0 0
861 1 7.0334837298612207e+00 1.5109036020336784e+01 3.8233490623312525e+00 0 0 1
1109 1 1.1957037330798302e+01 1.5480789990103357e+01 7.0494045333892590e+00 0 0 0
252 1 1.3667449389742778e+01 1.2687668549263138e+01 5.2341434433413676e+00 0 0 0
279 1 1.4893988068978004e+01 1.4852147243824454e+01 6.6946597273863091e+00 0 0 0
3346 1 1.6378302219196001e+01 1.3025209010255956e+01 8.1124311765887107e+00 1 1 0
258 1 2.2165064480802407e+01 1.5287520440765167e+01 5.0469317630329353e+00 0 0 0
3041 1 2.0210636943355835e+00 1.8445056676420570e+01 6.0651216183184875e+00 1 0 1
3924 1 4.2133830165955821e+00 1.8556222913427565e+01 4.3566611322027535e+00 1 0 1
34 1 7.7354459962115563e+00 1.6901613975662787e+01 8.4700372300974891e+00 0 0 1
360 1 9.8353913413392320e+00 1.7376544838828682e+01 6.8132184442519756e+00 1 0 0
18 1 1.6570013153873788e+01 1.8456743037724198e+01 4.8960282137808102e+00 0 0 0
1136 1 1.4959801474446641e+01 1.6224705359828818e+01 4.3706819018396201e+00 0 0 0
547 1 1.8849915205934085e+01 1.8049733184973043e+01 6.2592238346283624e+00 0 0 0
221 1 2.0719686273947879e+01 1.8661794576170525e+01 4.2205672991429939e+00 -1 0 0
3079 1 6.2295632297685799e+00 1.9536732834831188e+01 5.4945772962683321e+00 1 0 0
1796 1 5.6244950715153141e+00 2.2418484016490023e+01 5.4419306070444691e+00 0 0 1
485 1 1.0268114627733580e+01 2.2030356974328821e+01 4.5438109335124288e+00 0 0 0
2710 1 1.2472110530069084e+01 2.0441376094998958e+01 3.9851162001349145e+00 0 0 1
2203 1 1.5418103175067609e+01 2.2434867342640018e+01 6.6111711806101985e+00 1 0 0
105 1 1.4612699225376689e+01 2.0174267804148187e+01 5.8023560342422398e+00 0 0 0
4058 1 2.3080789256583689e+01 1.8110713638418115e+01 5.4713934402308242e+00 0 0 1
280 1 2.8994240111098839e+00 2.2458639630757393e+01 5.9958148391812660e+00 0 0 0
179 1 1.1610925747982568e+01 2.4531615379724773e+01 4.6475765464203889e+00 0 0 0
3293 1 1.4116036675606228e+01 2.5043458185456284e+01 5.5260955473861086e+00 0 0 0
745 1 1.9737145016613972e+01 2.3791705528820373e+01 5.4438903976698931e+00 0 0 1
694 1 2.1111754726027989e+01 2.1749765323022281e+01 4.1921413591034993e+00 0 0 1
707 1 1.0079761865765544e+00 2.8745654004532271e+00 1.1664601143163930e+01 0 0 1
1092 1 2.0755832375056547e+00 2.0122126755209521e+01 2.9306494882884353e+00 0 0 0
1302 1 7.7296910863059409e+00 9.1832346951895694e-01 8.1580957100934448e+00 0 1 0
1026 1 3.0941780443198055e+00 2.0484273082468437e+01 4.9670016459896832e-01 0 0 0
45 1 1.4227012611276599e+01 2.2734381156995744e+00 8.9089766496104250e+00 0 0 0
527 1 1.3046104697257903e+01 3.0337980839397609e+00 1.1156920535610102e+01 0 0 1
144 1 1.9611842757596836e+01 2.3131680480179653e+00 7.2721025219121653e+00 0 0 0
936 1 1.5422014711586396e+01 6.2226374501946493e+00 9.3778945072526021e+00 0 0 1
917 1 1.8384290018065592e+01 1.0385605655267010e+00 1.1007628802427082e+01 0 0 1
1575 1 2.2267605780489252e+01 2.3503591329549098e+00 7.8752035963381903e+00 0 1 0
832 1 2.3485530249782791e+01 5.2225934753282486e+00 7.6251813412496956e+00 0 0 1
3745 1 3.8443417692251236e+00 2.5408323898886591e+00 9.3745925746484193e+00 0 1 1
2718 1 6.5854418820685874e+00 3.3449952035438186e+00 9.3470326099468313e+00 1 0 1
3143 1 5.8206159522661380e+00 3.6515248816819610e+00 5.4444623977338544e+00 1 1 0
808 1 7.6723631216451693e+00 4.5042500925719553e+00 7.3263295097009173e+00 0 0 1
2383 1 8.6099556776735291e+00 6.7696027252215973e+00 8.6369106766469574e+00 1 0 0
636 1 1.4284560846472793e+01 4.8578692107006116e+00 7.2064742206076255e+00 0 0 0
180 1 1.7294308127381669e+01 2.4134791213001994e+00 8.8719713169354222e+00 0 0 0
620 1 1.9842069386601288e+01 5.4786558043482518e+00 1.0111051406644343e+01 0 0 0
552 1 2.1885119441829550e+00 6.4110352832074167e+00 9.2521028732587816e+00 0 0 0
54 1 3.0896451851690223e+00 8.9400308347607034e+00 1.0310928692930229e+01 0 1 0
4037 1 2.8974647870502732e+00 1.1323830412789148e+01 9.2092871154664859e+00 1 0 1
2412 1 4.3910296485914335e+00 5.7520356559231418e+00 7.6351929206571185e+00 0 0 0
2777 1 8.1168322141774638e+00 1.0749880256169165e+01 7.1887101655235446e+00 1 0 1
838 1 9.8917471323198392e+00 8.8166761635797677e+00 6.8754129433735178e+00 0 0 1
869 1 1.8221068697064091e+01 9.6057048825994293e+00 9.8504949278213960e+00 0 0 1
1894 1 1.4697650307082817e+01 8.9828442049019781e+00 5.9013399662746391e+00 0 1 0
3873 1 1.7929607153578253e+01 6.2885633915431018e+00 5.8661417125425599e+00 0 0 1
755 1 1.9283768650863379e+01 8.5764986470343150e+00 7.1272188598579973e+00 0 0 1
3865 1 2.1666601669434272e+01 9.9196154342145100e+00 7.9589209183905663e+00 1 1 1
920 1 5.5348292303683388e+00 2.1084095010538537e+01 1.2342807105345270e+00 0 0 1
2225 1 4.8559374056721669e+00 1.2544705322312803e+01 1.0078159025741032e+01 1 0 0
1138 1 1.3504521632365313e+01 1.1500171910289309e+01 9.6112330666910282e+00 0 1 0
162 1 1.5719614238761817e+01 1.2622727280841458e+01 1.0992313572831881e+01 0 0 0
326 1 2.0059645054449803e+01 1.1757309198373731e+01 9.2810997257534851e+00 0 0 0
948 1 7.8760539093927520e+00 1.2591638517019655e+01 4.3255292937375667e-01 0 0 1
1077 1 1.2585964163891872e+00 1.6682894017074737e+01 9.8409441428792377e+00 0 1 0
209 1 6.0472369315429191e+00 1.5217768102006586e+01 1.1027951340760556e+01 0 0 0
2521 1 8.6375868069566017e+00 1.7613012700962404e+01 1.0952584094787012e+01 1 0 0
2190 1 1.0882208635126482e+01 1.3591875640028755e+01 8.1030338881610753e+00 0 0 0
151 1 1.4827007944747486e+01 1.6647277291805377e+01 8.8043761953143900e+00 0 0 0
174 1 1.8954004334151779e+01 1.3889393865420736e+01 7.6745447648406939e+00 0 0 0
1097 1 1.9579071323591812e+01 1.6244924087244797e+01 8.3822303042749127e+00 0 0 0
724 1 2.3714312058541527e+01 1.3002431887626390e+01 7.7442330363976133e+00 0 0 1
2308 1 7.0902917154392568e+00 2.1020501162763725e+01 9.4193868921760249e+00 1 0 0
2024 1 5.9609415208750143e+00 1.8780875680353368e+01 8.0333662536755739e+00 0 0 1
945 1 9.4188487321147178e+00 1.9877454287058537e+01 1.0257068505814861e+01 0 0 1
1322 1 1.3800428425075223e+01 1.9222172033568043e+01 8.2543335043013943e+00 0 0 0
3394 1 1.7391342688384590e+01 1.7449207091076847e+01 9.5280606634605292e+00 1 0 0
343 1 2.2028109604309197e+01 1.6511336178709410e+01 9.6125530564670463e+00 0 0 0
2155 1 2.3530716929251188e+01 1.5690141864351926e+01 7.6739756149076426e+00 0 0 0
44 1 7.3189295654043081e+00 2.2838236283538819e+01 7.4216336193100760e+00 0 0 0
1705 1 5.4025808661577281e+00 2.4562894682697024e+01 1.0530665155351672e+01 0 0 0
767 1 1.0000489846125337e+01 2.2029782489511234e+01 7.2980085758310942e+00 1 0 1
480 1 1.0832516253198939e+01 1.9596113061617732e+01 8.0655086102846862e+00 1 0 0
353 1 1.2954706336391553e+01 2.0658298837927909e+01 1.2080405087141811e+01 0 0 0
1209 1 1.8901925037077756e+01 2.0334345454270199e+01 8.0876147917650840e+00 0 0 0
3147 1 1.7399275513528625e+01 2.0047296625080190e+01 1.0467197003488158e+01 1 0 0
3955 1 1.8122238759945944e+01 2.2739101267932895e+01 7.2569065079092514e+00 0 0 1
1306 1 2.1322112260108810e+01 2.0729570014687265e+01 9.1716802381623950e+00 0 0 0
3934 1 2.2368828028780271e+01 2.0933630717603734e+01 6.7239120993392731e+00 0 1 1
2907 1 2.2182005912683946e+00 2.4500116603320286e+01 7.5613907798211653e+00 1 0 1
3070 1 1.5298726143359174e+00 5.3214293840746665e+00 1.5208301779502664e+01 0 0 1
1993 1 9.6582497010155226e+00 5.0280231395032073e+00 1.8478787235822705e+00 0 1 1
3029 1 1.0635540988792503e+01 2.4278144892198206e+01 8.7484078121582609e+00 1 0 1
1001 1 1.3047009829364251e+01 2.5042748769640923e+01 8.0168847441120086e+00 0 0 1
1222 1 1.4972039196857832e+01 2.3708370048841182e+01 9.3112854123686439e+00 0 0 0
2881 1 1.7962940548939063e+01 2.4466202592891289e+01 9.2914743396007005e+00 0 0 1
239 1 2.4650640919616354e+01 2.3515010653077020e+01 7.6969301615467050e+00 0 0 0
1640 1 4.4739907435974562e+00 2.7866621848090554e+00 1.2833649337081054e+01 0 1 0
1307 1 1.0725645990718188e+01 1.8275393478294033e+00 1.1354457176321338e+01 0 1 1
140 1 9.1671834708444493e+00 2.0243982349120806e+01 1.5184421668250049e+01 0 0 0
1937 1 1.4213334131220222e+01 1.5334472567982653e+00 1.3012299091699131e+01 0 1 0
3206 1 1.6849961527407920e+01 1.5780173329120259e+00 1.3161828930626713e+01 1 1 0
979 1 1.6382801061737304e+01 1.5169205606769838e+01 2.6145722267643379e-01 0 0 0
444 1 3.5440670045606910e+00 6.2914214713638987e+00 1.3336275094260742e+01 0 0 0
919 1 2.9967690367782813e+00 4.9614601759616885e+00 1.1236854937200659e+01 0 0 1
163 1 6.5023582422222646e+00 4.4836033888510709e+00 1.2403647612014851e+01 0 0 0
227 1 9.2727837109658076e+00 4.1784710468953845e+00 1.1176841527829213e+01 0 0 0
2438 1 1.0832310752832866e+01 5.1835908839713145e+00 1.3659343377646071e+01 0 0 0
153 1 1.1954469468049405e+01 5.8995839732426942e+00 9.9789830170328848e+00 0 0 0
2875 1 1.7777772351662737e+01 5.1961665705615445e+00 8.5299796793611922e+00 1 0 1
1420 1 2.0399441160653019e+01 2.9574207782132107e+00 1.0951400448126039e+01 0 1 0
4074 1 2.3611754694829582e+01 8.1214917878120509e+00 1.1280420887158344e+01 0 1 1
960 1 2.3671971144003948e+01 4.2693163260408884e+00 1.3494211780416819e+01 0 0 1
2523 1 6.1794303806166058e+00 7.7968532640489432e+00 9.2126676972538704e+00 1 0 0
1919 1 6.8869374382961244e+00 7.3267117594299460e+00 1.2134234714738618e+01 0 1 1
1230 1 6.8353928694250605e+00 1.0765904990266073e+01 9.7100006060804791e+00 0 1 0
2084 1 9.5196473757051496e+00 6.0064468648644107e+00 1.5730555630167300e+01 1 0 0
3878 1 9.7480145787647743e+00 7.2623858275076234e+00 1.1506290911560180e+01 0 1 1
2691 1 1.5215848635415057e+01 9.1197038203516563e+00 9.3561290959300329e+00 0 0 0
3246 1 2.1201750850501693e+01 8.5445565874604856e+00 1.2749637155221093e+01 0 0 0
2172 1 1.8979450825893810e+01 7.5315069460854760e+00 1.1508283090427506e+01 0 0 0
1873 1 2.0479887000665048e+01 9.8129242305075799e+00 1.6915821991861229e+01 0 1 1
2097 1 4.8735526431747171e+00 1.2063396040819050e+01 1.2794862111208381e+01 1 0 0
1887 1 2.4681870402335733e+00 1.2647174877103664e+01 1.4355042230551602e+01 0 1 1
2470 1 7.6305031613364678e+00 1.1104720824592100e+01 1.3704375926139967e+01 1 0 0
440 1 4.8584125731169800e+00 9.2025135772167239e+00 1.2612509187755725e+01 0 0 0
2269 1 9.1719639633488868e+00 1.0060137021424012e+01 1.1532530043752928e+01 1 0 0
541 1 1.1801923379042844e+01 1.0889891655731278e+01 1.2262174717599740e+01 0 0 0
2359 1 1.3314546333368739e+01 8.4381968479195333e+00 1.1586035639774076e+01 1 0 0
200 1 1.5694180063291673e+01 9.2590446336813823e+00 1.3202451485594182e+01 0 0 0
1924 1 1.7268352053836313e+01 1.0867824963236059e+01 1.2066695688835519e+01 0 1 1
640 1 1.6966480546669970e+01 6.8217023366434359e+00 1.3030090043850461e+01 0 0 0
231 1 1.9087407632107329e+01 1.2351572418400638e+01 1.3530373672540041e+01 0 0 0
540 1 2.4081534493991914e+01 1.0800508464901345e+01 1.1464606410606450e+01 0 0 0
712 1 2.2580569010518122e+01 1.2688196988316273e+01 1.0079550889925137e+01 0 0 1
1235 1 4.0060083631129526e+00 1.7143752299156802e+01 1.1397476057456213e+01 1 0 0
1724 1 1.4752267631306073e+00 1.4941424798792754e+01 1.5000270177718399e+01 0 1 0
4057 1 7.4570116104828053e+00 1.4152072042406312e+01 1.3120416817741150e+01 1 0 1
1086 1 9.9032196519669817e+00 1.5436681385078703e+01 1.2049734798923131e+01 0 0 0
3768 1 1.1654054157491846e+01 1.3804199730977089e+01 1.0686693871853089e+01 1 0 0
856 1 1.3404640556359595e+01 1.6025409660397003e+01 1.1214125956925637e+01 0 0 1
203 1 1.5306653422747420e+01 1.4672501162351178e+01 1.2507282669971630e+01 0 0 0
253 1 1.7375533969418342e+01 1.6337066368721210e+01 1.2066089658091725e+01 0 0 0
3254 1 1.9767501840385357e+01 1.4921775639511042e+01 1.2997539892631725e+01 1 0 0
1286 1 2.2473899377835490e+01 1.4933628755464518e+01 1.1689655344691118e+01 0 1 0
113 1 1.7847937518189747e+00 2.0757931822202096e+01 1.0373774041375368e+01 0 0 0
1243 1 7.1159961644676892e+00 1.5983171206587270e+01 1.5132162461577929e+01 0 0 0
3006 1 4.5536087247813741e+00 1.9772234178091114e+01 1.0675430010030443e+01 1 0 1
2305 1 1.0639602085407359e+01 1.7311978071213847e+01 1.4292510198961867e+01 1 0 0
4021 1 1.2665450455182558e+01 1.8131126788141383e+01 1.2615765004551040e+01 0 1 0
3670 1 1.4402469909629490e+01 1.8047167598289477e+01 1.4765223816562045e+01 1 0 0
1470 1 1.7180551892908102e+01 1.8304173322671890e+01 1.4237777876296043e+01 0 0 0
972 1 1.8460221886972327e+01 2.0336920198499456e+01 1.3202275075682264e+01 0 0 1
2996 1 2.2561486269575244e+01 1.8772736470922624e+01 1.0970296013394170e+01 0 0 1
3096 1 5.8614053968175215e+00 2.0513251788277675e+01 1.2881070646689150e+01 1 0 0
1392 1 7.1607651677154420e+00 2.2627674786313364e+01 1.1906213094723949e+01 1 1 0
1003 1 7.6040579834054487e+00 1.8522369772612709e+01 1.3607391342928864e+01 0 0 1
37 1 1.0072580755261182e+01 2.1353304874009527e+01 1.2378322101816204e+01 0 0 0
1925 1 1.4993249074392208e+01 2.0872649119337630e+01 1.0054414775312264e+01 0 0 1
1381 1 1.3800463891862307e+01 2.0316890387697949e+01 1.5764910581763649e+01 0 0 0
2441 1 2.1148210014653056e+01 2.1099717957549213e+01 1.2870453779956017e+01 0 0 0
248 1 2.4401022877419866e+01 7.2260704736111618e+00 1.3829036471063599e+01 0 0 1
2847 1 3.8914073948265528e+00 2.4778117312981227e+01 1.2916491835995780e+01 1 0 0
4018 1 2.3785599181375190e+01 1.3592658153417473e+01 1.6341868660675911e+00 0 1 1
2921 1 7.8372552987586266e+00 2.4399817389712908e+01 1.3944826522665526e+01 1 0 1
2380 1 1.2109476031952930e+01 2.4250581804154944e+01 1.5418909207984013e+01 1 0 0
1757 1 1.0621659364571059e+01 2.3814632678333997e+01 1.1446160730969062e+01 0 0 0
681 1 1.3219485358104198e+01 2.4578072015065693e+01 1.1691872848717415e+01 0 0 0
1270 1 2.4910823143339226e+01 1.7758443452123462e+01 2.9531321426557935e+00 -1 0 0
1481 1 1.8027607655560189e+01 2.3256152982161048e+01 1.1726664232695892e+01 0 0 0
1110 1 2.2210380681961770e+01 2.2612117950930823e+01 1.0854465328830150e+01 0 0 0
1193 1 2.4245029562616434e+01 1.0544342358022007e+01 4.4567861083090596e+00 0 1 0
1223 1 2.4865960073086370e+01 2.2450817202478266e+01 1.0395599757929228e+01 0 0 0
503 1 1.3622594454072534e+01 2.2757845420374149e+01 1.3761689492056199e+01 0 0 1
1279 1 2.1949773792684240e+01 2.4062560974799464e+01 7.5369775291046111e+00 0 0 0
2957 1 4.4272129897185080e+00 2.0259867103633367e+00 1.5857528677336489e+01 1 0 1
3764 1 8.8630809061123017e+00 2.5916750576858707e+00 1.6234049872416879e+01 1 1 0
2099 1 1.1027939571177718e+01 2.4162077982015502e+00 1.4628209426192790e+01 1 0 0
2529 1 1.3602963822897284e+01 2.1838228066903791e+00 1.5748781628748233e+01 1 0 0
3504 1 1.7240392965352964e+01 1.4998458068069054e+01 1.6782441906157722e+01 0 1 0
2457 1 1.9968361519454991e+01 1.8313591825965145e+00 1.5385150636921601e+01 0 0 0
1229 1 2.0931982428846805e+01 2.5025849442135954e+01 9.8758324961491830e+00 0 0 0
2948 1 2.5393432077617245e-01 1.1501939749139707e+00 8.6030095256822503e-01 0 0 1
2704 1 6.5495322913082923e+00 3.9094479029986484e+00 1.5220049963221872e+01 1 0 0
3546 1 1.3646278098747308e+01 6.1890015553905418e+00 1.3800051042509459e+01 0 1 0
2880 1 1.5208770234930217e+01 4.8558906230943721e+00 1.1812836347274370e+01 0 0 0
1526 1 1.7833170622736411e+01 3.4349973009282211e+00 1.5294007445238465e+01 0 1 0
3981 1 2.1083320028333151e+01 3.8373576712153405e+00 1.3420837959988638e+01 1 1 0
599 1 2.0669911508675114e+01 6.2949763260762142e+00 1.4698684808705682e+01 0 0 0
3154 1 2.3996317013207658e+01 2.0370389191864389e+00 1.5171106321832019e+01 0 0 0
124 1 2.4565812570797469e+01 3.0555548495097646e+00 4.9667578766438822e+00 0 0 0
802 1 3.4898064089856917e-01 6.7780257881203454e+00 6.6354469569392514e+00 0 0 1
417 1 2.4756277186646354e+01 3.4401404424865967e+00 1.1345843566097097e+01 0 0 0
4029 1 5.1476876657943293e+00 1.2212471702942709e+01 3.3925708595322612e-01 1 1 1
2089 1 7.2557001790449238e+00 7.7231610900850791e+00 1.5083749859478877e+01 1 0 0
429 1 1.4064397429323311e+01 7.3340263496755247e+00 1.6139676434672147e+01 0 0 0
304 1 1.7878104387133227e+01 6.1071871119376020e+00 1.5532478141650847e+01 0 0 0
2971 1 4.0865245592474242e+00 1.2277432409145110e+01 1.6513069403471338e+01 1 0 1
1159 1 1.6745876853836400e+01 2.5609753078549900e+01 1.4495237203068616e+01 0 0 0
2127 1 1.2599357930452566e+01 1.0925976100591152e+01 1.5540045799505661e+01 0 0 0
1018 1 1.4969935291342971e+01 9.7048229636911785e+00 1.5467269933322907e+01 0 0 1
332 1 1.4171715199348938e+01 2.5345297455434718e+01 2.3822196785285437e+00 0 0 0
26 1 1.8300982702018299e+01 1.2676694065054210e+01 1.6281734959643703e+01 0 0 -1
3953 1 2.1159681682265486e+01 1.0568916960823202e+01 1.4262685266287978e+01 0 1 0
361 1 2.3605546608484577e+01 1.1483526184239443e+01 1.4064606073666786e+01 0 0 0
2559 1 6.7478898137164647e+00 1.1554352938373199e+01 1.6621554428860918e+01 1 0 0
450 1 1.6426167251920106e+01 2.3071569320382103e+01 1.4025974803723658e+01 0 0 0
3576 1 2.3680710623556504e+01 1.3338291687506021e+00 3.1269742354698029e+00 0 1 0
653 1 5.5966955409303347e+00 6.1400013014946699e+00 1.6482281029823721e+01 0 0 0
434 1 1.0219363601108183e+01 1.2690160207675058e+01 1.4362602381165271e+01 0 0 0
1058 1 1.2841052831646030e+01 1.3401585392536600e+01 1.6958376668517122e+01 -1 1 0
365 1 1.4664701932714914e+01 1.4916469362019084e+01 1.5084241904401217e+01 0 0 0
1155 1 6.8548512439397449e+00 2.0746661048491983e+01 1.6853961548812336e+01 0 1 0
27 1 2.0689061410287792e+01 1.6476142325193603e+01 1.4848950675032071e+01 0 0 0
2525 1 2.3997898865339060e+01 1.3795668741086153e+01 1.5554527250481769e+01 0 0 0
2297 1 2.6567283721002477e+00 1.7280629152082732e+01 1.3634816850298758e+01 1 0 0
889 1 2.2177037574762156e+01 1.4912306903572496e+01 1.6884740075723634e+01 0 0 1
2354 1 4.7163054350110718e+00 1.7220877439184985e+01 1.5739476916771332e+01 1 0 0
1407 1 2.6483510441331486e+00 2.2734692108344749e+01 1.4426229560000470e+01 0 0 0
482 1 1.1122742968377153e+01 1.9041914271308894e+01 1.6558734115467932e+01 0 0 0
509 1 1.0759595655836135e+01 1.4876085519098952e+01 1.5647336235854102e+01 0 0 0
271 1 4.3029224887852227e+00 1.4013526880601590e+01 2.4700056839261220e+00 0 0 0
514 1 1.5973004947976682e+01 2.1744350604812105e+01 1.6563681146056553e+01 0 0 0
2148 1 4.1038968021228484e-01 1.0664044321188642e+01 1.4361599645517972e+01 1 0 0
3046 1 2.2527558252813495e+01 1.8291117195237330e+01 1.3766272346554148e+01 0 0 1
2140 1 2.4470104559965037e+01 1.5942808564625739e+01 1.3709605441654395e+01 1 0 0
341 1 4.5847783169026970e+00 2.0422736213247425e+01 1.5483131056939227e+01 0 0 0
93 1 1.3073906589567169e+01 1.6993905957476176e+01 1.7159163916111840e+01 0 0 0
351 1 3.1102496395205698e-01 1.8850581554770333e+01 1.6671595216433420e+01 0 0 0
793 1 1.4117940354570684e+00 2.0781890040880633e+01 7.4479803520996839e+00 0 0 1
2937 1 2.5354232379642443e+01 1.8793861087008889e+01 7.5741380290173090e+00 0 0 1
2420 1 5.5920351833100290e-01 8.9398346542733353e+00 1.6525186636029307e+01 1 0 0
2697 1 2.9171862934440091e+00 6.9793201926183634e+00 1.6933252082303294e+01 1 0 0
1710 1 2.5702274541070697e+01 1.0572086075806189e+00 1.0088834919032623e+00 0 1 1
1659 1 2.5519376674754191e+01 5.5827767254905911e+00 1.6444814120448459e+01 0 1 0
12 1 4.1384970552537614e-01 1.4462132812845189e+01 1.1547370768097334e+01 0 0 -1
1644 1 2.1829345454024104e+01 6.6644369797429652e+00 1.7137968210250857e+01 0 1 0
3508 1 2.2959605918724680e+01 8.9942476686275672e+00 1.7139933816566007e+01 0 1 0
457 1 1.5492289203880830e+01 9.1247882896215504e+00 2.9534891855807810e-01 0 0 0
512 1 1.6577942903479933e+01 2.3684143463131591e-01 1.7204353595316359e+01 0 0 0
2812 1 2.4626942954629168e+01 2.2238326627208114e+01 2.4162028952322601e-01 0 0 1
2628 1 1.1015603915605725e+01 7.3537121167484110e-01 3.0664761376448716e+01 1 0 0
964 1 2.3988770839089506e+00 1.4651309472567402e+01 3.3572272514150882e+01 1 0 0
13 1 3.8529827940491330e+00 1.7111608573637807e+00 2.0193800732279207e+01 0 0 -1