
# Create simulation box and atoms
lattice		    sc 1
Lattice spacing in x,y,z = 1 1 1
region 		    all block 0 51.42 0 51.42 0 51.42 units box
create_box 	    1 all
Created orthogonal box = (0 0 0) to (51.42 51.42 51.42)
  2 by 2 by 3 MPI processor grid

create_atoms	1 random 4457 ${SEED} all
create_atoms	1 random 4457 5529 all
Created 4457 atoms
  create_atoms CPU = 0.000460625 secs

mass		    1 18.15

# Define potential

pair_style 	    sw
pair_coeff	    * * mW_real.sw mW
Reading potential file mW_real.sw with DATE: 2019-02-27

# Run minimization

minimize 	    1.0e-8 1.0e-8 10000 1000
WARNING: Using 'neigh_modify every 1 delay 0 check yes' setting during minimization (../min.cpp:168)
Neighbor list info ...
  update every 1 steps, delay 0 steps, check yes
  max neighbors/atom: 2000, page size: 100000
  master list distance cutoff = 6.3065
  ghost atom cutoff = 6.3065
  binsize = 3.15325, bins = 17 17 17
  1 neighbor lists, perpetual/occasional/extra = 1 0 0
  (1) pair sw, perpetual
      attributes: full, newton on
      pair build: full/bin/atomonly
      stencil: full/bin/3d
      bin: standard
Per MPI rank memory allocation (min/avg/max) = 4.225 | 4.228 | 4.23 Mbytes
Step Temp E_pair E_mol TotEng Press 
       0            0    2812223.1            0    2812223.1    2016285.1 
     719            0    -50318.89            0    -50318.89   -1269.4443 
Loop time of 1.8056 on 12 procs for 719 steps with 4457 atoms

99.6% CPU use with 12 MPI tasks x no OpenMP threads

Minimization stats:
  Stopping criterion = max force evaluations
  Energy initial, next-to-last, final = 
         2812223.14995     -50318.5366579      -50318.889555
  Force two-norm initial, final = 2.32388e+07 4.25345
  Force max component initial, final = 9.91509e+06 0.691539
  Final line search alpha, max atom move = 0.0771607 0.0533596
  Iterations, force evaluations = 719 1001

MPI task timing breakdown:
Section |  min time  |  avg time  |  max time  |%varavg| %total
---------------------------------------------------------------
Pair    | 1.4454     | 1.5906     | 1.6934     |   6.2 | 88.09
Neigh   | 0.026649   | 0.027912   | 0.029197   |   0.4 |  1.55
Comm    | 0.059915   | 0.16183    | 0.30699    |  19.6 |  8.96
Output  | 0          | 0          | 0          |   0.0 |  0.00
Modify  | 0          | 0          | 0          |   0.0 |  0.00
Other   |            | 0.02523    |            |       |  1.40

Nlocal:    371.417 ave 382 max 364 min
Histogram: 3 1 1 2 0 0 1 3 0 1
Nghost:    1062.92 ave 1074 max 1044 min
Histogram: 1 0 0 3 0 0 1 3 1 3
Neighs:    0 ave 0 max 0 min
Histogram: 12 0 0 0 0 0 0 0 0 0
FullNghs:  12006.8 ave 12354 max 11541 min
Histogram: 1 1 2 1 0 1 0 2 2 2

Total # of neighbors = 144082
Ave neighs/atom = 32.3271
Neighbor list builds = 42
Dangerous builds = 0

# Create Cavity with Hard sphere "indent" potential

region		    cavity sphere 25.71 25.71 25.71 13.8 side in
delete_atoms	    region cavity
Deleted 360 atoms, new total = 4097
fix 		    5 all indent 10.0 sphere 25.71 25.71 25.71 13.8

# Equilibration of molecular water

# Add velocity/set timestep

velocity	    all create ${TEMP} ${SEED} rot yes dist gaussian
velocity	    all create 215 ${SEED} rot yes dist gaussian
velocity	    all create 215 5529 rot yes dist gaussian
timestep	    5.0

# Define output

compute			1 all msd
thermo	    	50
thermo_style	custom step temp press vol etotal ke pe c_1[4]

# Neighbor lists

neigh_modify    delay 0 every 1 check yes

# Set fixes

fix             1 all momentum 10 linear 1 1 1 rescale
fix             2 all nve
fix             3 all temp/csvr ${TEMP} ${TEMP} 500.0 ${SEED}
fix             3 all temp/csvr 215 ${TEMP} 500.0 ${SEED}
fix             3 all temp/csvr 215 215 500.0 ${SEED}
fix             3 all temp/csvr 215 215 500.0 5529
fix             4 all press/berendsen iso ${PRES} ${PRES} 1000.0 modulus 20000
fix             4 all press/berendsen iso 1.0 ${PRES} 1000.0 modulus 20000
fix             4 all press/berendsen iso 1.0 1.0 1000.0 modulus 20000

# Run 1 ns equilibration

dump		    1 all atom 2000 ${DIR}/eq.${NAME}-${TEMP}.dump
dump		    1 all atom 2000 run_5/eq.${NAME}-${TEMP}.dump
dump		    1 all atom 2000 run_5/eq.hardcavity_freeze_5-${TEMP}.dump
dump		    1 all atom 2000 run_5/eq.hardcavity_freeze_5-215.dump

reset_timestep  0

run	            200000
Per MPI rank memory allocation (min/avg/max) = 4.489 | 4.492 | 4.494 Mbytes
Step Temp Press Volume TotEng KinEng PotEng c_1[4] 
       0          215   -520.07302    135955.32    -43089.45    2625.0206   -45714.471            0 
      50    133.06526   -110.35768    135850.99   -42497.162    1624.6467   -44121.809   0.21768751 
     100    151.88329   -44.019376     135636.1   -42082.971    1854.4036   -43937.375   0.37370432 
     150    168.74518   -152.08054    135515.77   -41683.256     2060.277   -43743.533   0.53435156 
     200    180.62434   -66.284174    135322.52   -41448.953    2205.3145   -43654.268   0.69013542 
     250    185.96803   -158.19792    135162.63   -41237.859    2270.5577   -43508.417   0.88519336 
     300    189.51236    -161.1846    134890.57   -41088.437    2313.8319   -43402.269    1.0613851 
     350    193.82531   -36.221581    134652.75   -41009.459    2366.4904    -43375.95    1.2027348 
     400    199.13785   -26.852989    134472.19   -40951.671    2431.3532   -43383.024    1.3505098 
     450    203.54355    4.4591116    134384.82   -40898.396    2485.1442    -43383.54    1.5098468 
     500    201.64167   -42.572364    134266.33   -40851.969    2461.9234   -43313.892    1.6398889 
     550    211.57719   -58.766375    134156.63   -40782.209    2583.2302   -43365.439    1.8055691 
     600    208.91791   -64.915231     133894.4   -40719.761    2550.7619   -43270.523    2.0412365 
     650    211.92835   -109.10023    133706.31   -40659.722    2587.5176   -43247.239    2.2146154 
     700    216.43303   -165.22343    133572.77   -40649.604    2642.5171   -43292.121    2.4043562 
     750    212.39769     16.39722    133500.16   -40659.086    2593.2479   -43252.334    2.6118379 
     800    209.51309   -68.303888    133431.06   -40662.912    2558.0287   -43220.941    2.8476193 
     850    218.45547    -1.907991    133479.37   -40609.547    2667.2098   -43276.757    3.0339187 
     900    214.83409   -203.72624    133327.53   -40549.614    2622.9949   -43172.609      3.26197 
     950    215.05869     34.15626    133284.94   -40581.617    2625.7371   -43207.354    3.3205271 
    1000    215.79803  -0.76331158    133313.67   -40585.588    2634.7641   -43220.353    3.4875773 
    1050    216.24995   -59.721879    133201.21   -40594.934    2640.2817   -43235.216    3.6518718 
    1100    213.24819   -21.068531    133077.35   -40619.079     2603.632   -43222.711    3.8646838 
    1150    217.69124    -202.4933    132961.36   -40639.538     2657.879   -43297.417    4.0127908 
    1200    220.66384    36.280742    132871.28   -40633.942    2694.1726   -43328.115    4.1555882 
    1250    218.17466   -41.524301    132818.36   -40608.367    2663.7813   -43272.148    4.3413326 
    1300    219.51961   -101.91366    132726.37   -40641.208    2680.2023    -43321.41    4.5016457 
    1350    214.49521    53.045141    132622.81   -40668.548    2618.8574   -43287.406    4.6540001 
    1400    215.48401   -260.26703    132571.96   -40680.882      2630.93   -43311.812    4.8333762 
    1450    214.83724   -16.637906    132452.78   -40669.737    2623.0333    -43292.77    4.9688433 
    1500    217.72123    29.199075    132547.57   -40621.199    2658.2452   -43279.444    5.1320648 
    1550    213.03664    18.022255    132595.31   -40650.799    2601.0491   -43251.848    5.2673156 
    1600    216.41065    99.416744    132577.55   -40636.648    2642.2438   -43278.892    5.3745173 
    1650    218.58861   -46.611905    132669.18   -40621.071    2668.8353   -43289.906    5.5379289 
    1700    214.53423   -45.279439    132581.81   -40641.483    2619.3338   -43260.817    5.6375488 
    1750    216.43916    59.070473    132568.57   -40621.775    2642.5919   -43264.367    5.8000528 
    1800    217.34976    5.4385823    132602.84   -40631.326    2653.7097   -43285.036    5.9666172 
    1850    217.35177   -59.493786    132629.77   -40665.577    2653.7343   -43319.311    6.1161023 
    1900    218.62197    91.048941    132688.16   -40682.101    2669.2426   -43351.344    6.2695748 
    1950    215.49234   -35.747704     132740.3   -40687.836    2631.0317   -43318.868    6.4481796 
    2000    214.82909   -101.43066    132647.82    -40749.17    2622.9338   -43372.104    6.5662526 
    2050    211.55668   -28.819849    132552.01   -40741.647    2582.9798   -43324.627    6.7039492 
    2100    213.53795    37.737893    132481.08   -40719.004    2607.1699   -43326.174     6.822545 
    2150    214.48255    -17.73033    132508.32   -40707.884    2618.7028   -43326.587    6.9086567 
    2200    211.78097   -102.07259    132358.99    -40769.44    2585.7181   -43355.158    7.0762934 
    2250    213.61086   -1.6206529    132178.85   -40730.754      2608.06   -43338.814    7.2543134 
    2300    216.50743    1.5098316    132277.28   -40685.227    2643.4254   -43328.652    7.3363305 
    2350    216.28991   -71.278917    132236.03   -40682.239    2640.7696   -43323.008    7.5265994 
    2400    210.38908    58.487845    132257.77   -40742.654     2568.724   -43311.378    7.7356365 
    2450    212.90071    -118.9181    132116.29   -40727.433    2599.3895   -43326.823    7.9722121 
    2500    213.41161   -34.437084       131954   -40730.556    2605.6273   -43336.184    8.2325946 
    2550    215.90025    52.430937    131968.97   -40721.273    2636.0121   -43357.285    8.3781355 
    2600    217.47361   -41.386244    131967.77   -40695.893    2655.2219   -43351.115    8.4795351 
    2650    217.21916    231.25147    132098.42   -40677.297    2652.1152   -43329.412    8.5804496 
    2700    213.53008    -60.25199    132142.78   -40712.886    2607.0737    -43319.96    8.7981319 
    2750    212.10357   -27.229108    132104.47   -40729.236    2589.6568   -43318.893    8.9598696 
    2800    212.29056    105.75302    132045.79   -40739.745    2591.9399   -43331.685    9.1087355 
    2850    211.60883    50.497375    132063.21   -40758.401    2583.6164   -43342.017      9.23006 
    2900    211.59263     -36.8156    132077.69    -40766.64    2583.4186   -43350.059    9.3673449 
    2950    213.70803    29.166274     132023.8   -40793.243    2609.2464   -43402.489    9.4699825 
    3000    215.10137    53.834877    131943.27    -40799.67    2626.2583   -43425.928    9.5589144 
    3050    214.75965    30.130126    132023.47   -40761.515     2622.086   -43383.601    9.6936901 
    3100    210.59264    -77.44584    132129.04   -40759.231    2571.2094   -43330.441    9.8232086 
    3150    212.87659   -17.796244    131986.09    -40714.75    2599.0951   -43313.845    10.013809 
    3200    212.97236    42.268131     131932.2   -40740.828    2600.2643   -43341.093    10.189575 
    3250    216.86672    117.59958    132166.96   -40677.507    2647.8121   -43325.319    10.353932 
    3300    215.92672    62.954332    132281.94   -40646.208    2636.3353   -43282.544     10.62629 
    3350    215.32727   -98.971156    132196.01   -40691.782    2629.0164   -43320.798    10.721273 
    3400    216.49334     115.8071     132118.8   -40678.619    2643.2533   -43321.873    10.820834 
    3450    217.13184    46.137938    132124.75   -40704.311    2651.0491    -43355.36    10.900411 
    3500    215.75693    63.773659    132254.68   -40707.988    2634.2623    -43342.25    11.052664 
    3550    216.66241   -116.46685    132229.86   -40674.594    2645.3176   -43319.912    11.251317 
    3600    214.43862     78.06284    132201.75   -40672.248    2618.1664   -43290.414    11.420456 
    3650    214.68253    80.437911    132112.51   -40733.101    2621.1444   -43354.245    11.514846 
    3700    214.20522    83.164333    132160.55   -40694.366    2615.3168   -43309.683    11.675869 
    3750    214.69275   -31.777635    132144.27   -40740.918    2621.2693   -43362.188    11.776313 
    3800    213.01451   -18.820617    131997.19   -40767.331    2600.7789    -43368.11    11.744496 
    3850    212.25473    -41.36769    131761.74   -40801.388    2591.5024    -43392.89    11.849602 
    3900    214.18476    29.389237    131708.12   -40835.644     2615.067   -43450.711    11.947697 
    3950    210.87005    90.829093    131699.93   -40817.015    2574.5963   -43391.611    12.095953 
    4000    217.30379    102.91959    131785.54    -40810.41    2653.1484   -43463.559    12.262962 
    4050    207.98843   -115.34316     131682.1   -40857.727    2539.4136    -43397.14    12.333947 
    4100    213.00819   -80.448878    131546.93   -40850.058    2600.7018    -43450.76    12.547651 
    4150    211.74712    38.637346    131515.09   -40837.658    2585.3049   -43422.962    12.819283 
    4200    213.85998   -37.605909    131524.06   -40835.454    2611.1016   -43446.556    13.066502 
    4250    210.05222    67.026888    131513.43   -40843.251    2564.6111   -43407.863     13.22022 
    4300    215.91766    40.441926    131630.61   -40858.904    2636.2247   -43495.128    13.282467 
    4350    211.55687   -202.04135     131577.6   -40846.028     2582.982    -43429.01    13.397321 
    4400    208.94517   -13.842746    131677.22   -40854.304    2551.0948   -43405.399    13.524065 
    4450    212.65141    135.72861    131726.22   -40846.952    2596.3457   -43443.297    13.571347 
    4500    211.68365    36.263758    131778.66   -40859.206    2584.5299   -43443.736    13.732862 
    4550    212.74476    157.34988    131903.39   -40841.657    2597.4855   -43439.142    13.904825 
    4600     208.8126    40.977344    131930.11   -40850.212    2549.4761   -43399.688     13.97511 
    4650    209.48682    17.355021    131859.54   -40818.368    2557.7079   -43376.076    14.201306 
    4700    211.67266    80.637144    131996.56   -40815.866    2584.3957   -43400.262    14.453183 
    4750    215.07355   -121.04558     132010.3   -40787.859    2625.9186   -43413.778    14.633868 
    4800     216.1431    67.818078    132106.96   -40754.792    2638.9771   -43393.769    14.927894 
    4850    219.69758     -55.9516     132012.3   -40725.598    2682.3751   -43407.973    15.106284 
    4900    213.14783   -34.684752    132075.79   -40766.303    2602.4067    -43368.71    15.179932 
    4950    213.19202    96.217758    132119.99   -40736.226    2602.9462   -43339.172    15.359769 
    5000    215.60203    -145.6172    132101.45   -40737.087    2632.3709   -43369.458    15.335181 
    5050    217.28811   -23.015109    132191.09   -40748.083     2652.957    -43401.04    15.378956 
    5100    216.68641   -119.95642    132172.98   -40757.276    2645.6106   -43402.887    15.509441 
    5150    215.05787    65.256573    132228.44   -40760.675    2625.7271   -43386.402    15.654686 
    5200    212.81027   -81.993433    132237.58   -40753.319    2598.2853   -43351.605    15.913515 
    5250    212.98918   -43.119432    132160.39   -40783.676    2600.4696   -43384.146    16.109636 
    5300    212.12319   -8.4432802    132217.21   -40805.967    2589.8965   -43395.864    16.305167 
    5350    207.70899   -134.63171    132044.41    -40830.33    2536.0017   -43366.332    16.439221 
    5400    214.45473    55.419944    132187.42   -40826.701    2618.3632   -43445.064    16.523377 
    5450    213.97474   -146.71894    132126.95   -40838.745    2612.5028   -43451.247    16.633789 
    5500    209.54282    50.310655    132103.31   -40817.444    2558.3917   -43375.836    16.834198 
    5550    211.87567    16.586095    132062.07   -40844.293    2586.8743   -43431.168    16.929467 
    5600    210.59968    22.801546     131970.6   -40788.526    2571.2953   -43359.821     17.12335 
    5650    218.15101   -35.744344    131909.97   -40731.827    2663.4925   -43395.319    17.242029 
    5700    213.22219   -59.049556    131922.59   -40747.874    2603.3146   -43351.189    17.477609 
    5750    216.33127    118.74111    131999.82   -40757.074    2641.2746   -43398.349    17.645906 
    5800    216.35336    172.98983    132176.96   -40738.278    2641.5443   -43379.822     17.69508 
    5850    216.21685    26.445486    132367.82   -40749.119    2639.8775   -43388.996    17.731709 
    5900    216.81783   -20.997188    132441.32   -40744.011    2647.2152   -43391.226     17.77964 
    5950    216.77791   -8.2737387    132357.71   -40726.544    2646.7277   -43373.272    17.873648 
    6000    214.92984    113.41971    132386.27   -40754.299     2624.164   -43378.463    17.982558 
    6050    213.76157    22.196371    132436.17   -40759.694    2609.9001   -43369.594    18.149575 
    6100     217.0333   -118.76084    132376.83   -40735.149    2649.8459   -43384.995    18.306098 
    6150    215.83533   -11.435495     132434.7   -40755.698    2635.2194   -43390.917    18.597215 
    6200    214.79901    20.654068    132363.96   -40831.884    2622.5666   -43454.451    18.643791 
    6250    217.23563    106.95219    132394.45   -40832.148    2652.3163   -43484.464    18.763527 
    6300    210.26465   -18.753285    132317.78   -40884.504    2567.2048   -43451.709    18.847966 
    6350     215.4233    156.32517    132435.48   -40838.614    2630.1887   -43468.803    18.994547 
    6400    210.98698    49.316872    132513.28   -40874.332     2576.024   -43450.356    19.126959 
    6450    213.65323   -164.33377    132545.56   -40907.436    2608.5774   -43516.013    19.265892 
    6500    210.18817    49.582317    132493.61   -40943.132     2566.271   -43509.403    19.459208 
    6550     213.0236    10.101489    132631.35    -40861.15    2600.8899    -43462.04    19.633959 
    6600     213.1107   -87.125907    132611.32   -40878.804    2601.9534   -43480.758    19.791283 
    6650    216.89871    138.13721    132589.61   -40854.344    2648.2026   -43502.546    19.804434 
    6700    216.81458    127.37899    132646.02   -40841.533    2647.1755   -43488.708     19.94999 
    6750    214.77373   -143.80352    132621.61   -40891.136     2622.258   -43513.394      20.1647 
    6800    210.33203    4.4787935    132523.64   -40908.403    2568.0275    -43476.43    20.360954 
    6850    214.67407   -30.635954    132427.58   -40887.048    2621.0411    -43508.09    20.462163 
    6900    214.66956    197.76269    132572.34   -40859.656     2620.986   -43480.642     20.55036 
    6950    212.46415    45.163063    132749.25   -40845.463    2594.0593   -43439.523    20.524107 
    7000     211.5569   -32.005551    132639.29   -40812.265    2582.9824   -43395.247    20.517144 
    7050    215.43076    93.310326    132725.23   -40803.785    2630.2799   -43434.064    20.695807 
    7100    217.83526   -157.96283    132635.19   -40796.275    2659.6374   -43455.913    20.805822 
    7150    214.56402    112.47817    132539.16   -40836.871    2619.6975   -43456.568    20.936023 
    7200    213.34345    167.40892    132688.33   -40866.396     2604.795   -43471.191    21.059499 
    7250    217.15655    9.6054569    132845.77   -40824.465    2651.3507   -43475.816     21.26372 
    7300     220.5824   -183.22384    132837.79   -40824.151    2693.1783    -43517.33    21.344857 
    7350    216.27941   -94.985782    132703.02     -40827.7    2640.6414   -43468.342    21.532133 
    7400    219.72043   -145.37626    132616.38   -40803.953    2682.6542   -43486.607    21.735197 
    7450    217.17848    62.065219    132562.29   -40820.933    2651.6185   -43472.551    21.903731 
    7500    215.36406    44.309089    132568.55   -40822.473    2629.4655   -43451.939    22.072043 
    7550    214.85399   -86.149467    132513.96   -40831.691    2623.2379   -43454.929    22.240414 
    7600     214.8516   -113.04694    132391.88   -40824.689    2623.2087   -43447.898    22.421271 
    7650    219.39623   -233.95169    132281.63   -40811.871    2678.6958   -43490.567    22.620087 
    7700    213.53014    95.660129    132194.68   -40827.548    2607.0744   -43434.622    22.826545 
    7750     214.6302   -36.209731    132157.28   -40829.679    2620.5055   -43450.184    23.132282 
    7800    214.34776    142.35844    132374.35   -40812.355    2617.0571   -43429.412    23.300324 
    7850    214.17359   -31.003307    132348.58   -40824.101    2614.9306   -43439.032    23.376653 
    7900    214.23249   -171.63842     132188.9   -40805.599    2615.6497   -43421.249    23.531566 
    7950     214.2179   -61.389755       132098    -40842.29    2615.4716   -43457.762    23.731293 
    8000    213.85491   -15.454251    132043.19   -40822.903    2611.0397   -43433.942    23.869925 
    8050    213.97061   -3.3090067    132036.55   -40840.881    2612.4523   -43453.334    24.048608 
    8100    215.75463   -84.766231    132059.79    -40868.27    2634.2342   -43502.504    24.264958 
    8150    214.80004    37.791732    132046.25   -40843.744    2622.5792   -43466.324    24.472396 
    8200    217.84395    36.497295    132294.57   -40828.987    2659.7435   -43488.731    24.628122 
    8250    210.86026    24.967797    132377.76   -40864.329    2574.4768   -43438.806    24.842245 
    8300    211.10406   -302.41026     132315.2   -40885.411    2577.4535   -43462.864    24.906303 
    8350    215.24933   -20.893232    132243.97   -40817.668    2628.0648   -43445.733    25.065504 
    8400    214.73117   -87.952728    132322.09   -40851.653    2621.7383   -43473.392    25.174983 
    8450    220.09164   -128.89062    132272.35   -40800.111    2687.1864   -43487.298    25.234698 
    8500     215.6284    85.847705    132296.93   -40803.139    2632.6929   -43435.831    25.358476 
    8550    219.11859    61.330804    132362.23    -40782.11    2675.3061   -43457.416    25.519895 
    8600     213.7529   -62.327861     132345.8   -40862.744    2609.7942   -43472.538    25.621801 
    8650    213.87455   -20.803927    132147.91   -40868.847    2611.2794   -43480.126    25.757265 
    8700    212.63378     106.1236    132204.68   -40886.143    2596.1304   -43482.273    25.923944 
    8750    215.58371    110.21949    132385.08   -40859.674    2632.1473   -43491.821    25.986664 
    8800    215.13714    21.226251    132455.73   -40843.108    2626.6949   -43469.803    26.000701 
    8850    215.28581   -134.43175    132568.58   -40829.028    2628.5101   -43457.538    25.989965 
    8900    216.98371    41.722915    132543.01   -40806.851    2649.2404   -43456.092    26.090323 
    8950    216.18526     -25.4294    132523.78   -40787.297    2639.4919   -43426.789     26.19534 
    9000    210.16119   -87.858952    132523.93   -40812.986    2565.9415   -43378.927    26.318894 
    9050    218.68856   -12.616266    132549.78   -40802.581    2670.0557   -43472.637    26.402635 
    9100    209.87299   -25.352129    132519.21   -40810.238    2562.4229   -43372.661    26.656418 
    9150     217.2953   -63.225748    132362.66   -40738.385    2653.0448    -43391.43    26.792291 
    9200    214.64301     85.22197    132371.09   -40759.816    2620.6619   -43380.478    26.941469 
    9250    216.85328   -74.494947    132265.78   -40741.033     2647.648   -43388.681    27.161422 
    9300    219.16663   -75.559564    132314.31   -40742.404    2675.8926   -43418.296    27.325985 
    9350    216.97395    55.337823    132206.41    -40736.15    2649.1214   -43385.272    27.416519 
    9400    221.17971   -12.276036    132202.75   -40687.385    2700.4711   -43387.856    27.604622 
    9450    215.01362   -28.093653    132128.71   -40662.225    2625.1868   -43287.412    27.720928 
    9500    219.36669    1.3139508    132104.52   -40675.837    2678.3352   -43354.172    27.716282 
    9550    213.49345   -9.5288446    131938.12   -40717.931    2606.6265   -43324.557    27.930781 
    9600     214.0762    147.32931     131991.3   -40703.789    2613.7415    -43317.53     28.17857 
    9650    210.06748   -63.923961    131950.98   -40767.106    2564.7974   -43331.904    28.276271 
    9700    213.36125    19.138432    131794.29    -40808.28    2605.0124   -43413.292    28.447318 
    9750    215.39118    73.125678    131878.92   -40789.494    2629.7966   -43419.291    28.699548 
    9800    214.54954     73.49847    132047.59   -40781.618    2619.5207   -43401.138     28.97452 
    9850    212.39009   -50.286748    132171.42   -40828.761    2593.1551   -43421.917    29.171355 
    9900    209.10427    111.81101    132250.69   -40827.474    2553.0373   -43380.511    29.497218 
    9950    211.73944   -175.60624    132276.07   -40785.344    2585.2111   -43370.555    29.658508 
   10000    215.23251   -32.481458    132185.63   -40788.742    2627.8594   -43416.601    29.887704 
   10050    216.29141   -50.624823    132089.61   -40669.761    2640.7879   -43310.549    30.019467 
   10100    218.64233    47.350068    132050.75   -40674.487    2669.4913   -43343.978    30.182544 
   10150    217.39638   -16.725366    132140.56   -40705.741    2654.2789    -43360.02    30.266031 
   10200    216.17954    131.00558    132069.14   -40705.193     2639.422   -43344.615    30.372811 
   10250    211.91171   -39.859953    132211.57   -40733.861    2587.3144   -43321.176    30.481895 
   10300    215.50202    25.082666    132197.88   -40687.043    2631.1499   -43318.193    30.509298 
   10350    212.84553    129.30338    132150.23   -40731.819    2598.7157   -43330.535    30.629873 
   10400    211.19948   -19.254284    132137.07   -40747.348    2578.6185   -43325.966    30.727177 
   10450    216.85405    34.828883    132179.29   -40712.584    2647.6574   -43360.241    31.002484 
   10500    214.85923    84.543348    132125.73   -40743.136    2623.3018   -43366.438    31.202953 
   10550    212.50357   -73.044582    132118.25   -40759.249    2594.5406    -43353.79    31.453762 
   10600    213.83194   -42.199625    132138.17   -40782.799    2610.7593   -43393.558    31.658465 
   10650    211.41161   -51.870684     132177.2   -40805.614    2581.2085   -43386.822    31.739254 
   10700    215.71236    124.87471    132210.08   -40754.133    2633.7181   -43387.851    31.916121 
   10750    211.70975   -139.31727    132101.38   -40732.557    2584.8486   -43317.406    32.046975 
   10800     211.0251   -136.12204    131963.76   -40763.361    2576.4894   -43339.851    32.244187 
   10850     215.2688   -48.161857    131792.26   -40753.328    2628.3025    -43381.63    32.423679 
   10900    210.62507   -137.49515    131821.38   -40822.722    2571.6053   -43394.327    32.740462 
   10950    215.00423    88.227514    131817.49   -40833.375    2625.0722   -43458.447    32.911168 
   11000     212.7879    61.793784    131811.44   -40844.649    2598.0122   -43442.661    33.026645 
   11050    211.77835    22.575981    131822.94   -40847.475    2585.6862   -43433.161    33.231894 
   11100    214.84892    66.635088    131870.32   -40822.361     2623.176   -43445.537    33.293735 
   11150    216.06547   -28.975032    131906.91   -40799.915    2638.0293   -43437.944     33.29941 
   11200     212.4784    -190.4264    131873.11   -40815.299    2594.2334   -43409.532    33.476364 
   11250    214.28282    152.84685     131947.7   -40761.957    2616.2642   -43378.221    33.513838 
   11300    216.77739    -54.47016    131990.35   -40708.393    2646.7214   -43355.115    33.649377 
   11350     215.3466    169.77589    132012.08   -40692.518    2629.2523   -43321.771    33.862178 
   11400    216.94182   -60.649183    132096.87   -40657.689     2648.729   -43306.418    34.054686 
   11450    216.82101    10.351465    131987.98   -40702.343    2647.2539   -43349.597    34.019697 
   11500     221.2328   -85.150003     131906.4   -40732.924    2701.1193   -43434.043    34.149995 
   11550       217.62    57.414329    131799.82   -40699.539    2657.0092   -43356.548    34.352951 
   11600    219.20248    18.587066    131921.25    -40682.78    2676.3304    -43359.11    34.537147 
   11650    216.72686   -177.36572    131849.38   -40713.804    2646.1045   -43359.908    34.840975 
   11700      216.356    139.29049    131872.62   -40768.414    2641.5765    -43409.99    35.097114 
   11750    212.23804    48.225012    131864.11   -40745.753    2591.2987   -43337.052     35.44519 
   11800    218.88524    12.887723    131835.96   -40758.511     2672.457   -43430.968    35.615695 
   11850    211.46892    127.98456    131958.28    -40796.84    2581.9082   -43378.748    35.755686 
   11900    215.14776   -41.960021    132018.89   -40794.303    2626.8246   -43421.128    35.888815 
   11950    212.91049    2.6222164     132074.7   -40767.199    2599.5089   -43366.708     36.06753 
   12000    214.85546    192.26419    132158.39   -40714.179    2623.2558   -43337.435    36.096286 
   12050    216.45038    43.800395    132228.32   -40685.316    2642.7289   -43328.045    36.322117 
   12100    218.28792     117.8965    132254.38   -40707.539    2665.1641   -43372.703    36.462948 
   12150    215.08569   -4.0811036    132282.12    -40694.64    2626.0667   -43320.707    36.628737 
   12200    219.82392    125.84521    132427.71   -40654.015    2683.9177   -43337.932    36.792484 
   12250    212.47062    -15.18439    132485.75   -40678.202    2594.1383   -43272.341    36.850044 
   12300    215.12356     82.54422    132484.52   -40692.712    2626.5291   -43319.241    36.753351 
   12350    223.11051      -34.749    132578.71    -40698.08    2724.0451   -43422.125    36.893859 
   12400    217.70935   -5.4113802    132534.31   -40733.735    2658.1001   -43391.835    37.088428 
   12450    216.48543   -43.247388    132694.48   -40765.009    2643.1567   -43408.165    37.388427 
   12500    215.77293   -64.274637    132493.08   -40748.256    2634.4576   -43382.714    37.492497 
   12550    219.21296   -13.796845    132566.58   -40720.014    2676.4583   -43396.472    37.574737 
   12600    214.02769    97.187484    132587.09   -40753.298    2613.1492   -43366.448    37.638222 
   12650    215.86009   -61.532061     132685.6   -40755.502    2635.5217   -43391.024    37.899826 
   12700    212.37808    61.528472     132526.4   -40722.582    2593.0085   -43315.591    38.013068 
   12750    213.73098    29.156048    132570.05   -40724.346    2609.5266   -43333.872    38.034703 
   12800    213.55155   -67.516959    132528.77   -40742.495    2607.3358   -43349.831    38.232194 
   12850    219.29163   -26.252007    132426.77   -40751.558    2677.4187   -43428.977    38.135645 
   12900    214.58615   -128.49388    132381.62   -40754.787    2619.9677   -43374.755    38.298063 
   12950    217.68675   -175.12147    132364.92   -40740.673    2657.8241   -43398.497    38.469396 
   13000     212.3459     60.49678    132418.88   -40770.276    2592.6156   -43362.892    38.583094 
   13050    212.44539   -32.546283    132568.04    -40857.59    2593.8304    -43451.42    38.777372 
   13100    212.02766    5.7232422    132662.32   -40839.842    2588.7301   -43428.572     38.95353 
   13150    215.48672    6.4587369    132438.79    -40836.74    2630.9631   -43467.703    38.933593 
   13200    212.72149   -49.006325    132471.95   -40842.912    2597.2013   -43440.113    39.163871 
   13250    212.12658    92.656661    132398.33   -40861.212    2589.9378    -43451.15    39.238303 
   13300    213.29659   -91.189103    132517.64   -40866.245     2604.223   -43470.468    39.226176 
   13350    214.64453    36.012323    132547.44   -40892.532    2620.6805   -43513.212    39.364686 
   13400    213.44062   -129.75998    132610.71   -40898.122    2605.9814   -43504.103    39.370178 
   13450    213.76097    148.77616    132548.34   -40880.493    2609.8927   -43490.386      39.4076 
   13500    216.01957   -49.411895    132533.57    -40818.88    2637.4689   -43456.349     39.44163 
   13550    218.29642   -19.118619     132476.4   -40841.356    2665.2679   -43506.623    39.653245 
   13600    218.44981   -100.04791    132443.19   -40786.788    2667.1407   -43453.929    39.893988 
   13650    215.98891    77.058446    132390.94   -40804.541    2637.0946   -43441.635    39.926641 
   13700    213.95974    -34.92538    132363.78   -40787.561    2612.3197    -43399.88    40.056002 
   13750    216.46726   -55.356429    132258.04   -40809.891    2642.9349   -43452.826    40.301452 
   13800    217.26464    57.186461    132390.73   -40815.393    2652.6704   -43468.064    40.532675 
   13850     214.8155    259.95149    132653.02   -40820.683     2622.768   -43443.451    40.657746 
   13900    215.32546    68.762342    132859.47   -40788.411    2628.9942   -43417.406    40.805554 
   13950      215.736    4.4563168    133009.56   -40818.702    2634.0067   -43452.709    40.988843 
   14000    214.93384   -64.065023    132974.31   -40824.909    2624.2128   -43449.121    41.113715 
   14050    214.69452   -44.259761    132932.22   -40844.274    2621.2909   -43465.565    41.425217 
   14100    213.05798   -190.47176    132824.42   -40843.421    2601.3096   -43444.731    41.604682 
   14150    211.52105   -75.268945     132639.4   -40819.794    2582.5447   -43402.339    41.840603 
   14200    214.01341    33.605939    132617.53   -40830.581    2612.9749   -43443.556    41.869801 
   14250    214.75936    10.143853     132600.7   -40883.407    2622.0825    -43505.49    41.822296 
   14300    215.95246   -30.219279    132583.62   -40879.508    2636.6496   -43516.158    41.832008 
   14350    218.53794    99.219069    132572.03   -40855.284    2668.2166     -43523.5    41.974372 
   14400    215.34376     42.14228    132623.17   -40896.758    2629.2177   -43525.976    42.048259 
   14450     210.1619   -154.13415    132652.22   -40914.046    2565.9503   -43479.997     41.99636 
   14500    218.13416   -118.67669    132469.33   -40832.659    2663.2867   -43495.946    42.072157 
   14550    215.71144   -40.485678    132340.29   -40858.371    2633.7069   -43492.078    41.983827 
   14600    214.39138   -30.879563    132262.23   -40886.563    2617.5897   -43504.153     42.03016 
   14650    209.12608   -82.532737    132228.39   -40960.783    2553.3035   -43514.086    42.243383 
   14700    212.96718   -31.706865    132147.64    -40890.05     2600.201   -43490.251    42.489362 
   14750    214.24448    10.825774     132211.3   -40912.934    2615.7961    -43528.73    42.770908 
   14800    211.88301   -33.251095    132231.74   -40909.047     2586.964   -43496.011    42.907431 
   14850    208.41103    38.552325    132264.66   -40909.352    2544.5732   -43453.925    43.149449 
   14900    213.55995   -45.516359    132194.19    -40934.37    2607.4384   -43541.809    43.245162 
   14950    209.50761    132.82055    132259.91   -40913.239    2557.9618   -43471.201    43.402473 
   15000    212.98946    11.537657    132233.49   -40855.663    2600.4731   -43456.136    43.502128 
   15050    214.35019    113.63309     132309.6   -40864.539    2617.0868   -43481.626    43.640805 
   15100    216.14168    179.69887    132411.91   -40809.422    2638.9598   -43448.381    43.846083 
   15150    211.73585    51.633622    132548.53   -40825.384    2585.1672   -43410.551    44.046992 
   15200    216.69785     180.6057    132643.99   -40781.995    2645.7503   -43427.745    44.263659 
   15250     215.5655   -9.3208629    132676.79   -40803.048    2631.9249   -43434.973    44.438761 
   15300    213.00579    11.144444    132587.36   -40837.148    2600.6725   -43437.821    44.500663 
   15350    214.27591   -19.974762    132626.73   -40871.487    2616.1798   -43487.666     44.61112 
   15400    211.99107   -61.707058    132603.02   -40914.633    2588.2833   -43502.916    44.665442 
   15450    215.61672    90.676403    132542.91   -40879.301    2632.5504   -43511.852    44.750501 
   15500    217.06806    80.721983    132709.72   -40809.347    2650.2703   -43459.617    45.012429 
   15550    215.77678   -118.39047     132691.6   -40839.212    2634.5046   -43473.716     45.28698 
   15600    219.03234   -19.835238    132631.61   -40833.485     2674.253   -43507.738    45.224209 
   15650    216.99301    73.618143    132712.28   -40847.162     2649.354   -43496.516    45.253686 
   15700    216.42923    47.683685    132897.47   -40801.376    2642.4706   -43443.847    45.278019 
   15750    218.56367   -43.988939    132810.13   -40741.792    2668.5308   -43410.323    45.524206 
   15800    218.43752   -185.44142    132717.57   -40761.816    2666.9906   -43428.807    45.651966 
   15850    219.37766    164.26229    132776.99   -40754.839    2678.4691   -43433.308    45.703209 
   15900    217.80583    16.938355    132859.83   -40760.514    2659.2781   -43419.792    45.812203 
   15950    216.62617    8.1513155    132910.85    -40807.32    2644.8752   -43452.195     45.83517 
   16000    216.73943    73.417934    132809.66   -40789.869    2646.2579   -43436.127     46.23157 
   16050    216.51817   -55.141606    132749.26   -40777.508    2643.5565   -43421.064    46.286935 
   16100    215.43883    -90.36903    132650.88   -40800.633    2630.3784   -43431.011    46.217374 
   16150    213.21547    5.3861415    132628.41   -40826.814    2603.2326   -43430.047    46.202819 
   16200    213.39895   -8.9895326    132762.36   -40830.807    2605.4728    -43436.28    46.554823 
   16250    213.88356   -144.79031    132765.69   -40830.145    2611.3895   -43441.535      46.5522 
   16300    218.03553    127.38275    132692.67   -40821.791    2662.0825   -43483.874    46.499863 
   16350    215.83332    69.570719    132659.98   -40820.488    2635.1948   -43455.683    46.669724 
   16400    214.20018  -0.53779198    132521.26   -40855.999    2615.2552   -43471.255     46.86653 
   16450    213.64263    55.606052    132661.38   -40828.104    2608.4479   -43436.552    47.032529 
   16500    212.71909   -134.59164    132653.05    -40804.64     2597.172   -43401.812    47.079508 
   16550    214.82839   -54.904499    132644.74   -40811.142    2622.9253   -43434.067    47.112969 
   16600    212.94253   -104.57209    132487.66   -40821.388    2599.9001   -43421.289    47.207075 
   16650    215.99457     -139.295    132435.32   -40773.014    2637.1637   -43410.178    47.354839 
   16700     212.3564    237.72698     132550.1   -40787.626    2592.7438    -43380.37    47.422101 
   16750    212.96638   -76.394281    132637.99   -40772.465    2600.1913   -43372.656    47.514925 
   16800    214.39167   -103.82847    132612.17   -40788.026    2617.5932   -43405.619    47.523656 
   16850    213.52357  -0.92296106    132505.74   -40721.754    2606.9943   -43328.748    47.585467 
   16900     217.8148   -25.049031    132461.43   -40719.002    2659.3876   -43378.389    47.707015 
   16950    214.38917     43.72379    132557.17   -40730.077    2617.5627    -43347.64    47.934011 
   17000    212.97947   -231.71218    132303.91   -40755.133    2600.3511   -43355.484    48.159981 
   17050    217.88263    82.731522    132254.22   -40758.513    2660.2158   -43418.729    48.304246 
   17100     216.8518    13.017052     132432.7   -40736.503    2647.6299   -43384.132    48.456634 
   17150    216.22511   -47.811766    132450.62   -40721.485    2639.9784   -43361.463    48.613242 
   17200    216.04907   -7.5298629    132521.36   -40763.714     2637.829   -43401.543    48.705215 
   17250    219.05753    79.479821    132499.17   -40670.051    2674.5606   -43344.612    48.922571 
   17300    217.75407    24.818659    132413.67   -40626.417    2658.6461   -43285.063    49.122642 
   17350    218.40648   -51.366884    132424.78   -40633.462    2666.6116   -43300.073    49.221095 
   17400    222.70304   -9.6521923    132409.14   -40639.696    2719.0701   -43358.766    49.309967 
   17450    215.73316    165.02456    132372.82   -40644.245     2633.972   -43278.217    49.397423 
   17500     218.3786    74.499462    132426.88   -40638.301    2666.2713   -43304.572     49.52867 
   17550    219.73316   -150.71196    132385.25   -40663.303    2682.8096   -43346.113     49.68562 
   17600     218.4738    -44.37907    132362.16   -40711.079    2667.4336   -43378.513    49.702315 
   17650    215.42132    6.8617431    132415.41   -40674.771    2630.1646   -43304.935    49.731538 
   17700    214.51868    30.490173    132400.27   -40700.275    2619.1439   -43319.419    49.987178 
   17750     216.9804   -127.05687    132414.11    -40664.91    2649.2001    -43314.11    50.116555 
   17800    215.91597   -237.82475    132148.21    -40620.61     2636.204   -43256.814     50.08414 
   17850     217.2837    -67.73048       132025   -40671.239    2652.9032   -43324.142    50.220005 
   17900    211.87526    40.212165    131972.74   -40680.428    2586.8694   -43267.297    50.412111 
   17950     213.4464   -216.22579    131877.63   -40670.423     2606.052   -43276.475    50.390911 
   18000    211.55823    244.41673    131866.83   -40675.142    2582.9987   -43258.141    50.535503 
   18050    217.97145    -58.77702    132032.74   -40628.802    2661.3001   -43290.102    50.636853 
   18100    218.47183   -74.116474    131965.19   -40676.854    2667.4095   -43344.264    50.987713 
   18150    215.57305   -5.6341296    131986.44   -40630.577    2632.0171   -43262.595    51.202321 
   18200    222.24534   -118.75514    131894.83   -40617.153    2713.4818   -43330.635    51.449404 
   18250    216.92341   -99.277241    131737.23   -40623.581    2648.5042   -43272.085    51.613408 
   18300    213.57058    112.75822    131780.25   -40678.507    2607.5682   -43286.075    51.666737 
   18350    214.16058   -60.621904    131826.66   -40706.677    2614.7718   -43321.449     51.93072 
   18400    217.57017   -17.797258    131927.81   -40669.672    2656.4008   -43326.073    52.300739 
   18450    221.17101    -14.48553    131875.97   -40590.295    2700.3648    -43290.66    52.382823 
   18500     217.0275   -133.65711    131970.43   -40636.081    2649.7751   -43285.856    52.358991 
   18550    219.36081    14.571859    131896.65   -40612.529    2678.2634   -43290.792    52.327866 
   18600    215.13074    74.142643    132010.48   -40577.436    2626.6168   -43204.053    52.687031 
   18650    218.50664    17.437949    132020.66   -40571.458    2667.8345   -43239.292    52.913854 
   18700    217.83323    42.543329    132101.42   -40584.408    2659.6127    -43244.02    53.074032 
   18750    219.37462   -40.897051    132159.13   -40577.587    2678.4321   -43256.019    53.314695 
   18800     216.0072   -6.1956079    132231.63   -40599.926    2637.3179   -43237.244    53.338615 
   18850    216.97604   -115.09987    132042.95   -40645.541    2649.1469   -43294.688     53.52251 
   18900    218.60575   -10.048907    132074.95    -40647.58    2669.0446   -43316.625    53.794405 
   18950    215.65484   -86.421025     132006.5   -40664.143    2633.0158   -43297.159    53.960195 
   19000    215.91765   -120.92473    131924.55   -40659.444    2636.2245   -43295.669    54.123396 
   19050    212.84302   -56.717342    131796.97   -40721.255    2598.6851    -43319.94    53.964552 
   19100    214.35115    192.71259    131880.63   -40695.459    2617.0985   -43312.557    54.139012 
   19150    212.10033    129.32027    131906.18   -40730.816    2589.6174   -43320.433    54.321264 
   19200    213.32495    108.92074    132141.23   -40725.292    2604.5692   -43329.862    54.700583 
   19250    209.79563   -12.141624    132029.89   -40779.235    2561.4783   -43340.714    54.930894 
   19300    211.91942    16.121094    132023.99   -40800.448    2587.4086   -43387.857    55.218767 
   19350    213.48581   -35.371107    131973.37   -40737.167    2606.5333     -43343.7    55.372733 
   19400    215.96337   -89.294255    131957.81   -40761.379    2636.7828   -43398.162    55.554306 
   19450    214.03213    166.17682    131930.85   -40788.935    2613.2034   -43402.139    55.663087 
   19500    215.46476   -6.9369665    132010.95   -40808.714     2630.695   -43439.409    55.753524 
   19550    211.12847   -103.41729    132051.57   -40795.378    2577.7515   -43373.129    55.935021 
   19600    214.73722   -153.58563    132027.96   -40798.584    2621.8122   -43420.396     56.29362 
   19650     214.2577   -92.749803    131956.46   -40802.792    2615.9575   -43418.749    56.497821 
   19700     213.0963   -25.439466    131872.15   -40772.554    2601.7776   -43374.332    56.572545 
   19750    213.12229   -46.975059     131892.5   -40733.044    2602.0948   -43335.139    56.729914 
   19800    217.08119   -24.295035    131831.59   -40702.717    2650.4307   -43353.148     56.93075 
   19850     217.0495    25.480573    131887.61   -40745.174    2650.0437   -43395.218    57.020279 
   19900     215.7436   -163.63517     131838.7   -40722.503    2634.0995   -43356.603    57.185048 
   19950    211.95368     60.43201    131862.78   -40720.044    2587.8269   -43307.871    57.418821 
   20000    213.85008   -8.5219838    131918.12    -40742.91    2610.9808   -43353.891    57.634888 
   20050    219.95804    73.643599    131941.91   -40731.421    2685.5552   -43416.976    57.880291 
   20100    212.19121   -35.069096    132010.05   -40802.328    2590.7269   -43393.055    57.993216 
   20150    214.39467   -96.667466    131961.13   -40796.729    2617.6299   -43414.358    58.140062 
   20200    215.68153     37.09808     131864.2    -40737.73    2633.3416   -43371.071    58.257509 
   20250    220.56759   -35.859998     131885.3    -40732.28    2692.9975   -43425.277    58.403477 
   20300    218.36208    38.360449    131843.62   -40700.898    2666.0696   -43366.968    58.460043 
   20350    215.52372    76.505849    131991.21    -40709.72    2631.4149   -43341.135    58.482039 
   20400    212.63004    20.624504    132114.24   -40736.234    2596.0848   -43332.319    58.584799 
   20450    216.94332    155.60269    132171.13    -40715.46    2648.7473   -43364.208     58.68557 
   20500    218.75383    26.639571    132332.67   -40697.501    2670.8526   -43368.354    58.874683 
   20550    215.21267    19.199616    132257.76   -40684.095    2627.6172   -43311.712    59.074102 
   20600    216.52765    79.874326    132280.47   -40708.564    2643.6722   -43352.236    59.096632 
   20650    215.80123   -46.188289    132259.65   -40707.417     2634.803    -43342.22    58.982242 
   20700    214.39192   -13.176525    132169.48   -40719.134    2617.5963   -43336.731    59.095893 
   20750     219.4856    -133.8427    132180.27   -40657.949     2679.787   -43337.736    59.212359 
   20800    217.22492   -121.94918    132133.04   -40665.771    2652.1855   -43317.957    59.361095 
   20850    218.57949    -59.42512    131890.33   -40684.321    2668.7239   -43353.045    59.382771 
   20900    215.90887    34.656681    131825.51   -40683.991    2636.1174   -43320.108    59.607415 
   20950    215.44647    82.183652    131694.22   -40698.397    2630.4716   -43328.869    59.794461 
   21000    212.06126   -134.11281    131693.86    -40769.48    2589.1403    -43358.62    60.166218 
   21050    211.77229    24.298336    131569.19   -40751.339    2585.6122   -43336.951    60.374687 
   21100     211.1986    68.586765    131616.04   -40740.443    2578.6077    -43319.05    60.342185 
   21150    216.05382    86.807634    131857.88   -40711.365     2637.887   -43349.252    60.538448 
   21200    214.39955   -85.028827    131752.97   -40758.833    2617.6895   -43376.523    60.625824 
   21250    213.87864   -2.2523318    131693.94   -40752.684    2611.3294   -43364.013       60.872 
   21300    218.40368   -35.186083    131612.65   -40716.334    2666.5775   -43382.912    60.950426 
   21350    215.19386    86.006534    131599.66   -40778.518    2627.3875   -43405.906     61.06151 
   21400    209.91399    52.033986    131729.74   -40803.956    2562.9235   -43366.879    61.217804 
   21450    214.54417   -38.781096    131709.69   -40721.784    2619.4551   -43341.239    61.531718 
   21500    215.52055   -126.11048    131698.57   -40788.547    2631.3762   -43419.923    61.725669 
   21550    218.73243    136.79375    131858.36   -40758.937    2670.5913   -43429.529     62.01418 
   21600    212.39037    24.729253    131867.36   -40794.034    2593.1585   -43387.193     62.32324 
   21650     216.0883    56.390322    131805.81   -40745.902    2638.3081    -43384.21    62.515413 
   21700    214.21332   -99.918498     131806.8   -40771.757    2615.4157   -43387.172    62.537144 
   21750    215.22116    90.757088     131821.4   -40745.018    2627.7208   -43372.738    62.529111 
   21800    210.56446   -125.00066    131738.08   -40773.141    2570.8653   -43344.006    62.715816 
   21850    210.83127   -70.943586    131683.24   -40756.302    2574.1229   -43330.424    62.827222 
   21900    211.49407    -8.250601    131694.02   -40786.008    2582.2152   -43368.223    62.760141 
   21950    209.35116   -111.09055    131668.77   -40785.071    2556.0516   -43341.122    62.858857 
   22000    219.88868    216.73606    131763.47   -40744.612    2684.7084    -43429.32    63.088024 
   22050    217.63608    39.223811    131893.18   -40704.104    2657.2055   -43361.309    63.458117 
   22100    218.06852   -33.992892    132009.04   -40668.141    2662.4854   -43330.627    63.622769 
   22150    216.27027    143.49398    132072.21   -40649.488    2640.5298   -43290.018    63.840237 
   22200    218.71207   -105.45329    132109.33   -40628.091    2670.3428   -43298.434    64.084575 
   22250    220.18774    120.52252    132133.17   -40645.934    2688.3597   -43334.294    64.296465 
   22300    215.99682   -32.672327    132093.89   -40699.133    2637.1911   -43336.324    64.456866 
   22350    216.07958    41.696259    132177.22   -40707.852    2638.2016   -43346.053    64.644045 
   22400    220.61958    126.25236    132225.62   -40702.616    2693.6322   -43396.248    64.549628 
   22450    215.84107   -119.23108    132290.31   -40750.019    2635.2895   -43385.308    64.831876 
   22500    210.22287    77.708637    132252.96   -40820.764    2566.6947   -43387.459    65.107787 
   22550    212.09788    -276.0821    132064.97   -40835.545    2589.5874   -43425.132    65.255672 
   22600    209.75459   -4.0553224    131921.52   -40875.408    2560.9772   -43436.385    65.389464 
   22650    214.35173   -78.914452    131976.01    -40851.21    2617.1056   -43468.315    65.638364 
   22700    209.06626   -29.453579    131867.09   -40861.587    2552.5732    -43414.16    65.559653 
   22750    212.49647   -16.203941    131737.58   -40818.942    2594.4539   -43413.395    65.772213 
   22800    213.03365    215.31557    131868.02   -40793.108    2601.0127   -43394.121    65.910063 
   22850    216.24684    93.377542    132129.17   -40782.577    2640.2437   -43422.821    65.969323 
   22900    217.52576     116.4184    132133.07   -40765.607    2655.8586   -43421.466    66.133975 
   22950    215.64598    38.159934    132126.56   -40830.525    2632.9076   -43463.432    66.407497 
   23000    211.29668    129.60564    132231.12   -40856.645    2579.8053    -43436.45    66.579274 
   23050    217.86293   -18.958408    132256.49   -40814.412    2659.9752   -43474.387    66.923363 
   23100    216.70485    208.32001    132325.17   -40786.262    2645.8358   -43432.098    67.099815 
   23150    216.92754    201.93695    132545.36   -40773.791    2648.5547   -43422.346     67.16111 
   23200    215.55532   -10.860187    132519.26   -40822.354    2631.8007   -43454.154    67.626383 
   23250    215.15054   -22.317217    132494.13   -40784.753    2626.8586   -43411.612    67.681605 
   23300    213.04215    78.855141     132509.3   -40815.959    2601.1163   -43417.075     67.70798 
   23350    211.96076   -141.29998     132306.9   -40814.177    2587.9132   -43402.091    67.893587 
   23400    216.46095    43.632264    132269.52   -40776.104    2642.8579   -43418.962    67.933363 
   23450    217.57862   -11.879479    132320.29   -40756.271    2656.5039   -43412.775    68.041814 
   23500    215.59715   -82.838117    132244.05   -40770.294    2632.3114   -43402.605    68.027083 
   23550    211.75233    62.534956    132186.46   -40825.602    2585.3684   -43410.971    68.115201 
   23600    213.11222   -40.566093    132231.57   -40784.929    2601.9719   -43386.901    68.205476 
   23650    215.05743    12.377554    132313.66   -40763.863    2625.7217   -43389.585    68.297855 
   23700    211.25057    62.971597    132239.48   -40850.622    2579.2423   -43429.864    68.381436 
   23750    212.42685    80.536713    132322.53    -40805.13     2593.604   -43398.734    68.658068 
   23800    212.34115    -36.71137    132272.68   -40792.775    2592.5577   -43385.332    68.995055 
   23850    214.25911   -42.490426    132228.85   -40803.551    2615.9747   -43419.526     69.05467 
   23900    218.13174   -145.00479    132068.19   -40742.014    2663.2572   -43405.271    69.029211 
   23950    219.63893   -57.043578    131927.16   -40709.367    2681.6591   -43391.026     69.13926 
   24000    218.24057   -138.12978    131816.12   -40720.792     2664.586   -43385.378    69.244772 
   24050    210.81927    132.08656    131783.15   -40774.758    2573.9763   -43348.734    69.117567 
   24100     213.8475    54.431906    131925.87   -40751.251    2610.9493   -43362.201    69.410455 
   24150    213.43478    124.76816    131918.23   -40722.605    2605.9101   -43328.515     69.43374 
   24200    214.28345    22.347445    132003.87   -40734.628    2616.2719     -43350.9    69.578142 
   24250    215.64446     21.41457    131983.58   -40725.653     2632.889   -43358.542    69.972327 
   24300    217.39197   -52.068088    132001.17   -40684.679    2654.2251   -43338.904    70.143828 
   24350     218.6744    109.56406    132061.29   -40711.352    2669.8827   -43381.235    70.384384 
   24400    212.71661    21.618399    132193.48   -40740.919    2597.1418   -43338.061    70.561245 
   24450    209.72496   -140.56684    132138.49   -40773.118    2560.6155   -43333.734    70.747614 
   24500    216.18004    57.361386    132199.99   -40762.672    2639.4282     -43402.1    70.903194 
   24550    213.43186   -88.343675    132126.82   -40766.634    2605.8745   -43372.509    71.082013 
   24600    212.28503   -36.652388    131881.36   -40754.163    2591.8724   -43346.035     71.12083 
   24650    214.78248    144.11966    131944.72   -40726.773    2622.3648   -43349.138    71.094389 
   24700    208.15935    60.857554    132038.93   -40775.302    2541.5003   -43316.803    71.233199 
   24750    211.81076    139.20446     132193.6   -40757.509    2586.0818   -43343.591     71.35381 
   24800    217.35301    76.363116    132249.99   -40731.245    2653.7493   -43384.995     71.54454 
   24850    215.15305    85.906776     132377.8   -40748.577    2626.8892   -43375.466    71.693658 
   24900    217.60123    -148.0191    132409.19   -40731.404      2656.78   -43388.184    71.891631 
   24950    214.83533   -153.70518    132198.27   -40712.692    2623.0101   -43335.702    71.811738 
   25000    215.49216    47.036218    132105.92   -40697.539    2631.0295   -43328.569    71.898229 
   25050    215.23086    73.083341    132105.79    -40662.72    2627.8393    -43290.56    72.011442 
   25100    215.67038    58.980232    132099.72   -40659.239    2633.2055   -43292.444    72.390474 
   25150    214.98213    41.751737    132193.43   -40685.067    2624.8024   -43309.869    72.675114 
   25200    213.78428   -124.27529    132138.82   -40709.653    2610.1774    -43319.83    72.842202 
   25250    210.22365    89.707048    132093.92   -40670.673    2566.7042   -43237.377    72.972685 
   25300    214.30645     23.72268    132149.31   -40675.522    2616.5528   -43292.075    73.182892 
   25350     213.2986    90.454226    132201.39   -40709.551    2604.2475   -43313.799    73.374853 
   25400    217.24868   -85.369327    132178.99    -40698.85    2652.4756   -43351.326    73.436603 
   25450     211.9355    18.929027    132127.71   -40741.055    2587.6048    -43328.66     73.55612 
   25500    212.17317   -61.334635    132133.22   -40761.952    2590.5066   -43352.458    73.644227 
   25550    211.33403   -47.989745     131981.5   -40762.438    2580.2613   -43342.699    73.678201 
   25600    211.70235   -8.4991839    131862.97   -40743.106    2584.7582   -43327.864    73.858071 
   25650    211.61983   -56.443521    131839.98    -40753.24    2583.7507   -43336.991    73.994586 
   25700    213.23807   -11.311584    131694.86    -40731.13    2603.5084   -43334.639    74.047885 
   25750    217.05529    110.60691     131666.9   -40702.867    2650.1144   -43352.982    74.234177 
   25800    217.63803    39.982262     131884.2   -40699.948    2657.2293   -43357.177    74.452247 
   25850    219.35612   -90.991277    131879.23   -40674.882    2678.2062   -43353.088    74.627099 
   25900    219.35948   -122.12356    131916.59   -40687.631    2678.2472   -43365.878    74.892356 
   25950    217.17614   -28.742851    131906.94   -40718.063    2651.5899   -43369.653    74.894809 
   26000    214.48412   -53.663037     131987.2   -40766.163     2618.722   -43384.885    75.216191 
   26050     214.5488     25.60479    132038.51   -40701.414    2619.5117   -43320.926    75.453948 
   26100    215.77691    210.97331     132110.9   -40743.051    2634.5062   -43377.557    75.577448 
   26150     219.3472   -55.530647    132185.75   -40734.669    2678.0972   -43412.767     75.75878 
   26200    214.17602    21.805419    132146.07   -40709.407    2614.9602   -43324.367    76.109468 
   26250    217.60444   -78.438988     132177.7   -40695.466    2656.8192   -43352.286    76.407063 
   26300    211.18175    45.845291    132146.81   -40731.014     2578.402   -43309.416    76.558631 
   26350    217.41975    -91.34612    132124.81    -40726.55    2654.5643   -43381.115    76.462977 
   26400    215.11754    12.943598    131997.43   -40768.328    2626.4556   -43394.784    76.558216 
   26450    215.05518   -75.115853    132093.99   -40746.859    2625.6943   -43372.553    76.683046 
   26500    210.63291    109.81742    132011.48   -40767.849    2571.7011    -43339.55    76.828189 
   26550    213.75128   -48.349355    131945.66   -40796.385    2609.7745    -43406.16    76.821329 
   26600     216.9979   -178.20651    131867.34   -40788.373    2649.4137   -43437.786    76.559165 
   26650    212.60767    25.610226    131801.98   -40833.308    2595.8117    -43429.12    76.705585 
   26700    213.42464    206.90674    131868.59   -40842.748    2605.7864   -43448.534    77.101536 
   26750    212.75134    167.68519    132020.27   -40845.582    2597.5657   -43443.148    77.383644 
   26800    209.48931    109.49117    132163.91   -40823.222    2557.7383    -43380.96    77.515094 
   26850    210.38097    156.05466    132274.25   -40793.618     2568.625   -43362.243    77.657347 
   26900    214.53329   -290.06599    132225.96   -40731.722    2619.3223   -43351.044    77.762272 
   26950    217.59703    6.6383295    132157.04   -40704.557    2656.7288   -43361.286     77.82286 
   27000    213.92634    77.309024    132319.04    -40722.94    2611.9119   -43334.852    78.081155 
   27050    213.82482   -140.90873    132325.18   -40730.671    2610.6723   -43341.343    78.214766 
   27100    217.27388    214.52018    132496.32   -40685.563    2652.7832   -43338.347    78.180991 
   27150     215.9968     -105.209    132409.01   -40697.801    2637.1909   -43334.992     78.32709 
   27200    210.67238    -137.3469     132206.7   -40760.228    2572.1829   -43332.411    78.339849 
   27250     210.7293    31.826566    132110.49   -40748.464    2572.8779   -43321.342    78.473005 
   27300    215.47836     15.40966    132068.05   -40763.251    2630.8611   -43394.112    78.819286 
   27350    214.17754   -5.4704525    132166.45   -40761.859    2614.9788   -43376.838    79.229968 
   27400    214.24477    6.1542266    132272.55     -40750.5    2615.7996     -43366.3    79.390872 
   27450    212.29017    113.20132    132238.94   -40754.434    2591.9351   -43346.369    79.580195 
   27500    216.82994    42.351539    132300.83   -40666.869     2647.363   -43314.232     79.73208 
   27550    218.44821    62.245801    132230.42   -40691.847    2667.1211   -43358.968    79.784101 
   27600    215.24688   -117.92117    132169.28   -40733.766    2628.0348   -43361.801    80.034693 
   27650     213.7927    24.752897    132156.01    -40736.64    2610.2802    -43346.92    80.310017 
   27700    211.75215    192.70194    132211.84   -40734.363    2585.3662    -43319.73    80.472408 
   27750    214.14471    10.622834    132258.92   -40742.491     2614.578   -43357.069    80.595835 
   27800    214.92065   -20.406733    132321.91   -40711.786    2624.0517   -43335.837    80.734289 
   27850    218.44337    3.2296318    132283.95   -40703.188     2667.062    -43370.25    80.885316 
   27900    217.70696   -5.7563253    132289.81   -40718.904    2658.0709   -43376.975    80.898322 
   27950    212.05746   -114.76684    132333.89   -40768.405    2589.0939   -43357.499    81.078612 
   28000    216.53898   -79.974312     132081.3   -40767.901    2643.8105   -43411.711    81.115754 
   28050    216.80777    86.989834    132133.47   -40753.811    2647.0923   -43400.904     81.17326 
   28100    215.90338   -119.05338    132160.72   -40759.025    2636.0503   -43395.075    81.302662 
   28150    215.37219    -91.35997    131968.85   -40765.519    2629.5648   -43395.084    81.384117 
   28200    216.60407   -73.891112    131867.32   -40748.891    2644.6053   -43393.496    81.658571 
   28250    212.30582    116.40925    131845.48   -40793.069    2592.1263   -43385.196    81.879822 
   28300    212.22875   -164.49398    131730.81   -40800.872    2591.1853   -43392.057     82.03145 
   28350    213.85551    105.59998    131705.04   -40807.846     2611.047   -43418.893     82.22827 
   28400    209.88406   -21.482887    131755.39   -40826.892     2562.558    -43389.45    82.092884 
   28450    210.66424    242.01332       131821   -40760.503    2572.0835   -43332.587    82.247677 
   28500     216.8073    63.696767    131911.07   -40763.751    2647.0866   -43410.838    82.409805 
   28550    213.33518     4.601864    131870.19   -40757.597    2604.6941   -43362.291    82.468897 
   28600    212.38984   -45.908128    131752.96   -40703.933    2593.1521   -43297.085     82.58026 
   28650     211.5644   -1.4409175    131652.56   -40737.758     2583.074   -43320.832    82.480121 
   28700    212.72171    59.070388    131603.45   -40720.215    2597.2041   -43317.419    82.528563 
   28750    211.70248   -53.041212    131626.89   -40735.748    2584.7598   -43320.508    82.641032 
   28800    209.78516   -25.625791    131546.25   -40730.183    2561.3506   -43291.533    82.690119 
   28850    214.41064    142.86183    131660.73   -40678.773    2617.8248   -43296.597    82.962888 
   28900    217.37805    174.25554    131898.58   -40693.507    2654.0551   -43347.562    83.167944 
   28950    220.05905     41.48012     132047.6   -40714.432    2686.7885   -43401.221    83.519344 
   29000    213.93152    -21.15872    132107.76   -40745.098    2611.9751   -43357.073    83.811158 
   29050    211.66316    9.6785353       132113   -40717.226    2584.2798   -43301.506    84.058798 
   29100    211.43093   -18.395483    131941.71    -40755.89    2581.4443   -43337.334    84.148812 
   29150    217.65204   -139.71541    131938.23   -40666.313    2657.4004   -43323.713     84.26506 
   29200    215.84555     233.3654    131963.81   -40738.473    2635.3442   -43373.818    84.272516 
   29250    213.60918   0.21957452    132048.29   -40727.983    2608.0395   -43336.023    84.680772 
   29300    212.00741   -106.28443    131930.96   -40730.403    2588.4828   -43318.886    84.801619 
   29350    215.80691   -21.631181     131780.6   -40706.197    2634.8725    -43341.07    84.955261 
   29400    220.87009    86.032557    131967.19   -40636.781    2696.6909   -43333.472    85.218978 
   29450    218.79451    164.50335     132079.6   -40634.626    2671.3492   -43305.975     85.37209 
   29500    216.17814    -274.5895    132125.08   -40635.694    2639.4049   -43275.099    85.449308 
   29550    214.52635    8.6619346    131962.25   -40672.569    2619.2376   -43291.806    85.862676 
   29600     217.0859    2.5384501    131918.28   -40659.069    2650.4882   -43309.557    85.906938 
   29650    218.68836    -61.05547    132039.01   -40685.433    2670.0533   -43355.486    86.245353 
   29700    213.17733   -36.922498    132073.64   -40701.503    2602.7668    -43304.27    86.209581 
   29750    214.84287   -56.195972     131991.1   -40670.234    2623.1021   -43293.336    86.200586 
   29800    214.69501    83.415756    131883.41    -40719.76    2621.2968   -43341.057    86.137544 
   29850    211.89868   -80.590187    131973.28     -40693.3    2587.1553   -43280.456    86.198456 
   29900    212.20173   -152.26635    132013.22   -40685.449    2590.8554   -43276.304    86.513009 
   29950    215.98758   -55.414212    132061.44   -40647.313    2637.0783   -43284.391    86.780078 
   30000    219.96889    191.86403    132058.33    -40605.67    2685.6877   -43291.357    86.845703 
   30050    214.52416    142.27547     132144.8   -40650.768    2619.2108   -43269.979    87.168312 
   30100    218.46338    157.55083    132339.75   -40554.691    2667.3064   -43221.998    87.534084 
   30150    219.58468    3.4385266    132439.96   -40539.041    2680.9968   -43220.038    87.725241 
   30200    216.28416   -165.79127    132376.56   -40582.766    2640.6994   -43223.465    87.903208 
   30250    219.31903    48.950223    132419.99   -40556.938    2677.7534   -43234.691    87.775053 
   30300    216.58506   -100.48285     132308.5   -40603.248    2644.3732   -43247.621    87.995339 
   30350    216.36861    280.00124    132424.51   -40661.998    2641.7305   -43303.728    88.156488 
   30400     213.7981   -115.25414    132536.06   -40648.853    2610.3461   -43259.199    88.597405 
   30450    213.58277   -72.854961    132525.39   -40680.421     2607.717   -43288.138    88.890963 
   30500    214.92613   -88.073015    132349.98   -40719.069    2624.1186   -43343.187    89.120746 
   30550    220.85647    2.9704207    132244.88   -40723.839    2696.5245   -43420.363    89.240921 
   30600    220.21665   -63.998168    132360.88   -40661.967    2688.7128   -43350.679    89.501942 
   30650    216.96644    27.168265    132303.49   -40671.298    2649.0296   -43320.328    89.730215 
   30700    214.04394    184.18384    132451.73   -40707.161    2613.3476   -43320.508    89.885082 
   30750    212.40598    25.910767    132408.99   -40697.633    2593.3492   -43290.982    90.089233 
   30800    216.85002   -41.816255    132353.83   -40699.843    2647.6082   -43347.451    90.092875 
   30850    213.31769   -127.95509    132296.85    -40686.46    2604.4805    -43290.94    90.142411 
   30900    219.66442   -79.406301    132195.54   -40687.778    2681.9703   -43369.748    90.055646 
   30950    215.96822   -70.901014    132130.03   -40706.745    2636.8419   -43343.587    90.432139 
   31000     211.0605     136.6753    132066.94   -40699.745    2576.9217   -43276.667    90.770211 
   31050     216.2586    65.809344    132199.12    -40700.61    2640.3874   -43340.997    91.093243 
   31100     217.3156    24.735681    132202.13   -40691.597    2653.2926   -43344.889    91.209925 
   31150    214.60577   -166.60843    132237.29   -40731.637    2620.2072   -43351.844    91.285709 
   31200    212.99542   -79.383912    132258.91   -40722.379    2600.5458   -43322.924    91.347997 
   31250    213.72309   -77.851457    132165.32    -40695.24    2609.4303    -43304.67    91.786478 
   31300    214.67877   -27.699654     132043.1   -40690.779    2621.0985   -43311.877    92.005262 
   31350    212.13506    -36.94683    131957.55   -40737.433    2590.0414   -43327.474    91.805701 
   31400    211.48914   0.58217771    131937.39    -40697.26    2582.1551   -43279.415    91.856902 
   31450    214.06085   -29.702757    131882.59   -40669.276    2613.5541    -43282.83    91.747842 
   31500    218.81077    141.04525    131901.93   -40667.179    2671.5478   -43338.727    92.021852 
   31550    210.46183    229.01953    132077.38   -40743.085    2569.6123   -43312.697    92.227625 
   31600     210.9904   -77.077342    132142.84     -40736.9    2576.0657   -43312.965    92.498801 
   31650    208.30417   -116.91848     131979.3   -40792.413    2543.2685   -43335.681    92.684675 
   31700    217.27362    87.952034    131967.24   -40772.598    2652.7801   -43425.378    92.949103 
   31750    213.86531     77.83761    131958.44   -40747.575    2611.1666   -43358.742    93.108031 
   31800    215.36136    19.651299    131912.02   -40739.204    2629.4326   -43368.636    93.127575 
   31850    217.22624    76.832356    132081.01   -40712.738    2652.2016   -43364.939     93.33353 
   31900    218.48538    33.466786    131991.75   -40717.853    2667.5749   -43385.428    93.387839 
   31950    218.74697    118.38819    132027.87   -40742.795    2670.7688   -43413.564    93.461441 
   32000    212.73423     46.33095    132118.81   -40790.329    2597.3568   -43387.685      93.8963 
   32050     207.0089     15.40373    132131.86    -40802.63     2527.454   -43330.084    93.776771 
   32100    216.30767   -133.83999    132028.76   -40767.362    2640.9865   -43408.349    93.746318 
   32150    212.98175   -114.10434    132108.77   -40843.257    2600.3789   -43443.636    93.844075 
   32200    213.59568   -21.991511    132197.07   -40859.596    2607.8746   -43467.471    94.004214 
   32250    211.73882   -49.342672    132269.51   -40873.891    2585.2035   -43459.094    94.059836 
   32300    214.44715   -28.864664    132195.31   -40800.419    2618.2706   -43418.689    94.048487 
   32350    214.98957    120.36444    132238.03   -40801.344    2624.8932   -43426.238    94.300265 
   32400    213.79395     96.32351    132324.76   -40833.039    2610.2955   -43443.334    94.844552 
   32450    216.46217   -97.476807    132260.69   -40776.771    2642.8728   -43419.644    94.903223 
   32500     217.1194    -9.700142    132152.63   -40764.403    2650.8971     -43415.3    95.112398 
   32550    215.69743    21.777745    132267.69   -40719.078    2633.5357   -43352.613    95.546666 
   32600    212.97636   -31.936529    132326.78   -40716.093    2600.3131   -43316.406    95.633136 
   32650    213.33702   -121.99463    132277.47   -40753.542    2604.7166   -43358.259    95.856291 
   32700    216.21792   -82.578654    132245.35   -40735.533    2639.8906   -43375.424    96.008266 
   32750     211.9992      -89.036    132120.26   -40721.833    2588.3826   -43310.216    96.248454 
   32800    211.71889    52.713178    132092.15   -40748.974    2584.9602   -43333.935     96.35243 
   32850     215.9698    71.491157       132088   -40760.532    2636.8613   -43397.394    96.589356 
   32900    212.31991    163.57912     132199.8   -40801.672    2592.2983    -43393.97    96.789679 
   32950    213.22959    118.32451    132336.33   -40783.841     2603.405   -43387.246    97.021711 
   33000    211.11763    11.035779    132446.04   -40778.115    2577.6191   -43355.734    97.197623 
   33050    211.28214    34.249267    132442.12   -40762.581    2579.6277   -43342.209     97.23813 
   33100    211.95623    31.685708    132493.59   -40807.883     2587.858   -43395.741    97.292768 
   33150     208.2372    46.526548    132438.65   -40824.211    2542.4508   -43366.662      97.3305 
   33200    217.64898    15.220895    132588.76   -40788.419     2657.363   -43445.782    97.477797 
   33250    216.48608   -87.267342    132521.29   -40828.409    2643.1647   -43471.573      97.5495 
   33300    215.01558   -222.03939    132394.24   -40795.813    2625.2108   -43421.024    97.345002 
   33350    216.96491    32.996018    132235.68    -40790.46     2649.011   -43439.471    97.374563 
   33400    213.63539    110.27232    132294.06   -40824.025    2608.3595   -43432.384    97.641635 
   33450    213.64408    132.03897    132355.24   -40765.315    2608.4656   -43373.781    97.957468 
   33500    217.50586   -62.423962    132398.96   -40797.185    2655.6156     -43452.8     98.10041 
   33550    217.34018    42.237007    132468.18   -40836.608    2653.5928     -43490.2    98.357895 
   33600    210.45517    256.25366    132580.14   -40857.286     2569.531   -43426.817    98.565909 
   33650    211.39133   0.68629517     132578.4    -40920.21    2580.9608   -43501.171    98.701191 
   33700    213.49144   -41.690459    132692.86   -40876.486    2606.6019   -43483.088    98.768717 
   33750    215.86738    7.4516357    132657.74   -40844.441    2635.6107   -43480.052    98.954407 
   33800    215.93564    21.566941    132553.07   -40835.619    2636.4442   -43472.063    99.095314 
   33850    219.68203    146.34514    132552.24   -40768.099    2682.1853   -43450.284    99.360009 
   33900    215.67631   -9.0325997    132674.51   -40813.597    2633.2779   -43446.875    99.617669 
   33950    214.86449   -25.763774    132574.47    -40832.48     2623.366   -43455.846    99.577741 
   34000    215.57274   -126.00715    132485.47    -40829.45    2632.0134   -43461.463    99.865259 
   34050    218.47862    26.443017    132269.65   -40783.096    2667.4924   -43450.589    99.908916 
   34100    212.98866   -60.034418    132069.49   -40852.479    2600.4633   -43452.942    99.667718 
   34150    215.71888    20.598053    132072.25   -40868.997    2633.7977   -43502.795    99.799519 
   34200    211.56169   -28.941279    132284.11   -40855.796    2583.0408   -43438.837     99.95655 
   34250    218.17792   -47.006966    132203.81   -40808.339     2663.821    -43472.16    99.925764 
   34300    215.41382   -63.117418    132227.52   -40839.698     2630.073   -43469.771    100.11039 
   34350    214.72941   -141.82581     132104.1   -40801.479    2621.7168   -43423.196    100.09952 
   34400    216.17096    214.51902    132151.81   -40828.124    2639.3172   -43467.442    100.20824 
   34450    218.36516    39.637652    132351.78   -40828.634    2666.1071   -43494.741    100.50462 
   34500    218.54563    271.70362    132426.16   -40821.816    2668.3105   -43490.127    100.56767 
   34550    212.44865    58.637466    132586.91   -40877.609    2593.8701    -43471.48    100.62222 
   34600    210.28364   -12.051672    132701.72   -40861.647    2567.4367   -43429.083    100.77326 
   34650    212.58454   -91.010267    132654.76   -40881.881    2595.5292    -43477.41    100.95335 
   34700    217.80127   -127.24047    132546.79   -40877.664    2659.2224   -43536.886    100.94598 
   34750     209.3239    59.916713    132476.08   -40882.893    2555.7188   -43438.611    100.80467 
   34800    210.62617   -117.19585    132314.17    -40856.65    2571.6188   -43428.269    101.08032 
   34850    211.04017   -56.025972    132159.27   -40865.699    2576.6734   -43442.373    101.03661 
   34900    208.78839   -76.064045    132162.93   -40893.208    2549.1806   -43442.389    101.31804 
   34950     212.2853    10.476609    132183.77    -40895.01    2591.8758   -43486.886    101.73912 
   35000    210.34852    93.419967    132246.16    -40891.82    2568.2289   -43460.049    102.13435 
   35050    211.78087   -46.038905    132313.27   -40884.309    2585.7169   -43470.025    102.40923 
   35100    209.42748   -89.728253    132331.83    -40879.01    2556.9835   -43435.994    102.51496 
   35150    211.57212   -6.7396286    132359.52    -40855.19    2583.1682   -43438.359    102.77424 
   35200     211.7912    8.9123537     132189.7   -40842.927     2585.843    -43428.77    102.73385 
   35250    213.83653   -127.70245    132150.43   -40836.449    2610.8152   -43447.264    102.67656 
   35300    211.26621    174.00266    132277.22   -40873.352    2579.4332   -43452.785    102.85548 
   35350    215.64542    83.419804    132342.28   -40839.792    2632.9008   -43472.693    102.87807 
   35400    212.20419     -3.03714    132225.88   -40874.029    2590.8854   -43464.914     102.7348 
   35450    208.27225    94.955836    132278.59   -40908.685    2542.8788   -43451.564    103.16055 
   35500    212.32208     89.30561    132332.27   -40892.725    2592.3248    -43485.05    103.30144 
   35550    215.10384    113.56251    132337.79   -40824.372    2626.2883   -43450.661     103.2597 
   35600    216.46699    37.775939    132371.35   -40879.635    2642.9316   -43522.567    103.42531 
   35650    213.86019    51.650096     132416.1    -40865.28    2611.1042   -43476.385    103.61016 
   35700    213.33821    43.446203    132379.82   -40844.196    2604.7311   -43448.927    103.74352 
   35750    213.00974    37.330326    132454.48   -40885.055    2600.7207   -43485.776    104.02412 
   35800    215.65697   -200.73445    132408.45   -40891.201    2633.0418   -43524.243    104.03694 
   35850    212.39057   -70.306002    132188.95   -40892.329     2593.161    -43485.49    103.87946 
   35900     215.8205     45.63725    132227.38   -40861.109    2635.0384   -43496.147    104.04171 
   35950    211.60565    107.63628    132257.34   -40831.606    2583.5776   -43415.183    104.21215 
   36000    215.43265    50.419827    132334.69    -40849.47    2630.3029   -43479.772    104.60201 
   36050    218.63672    12.477821    132338.94   -40818.394    2669.4227   -43487.816    104.93622 
   36100    215.85088   -6.7213048    132489.25   -40803.872    2635.4094   -43439.281    105.07052 
   36150    210.75757  -0.49806641    132475.71   -40860.129     2573.223   -43433.352    105.44035 
   36200    207.76534   -159.11703    132360.85   -40912.871    2536.6897    -43449.56    105.37595 
   36250    216.28871   -31.173158    132166.35   -40860.043    2640.7549   -43500.798    105.27765 
   36300    210.42573    22.781267    132159.82   -40905.414    2569.1715   -43474.585    105.32183 
   36350    211.44057    89.842375    132218.66   -40917.644    2581.5621   -43499.207     105.4454 
   36400    212.03596    73.601599    132338.65   -40880.786    2588.8314   -43469.617    105.64506 
   36450     206.9768     109.0806    132256.52   -40897.939    2527.0622   -43425.001    105.65876 
   36500    212.92786   -105.83192    132211.25   -40866.212     2599.721   -43465.933    105.47183 
   36550    218.05619    22.117556    132182.35   -40804.544    2662.3348   -43466.879    105.16981 
   36600    214.94797    1.7134715    132237.83   -40815.584    2624.3853   -43439.969    105.45241 
   36650    216.44215    1.7639368    132172.06   -40831.455    2642.6283   -43474.083    105.57172 
   36700    212.88863    95.180687    132162.56   -40818.513     2599.242   -43417.755    105.69422 
   36750     216.4172    43.091499    132245.88   -40768.385    2642.3237   -43410.708    106.14214 
   36800    215.58867    -147.3121    132100.25   -40768.903    2632.2078    -43401.11    106.40496 
   36850    219.88992    56.703252    131937.62   -40773.861    2684.7236   -43458.584    106.23017 
   36900    214.12919    125.37516    132024.35   -40772.015    2614.3885   -43386.404     106.5718 
   36950     211.2192   -54.566431    132062.75   -40793.476    2578.8593   -43372.335    107.01341 
   37000    219.72313    7.8466935    131843.38   -40757.205    2682.6872   -43439.892    107.13712 
   37050    217.29309   -82.588716    131850.88   -40757.153    2653.0178   -43410.171    107.35619 
   37100    215.71853   -131.12235    131750.09   -40774.479    2633.7933   -43408.272    107.29354 
   37150     213.5782   -26.233489    131818.45   -40770.025    2607.6613   -43377.687     107.1707 
   37200    213.09882    24.811903    131860.93   -40773.133    2601.8083   -43374.941    107.66583 
   37250    216.40661    47.738954    131914.42   -40747.712    2642.1945   -43389.906    107.81306 
   37300    216.72009    33.432048    131917.14   -40712.165    2646.0218   -43358.187    107.67039 
[...]
  191000    219.02237    71.606399    132350.94   -40760.078    2674.1313    -43434.21    532.77445 
  191050    214.30152   -14.059104    132229.57   -40800.834    2616.4925   -43417.327    532.97387 
  191100     215.5075    30.818097    132315.73   -40860.064    2631.2168    -43491.28     533.7916 
  191150    214.67184   -108.61557    132301.48   -40837.427    2621.0139   -43458.441    533.65663 
  191200    214.35269   -1.7158954    132278.66   -40841.985    2617.1173   -43459.102    533.61342 
  191250    215.84171    19.747025    132158.78   -40853.818    2635.2973   -43489.115    532.88992 
  191300    216.23369    63.288945    132221.93   -40836.431    2640.0832   -43476.514     533.0306 
  191350    215.19745     22.85966    132272.64    -40834.81    2627.4313   -43462.242    533.20552 
  191400    210.86131   -90.308695    132235.05   -40816.456    2574.4897   -43390.946    533.17129 
  191450    217.61983   -10.819243    132242.39   -40813.044    2657.0072   -43470.051    533.06324 
  191500    216.27902     -31.7355    132332.19   -40848.541    2640.6366   -43489.178    533.69155 
  191550    215.67693   -11.044396    132415.92   -40858.866    2633.2855   -43492.151    533.31706 
  191600    218.04515   -7.6554101    132447.26    -40845.98       2662.2    -43508.18    533.57245 
  191650    214.49701    103.79658    132433.78   -40862.335    2618.8793   -43481.215    533.92021 
  191700    213.27362    204.28662    132379.26   -40899.324    2603.9426   -43503.267    533.58689 
  191750    214.02585   -27.780428    132489.01   -40877.715    2613.1268   -43490.842    534.22745 
  191800    213.23865    59.454744    132461.61   -40818.023    2603.5156   -43421.538    534.18368 
  191850    216.08545    99.892268    132477.99    -40814.34    2638.2733   -43452.613    534.09121 
  191900    212.80252    46.699815    132570.03   -40821.317    2598.1907   -43419.508    534.03121 
  191950    216.75084   -177.61157    132578.39   -40805.547    2646.3973   -43451.944    534.25565 
  192000    216.09869    49.498284    132506.74   -40825.406    2638.4349   -43463.841    533.90412 
  192050    215.25895    -50.06399    132571.87   -40856.279    2628.1822   -43484.461    533.80138 
  192100    214.45846   -47.592675    132515.59   -40921.025    2618.4087   -43539.434    534.29204 
  192150    211.52282    70.354967    132533.86   -40876.231    2582.5663   -43458.797    534.57557 
  192200    215.71507    115.00761    132623.04    -40875.04    2633.7512   -43508.792    534.91393 
  192250    211.57999   -222.32198    132575.33   -40912.686    2583.2643    -43495.95    534.95657 
  192300    208.67235    73.401487    132506.55   -40951.925    2547.7637   -43499.689    534.95193 
  192350    215.67255   -64.174647    132517.91   -40924.817     2633.232   -43558.049    535.05278 
  192400    212.98345   -26.677964    132652.39   -40871.094    2600.3997   -43471.494    534.99452 
  192450    213.58989    4.4424095    132607.64    -40888.52     2607.804   -43496.324    535.19129 
  192500    214.70682   -83.080218    132532.29   -40857.883     2621.441   -43479.324    534.78277 
  192550    215.51228    95.200379    132606.12   -40827.383    2631.2752   -43458.658    534.74195 
  192600     217.7107    106.65632    132806.18   -40777.093    2658.1165   -43435.209    534.79517 
  192650    216.84293    1.6299922     132773.9   -40797.273    2647.5217   -43444.794    534.42845 
  192700    214.96713    136.02506    132920.01   -40776.898    2624.6193   -43401.517    535.15363 
  192750    216.52211   -99.848756    133022.41   -40783.174    2643.6046   -43426.779    535.99741 
  192800    213.73427     84.13483    133055.22    -40805.61    2609.5668   -43415.177    536.31788 
  192850    218.18889   -260.76173     132920.6   -40784.801     2663.955   -43448.756    536.30902 
  192900    214.43974   -180.30945    132570.01   -40788.032    2618.1802   -43406.212    536.58088 
  192950    213.82168   -67.017639    132381.12   -40788.164     2610.634   -43398.798    536.17941 
  193000    216.50607    26.173511    132279.44    -40762.23    2643.4087   -43405.639     535.9694 
  193050    215.29174   -4.9985997    132361.07   -40730.833    2628.5825   -43359.415    536.19552 
  193100    221.91753    -19.40444    132432.16   -40715.712    2709.4794   -43425.191    537.06116 
  193150    214.84172   -55.250912    132370.08   -40769.244    2623.0881   -43392.332    537.38438 
  193200    212.30538    75.663735    132374.87   -40795.814    2592.1209   -43387.935    537.27999 
  193250    216.18408   -101.85321    132312.27   -40818.801    2639.4775   -43458.279    537.53153 
  193300    212.82694   -58.085847     132245.1   -40817.598    2598.4889   -43416.087    537.26516 
  193350    215.02431   -123.81535    132195.18   -40789.247    2625.3173   -43414.565     537.2382 
  193400    213.18718      148.592    132159.66   -40805.018    2602.8871   -43407.905    536.97005 
  193450    214.21859    80.370352     132210.4   -40863.745    2615.4801   -43479.225    537.23143 
  193500    215.71377    18.367233    132238.43   -40800.109    2633.7353   -43433.844    537.70647 
  193550    220.00971   -139.62575    132241.94   -40788.887    2686.1862   -43475.073    537.83194 
  193600    218.51445    58.321072    132216.24   -40760.884    2667.9299   -43428.814    537.96872 
  193650    218.67557    79.801638    132203.32   -40755.245     2669.897   -43425.142    538.15057 
  193700    216.87991   -79.894725    132118.01   -40779.162    2647.9732   -43427.135    537.98391 
  193750    214.31045    158.05949    132124.83   -40764.599    2616.6015   -43381.201    538.26173 
  193800    217.77974     92.04241    132387.56    -40806.36    2658.9596   -43465.319    539.16392 
  193850    214.08028    20.629486    132203.05   -40822.387    2613.7913   -43436.178    538.87115 
  193900    216.63118    164.84134       132245   -40811.144    2644.9363   -43456.081    539.32323 
  193950    215.26722     94.13921    132476.33   -40814.321    2628.2832   -43442.604    539.54863 
  194000    211.75953   -41.337422    132492.85    -40854.71    2585.4563   -43440.166    540.33154 
  194050    211.00494   -87.350829    132502.18   -40835.399    2576.2433   -43411.643    540.36109 
  194100    212.08685   -4.0415339    132357.88   -40842.431    2589.4528   -43431.884    539.83533 
  194150    212.14369     -1.82122    132383.91   -40846.363    2590.1467    -43436.51    540.01445 
  194200      214.263    78.446784    132500.62   -40856.473    2616.0222   -43472.495    541.01359 
  194250    216.33098    37.288531    132590.57    -40807.26     2641.271   -43448.531     541.0109 
  194300     214.2206    150.38473    132542.92   -40825.905    2615.5046   -43441.409    541.18338 
  194350    213.31265    111.33276    132611.44   -40875.329     2604.419   -43479.748    541.52055 
  194400    215.03512    15.895601    132796.64   -40825.762    2625.4493   -43451.211    542.17002 
  194450    211.13837   -157.48187    132602.84   -40836.045    2577.8724   -43413.917    541.63647 
  194500    210.38924   -21.168986    132467.96    -40908.04    2568.7259   -43476.766    541.55603 
  194550    208.22871   -78.337478    132232.79   -40960.564    2542.3472   -43502.911    541.72653 
  194600    208.92633   -37.706803    132280.62   -40974.903    2550.8647   -43525.768    541.92486 
  194650    210.97362   -154.03045    132198.11   -40958.086    2575.8609   -43533.947    541.34134 
  194700    210.37512    120.97972       132139   -40915.656    2568.5535   -43484.209     541.6567 
  194750    210.03618    26.151822    132087.65   -40915.757    2564.4154   -43480.172    541.77356 
  194800     212.5467    30.521998    132106.59    -40885.04    2595.0672   -43480.108    541.67826 
  194850    216.23101   -16.195592    132193.49   -40856.626    2640.0504   -43496.676    541.70853 
  194900    216.46776    58.040836    132223.76   -40806.028     2642.941   -43448.969    541.78257 
  194950    215.79773     170.7401    132396.13   -40764.734    2634.7603   -43399.494    542.23131 
  195000    215.63403   -152.20942    132206.31   -40781.272    2632.7616   -43414.034    542.01659 
  195050    212.82806    7.0797412    132111.29   -40821.401    2598.5024   -43419.903    541.91583 
  195100    211.86021    -35.62163    132211.46   -40812.616    2586.6856   -43399.301    542.46431 
  195150    214.17406   -121.96822    132111.94   -40760.967    2614.9364   -43375.903    542.11122 
  195200    214.47366   -108.87421    132105.97   -40758.044    2618.5943   -43376.638    542.29135 
  195250    216.00947    63.912724    131932.49   -40784.537    2637.3456   -43421.883    542.00063 
  195300    214.69704    -20.59601    131891.83   -40801.361    2621.3216   -43422.683      542.139 
  195350    214.72151   -96.481992    131702.05   -40768.949    2621.6203    -43390.57    541.24873 
  195400    214.85527   0.29963304    131563.63   -40757.583    2623.2535   -43380.836    540.83645 
  195450     214.2403    78.740455    131786.56   -40788.693     2615.745   -43404.438    541.41727 
  195500      218.115   -21.102522    131719.31   -40792.918    2663.0529   -43455.971    541.63959 
  195550    212.12893    50.657767    131658.88   -40770.664    2589.9665   -43360.631    541.43147 
  195600     211.8355    22.333274    131647.61   -40823.323     2586.384   -43409.707    541.47611 
  195650    211.04701    145.13003    131702.35   -40806.169     2576.757   -43382.926    541.51804 
  195700    210.37153    268.06277    131952.82   -40777.567    2568.5097   -43346.076    542.38861 
  195750     215.0849    54.735099    132159.48    -40764.25    2626.0572   -43390.307    543.12558 
  195800    216.38318   -43.079644    132219.32   -40775.658    2641.9084   -43417.566    542.97485 
  195850    219.00762     103.6323    132266.95   -40804.808    2673.9512   -43478.759     543.3471 
  195900    216.29419   -40.397557    132322.52   -40816.156    2640.8219   -43456.978      543.581 
  195950    215.01141    99.221896    132443.34   -40802.446    2625.1599   -43427.606    543.93295 
  196000    212.73604   -60.743917    132334.87   -40811.053     2597.379   -43408.432     543.8101 
  196050    214.49464    102.82254    132328.34   -40792.775    2618.8504   -43411.625    543.99675 
  196100    215.05143   -81.286501    132258.02   -40752.422    2625.6485   -43378.071    543.88856 
  196150    218.21548   -85.248258    132270.68   -40769.967    2664.2796   -43434.246    544.42905 
  196200    210.45401    83.824802    132082.59   -40835.302    2569.5167   -43404.819    544.17308 
  196250    215.43952   -11.482495    132215.57   -40798.933    2630.3869    -43429.32    544.44834 
  196300    213.35288   -28.686012     132092.6   -40842.578    2604.9102   -43447.488    544.04368 
  196350    215.86967    26.468747    132157.99   -40792.671    2635.6387    -43428.31    544.23647 
  196400    215.88404   -44.562014    132199.94   -40758.633    2635.8142   -43394.448    544.71458 
  196450    215.41171   -98.060539    132129.79   -40763.337    2630.0473   -43393.385    544.49883 
  196500    212.54808   -64.919369    132016.11   -40848.722    2595.0841   -43443.807    544.50847 
  196550    216.11041   -70.451574    131948.51   -40846.455     2638.578   -43485.033    544.28388 
  196600    211.96472    39.724026    132018.38   -40848.889    2587.9616   -43436.851    544.54271 
  196650    216.09363    -18.35645    131910.22   -40790.674    2638.3731   -43429.047     544.3365 
  196700    216.01955   -114.78633    132004.07   -40819.349    2637.4686   -43456.818    545.09169 
  196750    216.23531    68.148543    131919.28   -40790.419    2640.1029   -43430.522     544.3886 
  196800    215.88836    9.7140584    131917.78   -40754.436    2635.8669   -43390.303    544.27093 
  196850    213.38366       25.105    131818.42    -40730.41    2605.2861   -43335.696    544.04946 
  196900    216.08273    22.867054    131881.46   -40669.001      2638.24   -43307.241    544.03237 
  196950    215.70863   -11.517635    131931.85   -40656.404    2633.6725   -43290.077    544.44232 
  197000    215.01637   -20.652756    131840.19   -40687.438    2625.2205   -43312.659    544.49683 
  197050    216.25796    100.65616    132033.77   -40683.777    2640.3795   -43324.157     544.9844 
  197100    219.49592   -45.721784    132077.64   -40677.454     2679.913   -43357.367    545.72192 
  197150    215.30632   -141.09436    131913.48   -40711.488    2628.7606   -43340.248    544.84238 
  197200    215.25738    52.910983    131901.36   -40733.139     2628.163   -43361.302    544.62333 
  197250    216.30281    73.437242    131997.15   -40739.224    2640.9271   -43380.151    544.75239 
  197300    213.96067   -14.297674    132022.51   -40784.452     2612.331   -43396.783    544.96523 
  197350    214.31495    46.886429    132060.37   -40766.907    2616.6565   -43383.563    545.11653 
  197400    215.13344     15.66292    132171.01   -40754.335    2626.6497   -43380.985    545.56655 
  197450    215.68923    93.857341    132102.86   -40763.278    2633.4357   -43396.713    546.14625 
  197500    214.43561   -1.1743075     132110.9   -40739.057    2618.1297   -43357.187    546.12751 
  197550    214.80668   -62.867666    131887.88   -40686.523    2622.6602   -43309.184    545.99654 
  197600    212.32195   -6.6750477    131868.31   -40716.871    2592.3232   -43309.194    545.91499 
  197650    216.87937    21.327751    131892.33   -40702.533    2647.9665     -43350.5    545.92239 
  197700     217.7112     67.81347    132070.07   -40671.256    2658.1226   -43329.379    546.26566 
  197750    215.52924    56.882139    132167.13   -40689.338    2631.4822    -43320.82    546.74281 
  197800    218.53969   -66.236523    132027.14   -40712.273    2668.2381   -43380.511    546.45203 
  197850    220.38691    57.398474     132062.6   -40666.182    2690.7915   -43356.974    546.74793 
  197900    212.62691   -105.29705    131915.85   -40703.443    2596.0466    -43299.49    545.86402 
  197950    211.90546   -210.13913    131837.81   -40755.048    2587.2381   -43342.287    545.92316 
  198000    214.79429   -70.200564    131746.65   -40747.144     2622.509   -43369.653    545.46119 
  198050    213.48506    82.952351    131856.75   -40700.355     2606.524   -43306.879    546.17577 
  198100     214.7721      74.2524    131949.13   -40694.513     2622.238   -43316.751    546.55502 
  198150    216.26984    161.60472       132044   -40660.421    2640.5245   -43300.946     546.4566 
  198200    215.80208    29.264652    132268.64   -40699.518    2634.8134   -43334.331    547.86948 
  198250    212.80796    139.58222    132328.43   -40728.477    2598.2571   -43326.734    547.89037 
  198300    215.74584   -91.776873    132262.92   -40733.983    2634.1268   -43368.109    548.09006 
  198350    211.10857     131.5449    132419.23   -40775.871    2577.5086   -43353.379    548.74028 
  198400    212.55221    125.39517     132523.4   -40761.819    2595.1346   -43356.954     549.7574 
  198450    213.27386    21.197228    132440.51   -40745.132    2603.9455   -43349.077    549.72491 
  198500    215.23954   -62.214564    132462.61   -40730.642    2627.9452   -43358.587     550.1422 
  198550    220.08636    -57.12589    132396.67   -40661.247     2687.122   -43348.369    549.55453 
  198600    216.59523   -92.860723     132305.7   -40714.653    2644.4974   -43359.151     549.4352 
  198650    215.13633    -114.5427    132298.82   -40742.288    2626.6851   -43368.973    549.82856 
  198700    216.52752   -86.062576    132221.11   -40737.124    2643.6707   -43380.795     549.7681 
  198750    215.73994    22.866719    132257.27   -40712.859    2634.0548   -43346.914    549.81998 
  198800    210.51679   -55.960441    132201.66   -40744.526    2570.2832   -43314.809    549.57586 
  198850    211.62174    91.230528    132126.61   -40755.832    2583.7741   -43339.606    549.20566 
  198900    214.41833    -31.67265    132136.24   -40756.552    2617.9187   -43374.471     549.4761 
  198950    216.18589    6.3130269    132223.99   -40735.917    2639.4995   -43375.416    549.56816 
  199000     214.1286   -38.996461    132213.84   -40754.796    2614.3813   -43369.177    549.81455 
  199050    211.08916   -3.9122519    132152.52   -40780.118    2577.2716    -43357.39    549.88845 
  199100    213.59043    66.235078    131945.57   -40805.368    2607.8106   -43413.178    549.82813 
  199150    215.71807   -45.084631    131870.49   -40826.055    2633.7878   -43459.842    549.62519 
  199200    213.36209   -14.393005     131978.5   -40809.724    2605.0226   -43414.747    550.27976 
  199250    213.01163    182.38884    132043.81   -40765.892    2600.7438   -43366.635     550.5019 
  199300    212.43249    73.210669    132221.02   -40750.163    2593.6728   -43343.835    551.41934 
  199350    214.82013    145.11689    132151.57   -40771.319    2622.8244   -43394.143    551.40095 
  199400     214.9778   -58.762674    132206.02   -40707.575    2624.7495   -43332.324    552.07124 
  199450    215.55808    5.9967169    132305.75   -40685.861    2631.8343   -43317.695    552.40534 
  199500    213.86019    161.48161    132410.72   -40710.948    2611.1041   -43322.052    552.61875 
  199550    215.29964   -8.4925392     132337.2   -40676.487     2628.679   -43305.166    552.42976 
  199600    217.47273   -166.13784    132396.81    -40645.94    2655.2112   -43301.151    553.14141 
  199650     219.4586   -73.556952    132309.36     -40678.2    2679.4574   -43357.658    552.91728 
  199700    217.35974    198.25791    132401.74   -40702.584    2653.8315   -43356.415    553.01292 
  199750    209.33574    2.8071788    132472.35   -40753.966    2555.8634   -43309.829    553.48716 
  199800    211.72837     108.4743    132581.38   -40754.011    2585.0759   -43339.087    553.48998 
  199850    214.99998   -52.020227    132669.21   -40764.953    2625.0203   -43389.973    554.26168 
  199900    214.40892    54.571371    132645.46   -40732.032    2617.8039   -43349.836     554.6068 
  199950    217.30728   -178.12766    132519.66    -40726.65    2653.1911   -43379.841    554.21664 
  200000    215.85411    59.408524     132411.3   -40715.765    2635.4487   -43351.214    553.83624 
Loop time of 335.018 on 12 procs for 200000 steps with 4097 atoms

Performance: 257.897 ns/day, 0.093 hours/ns, 596.984 timesteps/s
99.5% CPU use with 12 MPI tasks x no OpenMP threads

MPI task timing breakdown:
Section |  min time  |  avg time  |  max time  |%varavg| %total
---------------------------------------------------------------
Pair    | 236.36     | 276.34     | 300.09     | 158.6 | 82.48
Neigh   | 6.1668     | 7.1418     | 7.9368     |  25.5 |  2.13
Comm    | 20.665     | 44.824     | 85.576     | 401.7 | 13.38
Output  | 0.1514     | 0.17502    | 0.4265     |  18.1 |  0.05
Modify  | 4.9758     | 5.1426     | 5.3105     |   4.0 |  1.54
Other   |            | 1.396      |            |       |  0.42

Nlocal:    341.417 ave 364 max 300 min
Histogram: 3 1 0 0 0 0 0 0 1 7
Nghost:    966.833 ave 1007 max 916 min
Histogram: 2 1 1 0 0 0 1 3 3 1
Neighs:    0 ave 0 max 0 min
Histogram: 12 0 0 0 0 0 0 0 0 0
FullNghs:  11107 ave 12053 max 9555 min
Histogram: 3 1 0 0 0 0 0 0 5 3

Total # of neighbors = 133284
Ave neighs/atom = 32.5321
Neighbor list builds = 11814
Dangerous builds = 0

write_data		${DIR}/data.eq-${NAME}-${TEMP}
write_data		run_5/data.eq-${NAME}-${TEMP}
write_data		run_5/data.eq-hardcavity_freeze_5-${TEMP}
write_data		run_5/data.eq-hardcavity_freeze_5-215
undump          1

reset_timestep  0

unfix           2
unfix           3
unfix           4


################################################
#######         Run Simulation         #########
################################################

log				${DIR}/log.run_${NAME}
log				run_5/log.run_${NAME}
log				run_5/log.run_hardcavity_freeze_5
