
# Set production fixes - Nose/Hoover
#
fix                 4 water temp/csvr ${START_TEMP} ${END_TEMP} 500.0 928347
fix                 4 water temp/csvr 240 ${END_TEMP} 500.0 928347
fix                 4 water temp/csvr 240 227 500.0 928347


## divide "droplet" into core and surface
#region		core_reg cylinder z 135 135 44.6 20 INF units box
#region		surface_reg cylinder z 135 135 44.6 20 INF units box side out
#group		core dynamic all region core_reg
#group		surface dynamic all region surface_reg

## compute pressure core
#compute        peratom_core core stress/atom NULL
#compute        p_core core reduce sum c_peratom_core[1] c_peratom_core[2] c_peratom_core[3]
#variable       press_core equal -(c_p_core[1]+c_p_core[2]+c_p_core[3])/(3*1249982.5)


## compute pressure surface
#compute        peratom_surf surface stress/atom NULL
#compute        p_surf surface reduce sum c_peratom_surf[1] c_peratom_surf[2] #c_peratom_surf[3]
#variable       press_surf equal -(c_p_surf[1]+c_p_surf[2]+c_p_surf[3])/(3*42395)

## compute total pressure of drop
compute        peratom water stress/atom NULL
compute        p water reduce sum c_peratom[1] c_peratom[2] c_peratom[3]
variable       press equal -(c_p[1]+c_p[2]+c_p[3])/(3*50320)


# compute order parameter
compute        3 all orientorder/atom nnn NULL cutoff 3.5

# compute center of mass of bridge
compute 	4 water com

# Run simulation
thermo_style        custom step c_2 press vol etotal ke pe v_press c_1[4] c_4[*]
thermo              200
dump		     1 water custom 400 ${DIR}/prod.${NAME}.dump id type x y z vx vy vz c_3[*] c_peratom[*]
dump		     1 water custom 400 run_21/prod.${NAME}.dump id type x y z vx vy vz c_3[*] c_peratom[*]
dump		     1 water custom 400 run_21/prod.ibeam_cooling_21.dump id type x y z vx vy vz c_3[*] c_peratom[*]
run                 ${STEPS}
run                 5200000
Neighbor list info ...
  update every 1 steps, delay 0 steps, check yes
  max neighbors/atom: 2000, page size: 100000
  master list distance cutoff = 6.67472
  ghost atom cutoff = 6.67472
  binsize = 3.33736, bins = 48 13 11
  2 neighbor lists, perpetual/occasional/extra = 1 1 0
  (1) pair sw, perpetual
      attributes: full, newton on
      pair build: full/bin/atomonly
      stencil: full/bin/3d
      bin: standard
  (2) compute orientorder/atom, occasional, copy from (1)
      attributes: full, newton on
      pair build: copy
      stencil: none
      bin: none
Per MPI rank memory allocation (min/avg/max) = 0.8535 | 5.962 | 7.262 Mbytes
Step c_2 Press Volume TotEng KinEng PotEng v_press c_1[4] c_4[1] c_4[2] c_4[3] 
       0    241.97847   -206.74772    216009.12   -18606.947    1407.2404   -20014.188   -296.20715    32.201422    78.748889    22.599537    25.515203 
     200    242.36692   -296.93227    216009.12   -18678.936    1409.4994   -20088.435   -682.86608    33.195686    78.748468    22.597432     25.49101 
     400    231.76104   -445.80517    216009.12   -18672.181    1347.8203   -20020.001   -1352.3493    34.020099    78.746144    22.594047    25.488773 
     600    241.25328   -277.45687    216009.12   -18537.662     1403.023   -19940.685   -569.49952    36.086152     78.74591    22.592894     25.51297 
     800    249.18877   -143.11376    216009.12   -18524.065    1449.1723   -19973.237   -29.273966    37.813149    78.744932     22.59292    25.497955 
    1000    227.40387   -394.05482    216009.12   -18600.353    1322.4809   -19922.834   -1116.7224    38.408411    78.746252    22.593134    25.493445 
    1200    244.82081   -270.17302    216009.12   -18548.492    1423.7702   -19972.262   -528.63479    40.254362    78.748022    22.595378    25.479986 
    1400    245.66631   -276.39907    216009.12   -18550.828    1428.6872   -19979.515   -592.78908    42.293292    78.748213    22.596342    25.491178 
    1600    243.83899   -379.24634    216009.12   -18572.458    1418.0604   -19990.519   -1011.9839    43.533476    78.748252    22.597752    25.505337 
    1800    244.73385   -342.93052    216009.12   -18581.389    1423.2645   -20004.654   -906.08217    45.214249    78.749378    22.596483    25.514399 
    2000    248.41862   -248.99523    216009.12   -18535.536    1444.6935    -19980.23   -489.85413    47.104374    78.751222    22.595794    25.511405 
    2200     240.6608    -344.6392    216009.12   -18621.228    1399.5774   -20020.806   -885.03724    48.043926    78.753777    22.592431    25.513469 
    2400    237.72728   -463.67065    216009.12   -18570.531    1382.5174   -19953.048   -1372.6559     49.32426    78.753677    22.590113    25.503468 
    2600    236.56738   -396.86024    216009.12   -18597.927    1375.7719   -19973.699   -1113.5931    50.938371    78.755022    22.591884    25.506611 
    2800    242.69222    -353.7256    216009.12   -18502.081    1411.3913   -19913.472   -916.73399    51.540585    78.756774    22.592017    25.500924 
    3000    243.97202   -284.44446    216009.12   -18522.803     1418.834   -19941.637   -664.84932    53.842665    78.757477    22.590717    25.505884 
    3200     234.2663   -384.71765    216009.12   -18571.614    1362.3898   -19934.003   -1017.3625    55.454346    78.755085     22.59091    25.521531 
    3400    247.55935   -347.62082    216009.12   -18555.944    1439.6964    -19995.64    -885.8155    56.578336    78.755489    22.591359    25.514619 
    3600    242.51284   -349.67667    216009.12   -18564.681    1410.3481   -19975.029   -925.98796    58.513454    78.755021    22.593092    25.521732 
    3800    243.83245   -291.00415    216009.12   -18527.268    1418.0223    -19945.29   -660.84008    59.840559    78.756901    22.594708    25.507223 
    4000    240.43732   -318.46224    216009.12   -18593.542    1398.2778    -19991.82   -784.37213     61.45284    78.759071    22.593865    25.482734 
    4200    244.98565    -313.5264    216009.12   -18530.062    1424.7288   -19954.791   -750.28792    63.490024    78.759512    22.596923    25.482431 
    4400    238.26489   -278.48761    216009.12     -18537.1    1385.6438   -19922.744   -589.53879    66.320439    78.757752    22.595515    25.482275 
    4600     234.3973   -259.23968    216009.12   -18613.785    1363.1516   -19976.936   -536.97614    67.844466    78.757369    22.594616    25.487746 
    4800    244.56954   -256.95806    216009.12   -18510.175     1422.309   -19932.484   -496.39075    69.654219    78.758838    22.593262    25.476895 
    5000    236.02675   -409.55084    216009.12   -18577.481    1372.6278   -19950.109   -1167.6206    70.660292    78.756317    22.592043     25.47416 
    5200    237.92148   -333.73118    216009.12   -18577.507    1383.6467   -19961.154   -808.69149    72.042324    78.755857    22.591513     25.47473 
    5400      240.141    -408.1254    216009.12   -18600.624    1396.5545   -19997.179   -1163.7661    73.497532    78.754316    22.593542    25.510579 
    5600    239.54307   -355.62667    216009.12   -18628.704    1393.0772   -20021.781   -911.52199    75.949628    78.754204    22.592199    25.502313 
    5800    243.37881   -347.22024    216009.12   -18576.404    1415.3842   -19991.789   -876.65207    77.448954    78.753249     22.59326    25.495737 
    6000    241.33573   -286.88966    216009.12   -18641.993    1403.5025   -20045.495   -724.44332    79.019426    78.752438    22.594523    25.485742 
    6200    233.79256   -393.12752    216009.12   -18642.697    1359.6348   -20002.331   -1053.8792    81.349371    78.750413    22.593803    25.482117 
    6400    237.01272   -300.58889    216009.12   -18608.106    1378.3618   -19986.468   -728.36205    83.034712    78.750629    22.596392    25.483439 
    6600    236.93666   -424.25692    216009.12   -18646.729    1377.9195   -20024.648   -1245.1797      84.5287    78.752399    22.595511    25.482646 
    6800    244.80486   -335.56685    216009.12   -18619.509    1423.6774   -20043.186   -813.46989    85.712218     78.75057    22.596786    25.478358 
    7000    238.70942   -404.71465    216009.12    -18575.84    1388.2291   -19964.069   -1164.8328    86.609839    78.750515       22.596    25.469367 
    7200    235.44824   -294.20524    216009.12   -18659.314    1369.2634   -20028.577   -675.30569    88.190092    78.749485    22.594798    25.472459 
    7400    243.05961   -246.05369    216009.12   -18631.742    1413.5279   -20045.269   -475.72524    89.475441     78.74883    22.595979    25.465395 
    7600    247.10019   -187.81058    216009.12   -18522.225    1437.0261   -19959.251   -214.41521    90.188581    78.748852    22.595475    25.459383 
    7800    236.72933   -442.28522    216009.12   -18639.693    1376.7137   -20016.406   -1332.0791    93.780004    78.748694    22.595273    25.471996 
    8000    248.26464   -206.47119    216009.12   -18564.744     1443.798   -20008.542    -310.5408    95.948609    78.750879    22.594493    25.464883 
    8200    241.56088   -227.25008    216009.12   -18610.442    1404.8119   -20015.254   -391.53206    97.845591    78.753317    22.595356    25.457758 
    8400    247.02478   -399.56219    216009.12   -18573.474    1436.5876   -20010.062   -1119.4675    99.562605    78.752106    22.596163    25.472348 
    8600    240.52525   -378.40718    216009.12   -18633.752    1398.7891   -20032.542   -1037.4742     99.66388    78.750338    22.596802    25.482625 
    8800    239.90092   -379.87694    216009.12    -18640.66    1395.1583   -20035.818   -1017.3832    100.47111    78.750641    22.595392    25.495864 
    9000    239.01041   -274.82096    216009.12   -18590.607    1389.9795   -19980.587   -632.30867    100.51474    78.751891     22.59498    25.467331 
    9200    244.13073   -137.67227    216009.12   -18557.333     1419.757    -19977.09   -51.339556    100.97141    78.751347    22.594561    25.445027 
    9400    240.76725   -272.53659    216009.12     -18597.3    1400.1965   -19997.496   -564.52657    103.19038     78.75087    22.592893    25.438076 
    9600    237.43264   -238.65594    216009.12   -18646.171    1380.8038   -20026.975   -455.71919    103.97854    78.752031    22.594634    25.429724 
    9800    245.64013   -302.37481    216009.12   -18546.493     1428.535   -19975.028   -698.36381    106.13841    78.755359    22.594282    25.439893 
   10000    237.47914   -454.09128    216009.12   -18591.653    1381.0743   -19972.727    -1332.056    107.27541    78.757187    22.592742    25.458403 
   10200    243.64153   -255.07163    216009.12   -18503.607     1416.912   -19920.519   -535.02679    108.58203    78.756418    22.592779    25.458272 
   10400    248.07606   -230.29149    216009.12   -18534.123    1442.7013   -19976.824   -450.92735    109.16024    78.754154    22.595131     25.48356 
   10600    234.84553   -392.51047    216009.12   -18614.228    1365.7583   -19979.986   -1116.0825    110.61432    78.753413    22.595495    25.478932 
   10800    232.54721   -248.63317    216009.12   -18624.404    1352.3923   -19976.796    -467.4629     111.5658    78.753614    22.595538    25.484471 
   11000     239.6944   -495.17165    216009.12   -18671.022    1393.9572   -20064.979   -1523.9469    112.09389    78.753841    22.596113    25.509428 
   11200    238.23432   -426.65727    216009.12   -18644.282    1385.4661   -20029.748   -1265.0062    112.40172    78.757222    22.596825    25.513623 
   11400    238.19291   -277.03647    216009.12   -18632.431    1385.2252   -20017.656   -630.52556    112.25089    78.757758    22.598447    25.519543 
   11600    249.24656   -432.46357    216009.12   -18578.404    1449.5084   -20027.912   -1270.5913    113.67552    78.757059    22.601621    25.531052 
   11800    238.47851   -373.70166    216009.12    -18582.57    1386.8862   -19969.456   -973.47029    115.20309    78.757555    22.602274    25.531992 
   12000    241.83436   -250.14214    216009.12   -18607.919    1406.4023   -20014.322   -448.45156    115.96558    78.755381    22.605817    25.536896 
   12200    242.31063   -252.90747    216009.12    -18632.34    1409.1721   -20041.512   -523.05558     116.6626    78.755658     22.60596    25.533708 
   12400    243.99762   -354.36519    216009.12   -18649.202    1418.9829   -20068.185   -934.74167    116.75893    78.756519    22.606734    25.525297 
   12600    237.67983   -261.86164    216009.12   -18597.371    1382.2414   -19979.613   -524.36547    118.51808    78.757263    22.605815    25.542943 
   12800    240.36909   -281.67348    216009.12   -18625.849     1397.881    -20023.73   -628.60647    119.14592    78.755742    22.608345    25.573032 
   13000    236.64434   -305.95612    216009.12    -18666.44    1376.2195    -20042.66   -737.51945     118.6193    78.755709    22.608957    25.576994 
   13200    235.74264   -328.82677    216009.12   -18684.721    1370.9756   -20055.696   -864.78358    119.22239    78.755331    22.611399    25.575264 
   13400    236.66923   -336.60355    216009.12   -18733.833    1376.3642   -20110.197   -833.58195     119.7846    78.754883    22.611818    25.573307 
   13600    237.15407   -252.49036    216009.12   -18687.092    1379.1838   -20066.276   -558.53596    121.76925     78.75513    22.611213     25.56148 
   13800    239.32378   -178.77812    216009.12   -18604.832    1391.8019   -19996.634   -231.12524    123.17535    78.753391    22.612997    25.549852 
   14000    249.40373   -403.38109    216009.12    -18542.56    1450.4224   -19992.982   -1110.0807    125.29038    78.755649    22.615325     25.56427 
   14200    233.69099   -16.835917    216009.12   -18585.222    1359.0441   -19944.267    547.70347    125.84106    78.755115    22.615715     25.56295 
   14400     232.4263   -156.86258    216009.12   -18607.986    1351.6892   -19959.675   -66.658037    128.32497    78.754941    22.617905    25.563423 
   14600    239.92219   -289.28035    216009.12   -18588.774     1395.282   -19984.056   -687.54554    129.32205    78.752138    22.618564    25.579721 
   14800    236.50995   -344.53364    216009.12   -18566.837    1375.4379   -19942.275    -891.2713    130.79496    78.752166    22.620941    25.585883 
   15000    239.69257   -450.53818    216009.12   -18602.198    1393.9466   -19996.145   -1365.2502    131.10937    78.751898     22.62447    25.595455 
   15200    242.67596   -384.09729    216009.12   -18601.909    1411.2967   -20013.206   -1024.8264    131.22401    78.752495    22.624578    25.590222 
   15400    235.45195   -296.61009    216009.12   -18643.062     1369.285   -20012.347   -680.77174    132.77461    78.752646    22.622466    25.565466 
   15600    252.27084   -304.62235    216009.12   -18484.623    1467.0963    -19951.72   -692.99604    134.98878    78.754166    22.620791    25.552829 
   15800    247.53534   -318.50798    216009.12   -18533.641    1439.5568   -19973.198   -779.03118    136.52473    78.755007    22.619037    25.598344 
   16000      238.786   -361.82524    216009.12   -18565.613    1388.6744   -19954.287   -952.40843    137.45087     78.75489    22.618706    25.621723 
   16200     239.9746   -334.99536    216009.12   -18545.947    1395.5868   -19941.534   -865.65744     139.7676     78.75287    22.619919    25.654234 
   16400    244.39089   -310.38794    216009.12   -18562.346      1421.27   -19983.616   -765.81585    140.57066    78.753469    22.620328    25.665971 
   16600    241.81004   -259.02947    216009.12   -18508.352    1406.2609   -19914.612   -503.76677    142.92469    78.753845    22.621707    25.663691 
   16800    244.16704   -224.73784    216009.12   -18571.389    1419.9682   -19991.357   -388.93703    143.77051     78.75441    22.620891    25.668272 
   17000    238.08137   -276.93292    216009.12   -18642.617    1384.5766   -20027.193   -633.81526    145.22927    78.753851    22.619563    25.673802 
   17200    232.28442   -287.98292    216009.12   -18615.829    1350.8641   -19966.693   -615.99083    147.37498    78.751505    22.618433    25.653131 
   17400    236.09361   -325.53428    216009.12    -18685.54    1373.0167   -20058.556   -759.38272    149.05378    78.750784    22.618987    25.652964 
   17600     239.7351   -203.87161    216009.12   -18608.269    1394.1939   -20002.463   -242.50952    150.92029    78.748873     22.62075     25.65162 
   17800    234.84918   -380.37896    216009.12   -18607.057    1365.7796   -19972.836   -1053.5886    152.50031    78.746043    22.620933    25.654574 
   18000    236.16869   -374.27564    216009.12    -18587.58    1373.4533   -19961.034   -1032.2219    153.75559    78.747115    22.620521    25.655527 
   18200    246.28179   -294.17174    216009.12    -18610.75    1432.2666   -20043.016   -636.07946    153.51195    78.749822    22.617642    25.660981 
   18400    236.89796   -322.26412    216009.12   -18609.343    1377.6944   -19987.037   -789.89892     153.1812    78.747857    22.617364    25.685474 
   18600    247.56905   -203.00035    216009.12   -18602.208    1439.7528   -20041.961   -269.04622    153.64679    78.748237    22.615773    25.663109 
   18800    242.33827   -177.04964    216009.12   -18674.451    1409.3329   -20083.784   -154.59454     154.0123    78.747931    22.616455    25.659142 
   19000    244.67415   -175.56467    216009.12   -18611.871    1422.9173   -20034.788   -147.03794     154.2227    78.748552    22.615688    25.650763 
   19200    240.84519   -284.63219    216009.12   -18640.458    1400.6497   -20041.107   -588.19358    156.33764    78.750992    22.615613    25.664152 
   19400    240.21161   -332.54831    216009.12   -18595.037    1396.9651   -19992.002   -807.40668    157.08911    78.751844     22.61691    25.661431 
   19600    244.67153   -338.48827    216009.12   -18625.748    1422.9021   -20048.651   -850.09101    157.20194    78.751412    22.622311    25.699414 
   19800    244.30809   -447.94468    216009.12   -18609.004    1420.7885   -20029.792   -1353.1065    158.17514      78.7504    22.623983    25.720743 
   20000    237.31863   -345.84325    216009.12   -18592.953    1380.1408   -19973.094   -926.86987    160.58358    78.750115    22.623919    25.724005 
   20200    234.22099   -205.97243    216009.12   -18653.713    1362.1263    -20015.84   -277.56344    162.51731    78.748367    22.623486    25.721215 
   20400    249.72328   -248.77059    216009.12    -18570.31    1452.2808   -20022.591   -470.37121    162.86675     78.74635    22.621782    25.723715 
   20600    238.47779   -215.80081    216009.12   -18645.631     1386.882   -20032.513   -309.29696    163.51135    78.746717    22.619264    25.716092 
   20800    244.10369   -430.10001    216009.12   -18593.597    1419.5997   -20013.196   -1248.6211    165.27365    78.746454    22.617101    25.724056 
   21000    242.56101     -249.543    216009.12   -18628.862    1410.6282    -20039.49   -524.76557    165.98232    78.748836    22.617839    25.744726 
   21200     243.6114   -280.64699    216009.12   -18580.285    1416.7368   -19997.022   -634.52168    167.08522    78.750166    22.617473    25.760501 
   21400    239.22797   -359.87299    216009.12    -18596.95    1391.2447   -19988.194   -932.76136     167.9637    78.748751    22.616605    25.783843 
   21600    249.21572   -392.91177    216009.12   -18493.809    1449.3291   -19943.138   -1065.8138    168.45559    78.749354    22.615723    25.787282 
   21800    232.75141   -388.77974    216009.12   -18610.769    1353.5799   -19964.348   -1065.0591    169.43189    78.750618    22.616918    25.813444 
   22000    238.77538   -223.16023    216009.12   -18646.971    1388.6126   -20035.584   -326.47295    169.46936    78.752683    22.615815    25.791979 
   22200    240.21637    -243.0262    216009.12   -18682.268    1396.9928    -20079.26   -437.66009    170.45712    78.754062    22.614836     25.78037 
   22400    243.51965   -386.21197    216009.12   -18548.645    1416.2032   -19964.848   -1057.0568    171.07097    78.754458    22.613967    25.783404 
   22600     241.7433   -235.31808    216009.12   -18521.163    1405.8728   -19927.036   -405.47866     172.8135    78.755841    22.613389    25.794879 
   22800    243.81495   -374.93086    216009.12   -18531.207    1417.9206   -19949.128   -1040.2436    174.48088    78.755107    22.612054    25.795254 
   23000    241.25711   -262.93039    216009.12   -18601.876    1403.0453   -20004.921    -546.6457    176.15244    78.753706    22.611163    25.807239 
   23200    236.58136   -385.65531    216009.12   -18568.598    1375.8532   -19944.451    -1066.672    177.46533    78.751608    22.609803    25.792114 
   23400    241.29507   -285.77222    216009.12   -18585.109     1403.266   -19988.375    -612.5098    179.53561     78.75201    22.609602    25.795573 
   23600    244.20904   -191.65003    216009.12   -18511.789    1420.2124   -19932.002   -246.27041    181.26408    78.754812    22.610665    25.793777 
   23800    247.75098   -231.89967    216009.12   -18514.935    1440.8108   -19955.746   -387.86782    182.73545    78.756076    22.609663     25.80495 
   24000    241.46878   -321.83524    216009.12   -18566.555    1404.2763   -19970.831   -815.50427    184.40882    78.755861    22.613077    25.840915 
   24200    234.62164   -413.01132    216009.12   -18528.892    1364.4563   -19893.349   -1220.6221    188.27197    78.757636     22.61263    25.847189 
   24400    236.13605   -354.74086    216009.12   -18582.307    1373.2635    -19955.57   -886.19673    190.24115    78.759578    22.612088    25.864597 
   24600    241.21587   -275.91407    216009.12   -18606.435    1402.8055   -20009.241   -562.61967    191.49281    78.760162     22.61171     25.84158 
   24800    234.51455   -309.13057    216009.12   -18597.991    1363.8335   -19961.824   -782.82721    192.87528    78.760908     22.61304    25.827678 
   25000    237.67945   -317.98373    216009.12   -18617.331    1382.2392    -19999.57   -733.00283    194.00113    78.760176    22.611435    25.797886 
   25200    232.22977   -341.44638    216009.12   -18686.972    1350.5462   -20037.518   -878.43425    195.29736    78.759915    22.612067    25.789577 
   25400    237.51377   -374.09909    216009.12    -18618.87    1381.2757   -20000.146   -1037.1416    196.21974    78.763868    22.612956    25.757309 
   25600    247.01957   -319.89182    216009.12   -18490.115    1436.5572   -19926.672   -744.16749    197.43644    78.764418    22.612788    25.772497 
   25800    251.58712   -398.51597    216009.12   -18563.054    1463.1201   -20026.175   -1134.9997    198.49945    78.764855    22.614013    25.806742 
   26000    242.84868   -349.29122    216009.12    -18580.68    1412.3012   -19992.981   -886.91922    198.20957    78.765388    22.615282    25.813126 
   26200    235.78609    -397.4178    216009.12   -18588.601    1371.2283   -19959.829   -1122.8725    200.20446    78.766096    22.616822    25.823451 
   26400    237.64419   -345.19665    216009.12    -18629.85    1382.0341   -20011.885   -828.61318    202.80364    78.762397    22.617785    25.791172 
   26600    248.68473   -118.75449    216009.12   -18530.954    1446.2411   -19977.195    85.861905     203.6749    78.763142    22.618343    25.789825 
   26800    243.81581   -176.16046    216009.12   -18566.058    1417.9256   -19983.984   -130.35989    204.69069    78.765448    22.620288    25.747939 
   27000    242.79326   -326.70422    216009.12   -18540.723    1411.9789   -19952.702   -813.92554    207.28293    78.762535    22.621859    25.729694 
   27200    236.57417   -338.76908    216009.12   -18588.062    1375.8114   -19963.874   -890.73633    209.09875     78.76015    22.620787    25.732351 
   27400    240.81641   -347.00783    216009.12   -18538.454    1400.4824   -19938.936   -909.47912     210.6655    78.759273    22.618688    25.729096 
   27600    230.91668   -147.43875    216009.12   -18685.749    1342.9099   -20028.658   -23.057049    212.07983    78.759265    22.619617     25.70874 
   27800    238.48679   -421.91879    216009.12   -18585.177    1386.9343   -19972.111   -1237.7863    213.58452     78.75908    22.616896    25.706806 
   28000    236.09078    -335.2846    216009.12   -18663.273    1373.0002   -20036.274   -840.74316    213.90512    78.758484    22.615012    25.700853 
   28200    236.05243   -357.50728    216009.12   -18626.978    1372.7772   -19999.755   -943.80426    215.18355    78.757076    22.614613      25.6788 
   28400    231.11587   -234.00276    216009.12   -18604.048    1344.0683   -19948.116   -410.04754    216.93333    78.756225    22.613597    25.670531 
   28600    236.95211   -439.33394    216009.12   -18590.657    1378.0093   -19968.667   -1329.7314    217.83671    78.756403    22.612629    25.666535 
   28800    239.56501   -348.62881    216009.12   -18589.803    1393.2048   -19983.008   -904.25788    217.49637    78.757292    22.610676    25.650258 
   29000    240.31803   -333.21708    216009.12   -18587.279     1397.584   -19984.863   -828.68895    217.47937    78.758286    22.610486    25.664131 
   29200    247.11787   -340.07493    216009.12   -18577.444    1437.1289   -20014.573   -826.34427    219.32387    78.757047    22.608726    25.629738 
   29400     244.3238   -395.28424    216009.12    -18614.43    1420.8798    -20035.31     -1073.01    220.50792    78.756519    22.607773    25.628684 
   29600    238.94604    -327.3742    216009.12   -18586.947    1389.6052   -19976.552   -814.13742    223.38937    78.755814    22.607853    25.608592 
   29800     231.3506   -328.95157    216009.12   -18659.686    1345.4334    -20005.12   -823.78061    224.68483    78.754774    22.608673    25.614655 
   30000    235.02713   -125.83346    216009.12   -18691.544    1366.8145   -20058.359  -0.10085099    226.30617    78.757248    22.611668    25.606341 
   30200    230.01907   -306.42099    216009.12   -18648.365    1337.6898   -19986.054   -727.29381    228.79526    78.756772    22.611938    25.585151 
   30400    241.25272   -189.08867    216009.12   -18639.442    1403.0198   -20042.462   -205.48972    229.24158     78.75447    22.614203    25.582652 
   30600     246.1925   -283.46101    216009.12   -18677.766    1431.7474   -20109.513    -651.5266    230.67634    78.752666    22.615864    25.583362 
   30800    237.72635   -398.82885    216009.12   -18645.939     1382.512   -20028.451   -1141.6568    232.24511    78.752715     22.61816    25.571062 
   31000    236.54223   -178.15668    216009.12   -18655.096    1375.6256   -20030.722   -172.96711     233.0354    78.750399    22.617793    25.551973 
   31200    244.71439   -440.89604    216009.12    -18631.09    1423.1513   -20054.242   -1282.0664    234.00161    78.754548    22.615867    25.560014 
   31400    241.83188   -264.39794    216009.12   -18620.132    1406.3879    -20026.52   -599.09534    234.65568    78.755999    22.613961    25.541667 
   31600    230.52067   -222.05368    216009.12   -18643.467    1340.6069   -19984.074   -321.59409    235.82873    78.756387    22.613998    25.528072 
   31800    239.92167   -400.20505    216009.12   -18547.997     1395.279   -19943.276   -1150.9842    238.75969    78.758154    22.615089    25.505428 
   32000    233.23095   -322.14855    216009.12   -18687.593    1356.3687   -20043.962   -756.14121    241.35578    78.756299    22.614288    25.508237 
   32200    232.92707   -208.63379    216009.12   -18678.908    1354.6014   -20033.509   -317.70809    243.53989     78.75547     22.61679    25.520983 
   32400    240.19002   -478.86786    216009.12   -18633.362    1396.8396   -20030.202   -1467.6627    246.35753    78.755543    22.617595    25.525609 
   32600    238.58196   -83.440907    216009.12   -18540.728    1387.4878   -19928.216    181.10821    248.19776    78.754969     22.61949    25.520843 
   32800     242.4502   -280.67609    216009.12   -18534.713    1409.9838   -19944.697   -595.13751    249.40465    78.755913     22.61939    25.522541 
   33000    243.44799    -437.3708    216009.12    -18509.06    1415.7865   -19924.847   -1247.2829    251.64339    78.756195    22.619013     25.54516 
   33200     229.0586   -284.67982    216009.12   -18532.839    1332.1041   -19864.943   -642.79491     251.8606    78.756015    22.622389    25.537935 
   33400    236.60208   -234.34242    216009.12   -18586.979    1375.9737   -19962.953   -388.06481    254.50694     78.75706    22.624059    25.532542 
   33600     236.0687   -387.53217    216009.12   -18601.932    1372.8718   -19974.803   -1073.3556    254.74237    78.757411    22.626919    25.562707 
   33800    245.13724   -208.64417    216009.12   -18486.044    1425.6104   -19911.655   -303.50469    256.06066    78.758037    22.626282    25.564087 
   34000    235.49896   -205.98299    216009.12   -18625.456    1369.5584   -19995.014   -240.65566    256.78735    78.756637    22.628448    25.555304 
   34200    239.40682   -386.15076    216009.12   -18568.932    1392.2848   -19961.217   -1046.5598    257.12968    78.755206    22.628258    25.557854 
   34400    233.91559    -426.6381    216009.12   -18630.419    1360.3503    -19990.77   -1226.1194    257.61638    78.753816    22.626382    25.519125 
   34600    244.64245     -213.745    216009.12   -18491.493    1422.7329   -19914.226   -338.61268    256.70401    78.751835    22.626856    25.501012 
   34800    240.00149   -352.29371    216009.12   -18596.244    1395.7432   -19991.988   -901.10176    258.02706    78.749313    22.626935    25.476559 
   35000    242.80831   -384.74001    216009.12   -18596.462    1412.0664   -20008.528   -1035.0274     261.5383    78.748792    22.627398      25.4772 
   35200    252.63663   -395.75234    216009.12   -18512.244    1469.2236   -19981.468   -1085.2876    264.47091    78.748233    22.626706    25.481252 
   35400    239.46097   -410.40633    216009.12   -18558.538    1392.5998   -19951.138   -1210.1859    264.72327    78.749882     22.62793    25.477921 
   35600     237.3162   -263.65885    216009.12   -18579.595    1380.1267   -19959.722   -537.28256    265.26985    78.751173     22.62758    25.461541 
   35800    244.42979   -460.92834    216009.12   -18522.333    1421.4962   -19943.829   -1426.1733    268.12147     78.75035    22.628238    25.451604 
   36000    235.82798   -444.30931    216009.12   -18604.853    1371.4719   -19976.325   -1319.1543     271.0743    78.749057    22.629744     25.44957 
   36200    235.10803   -208.63215    216009.12   -18573.557     1367.285   -19940.842   -314.05481    273.68159    78.748992    22.630069     25.45637 
   36400    241.65141   -307.88521    216009.12   -18565.316    1405.3384   -19970.654   -752.40273    276.44748    78.748761    22.631694    25.457838 
   36600    241.52831   -271.60879    216009.12    -18571.97    1404.6224   -19976.593   -628.30332    277.98672    78.749626    22.632152     25.46146 
   36800    229.23275    -71.40071    216009.12    -18688.57    1333.1169   -20021.687    252.21667    277.55349    78.747653    22.630099    25.456012 
   37000    240.07924   -352.93851    216009.12   -18642.062    1396.1953   -20038.257   -925.66029    280.55119    78.748181    22.629269    25.453031 
   37200    235.58276   -210.25305    216009.12   -18663.684    1370.0458    -20033.73   -335.57395    281.17974    78.748647    22.627779     25.46473 
   37400    237.67648   -394.93927    216009.12   -18641.225    1382.2219   -20023.447   -1094.4213     283.3484    78.753205    22.624821    25.478648 
   37600    240.13838   -243.57727    216009.12   -18675.558    1396.5392   -20072.097   -465.67206    282.91672    78.751999    22.624124    25.428162 
   37800    237.20778   -407.37706    216009.12   -18722.861    1379.4962   -20102.357   -1167.6565    283.73434    78.752298    22.623171    25.439911 
   38000    244.89722   -244.86845    216009.12   -18611.993    1424.2146   -20036.208   -430.73653    284.95785    78.754459    22.623594    25.457873 
   38200    238.05293   -453.26942    216009.12   -18594.834    1384.4112   -19979.245    -1381.282    286.92419    78.753334    22.621963    25.481778 
   38400    242.05361   -258.31644    216009.12   -18545.703    1407.6774    -19953.38   -533.48469    287.78986    78.754604    22.620889    25.491261 
   38600    240.32571   -249.58787    216009.12    -18564.62    1397.6287   -19962.249   -480.20692     286.6513    78.755024    22.619147    25.531198 
   38800    241.84902   -119.93432    216009.12   -18590.012    1406.4876     -19996.5    51.203318    287.82258    78.757713    22.618797    25.531091 
   39000    243.31496   -264.28233    216009.12   -18540.672    1415.0129   -19955.685   -576.52273    287.46618     78.75868    22.620673    25.537698 
   39200    240.76938   -344.09157    216009.12   -18632.952    1400.2089   -20033.161   -920.96967    288.94505    78.759537    22.620233    25.548468 
   39400    242.29103   -324.72063    216009.12   -18592.265    1409.0581   -20001.323   -836.31648    287.64888    78.761217    22.618596    25.532997 
   39600    244.02514   -375.06592    216009.12   -18563.874    1419.1429   -19983.017    -1014.788    290.14219    78.761893    22.616441    25.528896 
   39800    241.95779   -371.88074    216009.12   -18604.562    1407.1201   -20011.682   -1021.4733    290.10404    78.761495     22.61721    25.503657 
   40000    236.64127   -434.11275    216009.12   -18599.237    1376.2016   -19975.439    -1260.431    290.96744    78.761271    22.618628    25.517543 
   40200     237.9723   -204.73298    216009.12   -18609.065    1383.9423   -19993.007   -290.22135     291.7223    78.760827     22.61773    25.525762 
   40400    231.00911   -184.31456    216009.12    -18618.29    1343.4474   -19961.737   -215.63922    289.91516    78.757691    22.617547    25.513667 
   40600    234.34922   -255.32397    216009.12   -18542.752     1362.872   -19905.624   -508.71292    289.04035    78.758514    22.617152    25.519796 
   40800    243.27231   -431.52578    216009.12   -18645.115    1414.7648    -20059.88   -1259.2801    289.59613    78.756771    22.617935    25.510893 
   41000    235.85568   -219.92962    216009.12   -18615.189    1371.6329   -19986.822   -354.01959    292.63064    78.757561    22.617213    25.522635 
   41200    247.43906   -354.83773    216009.12   -18554.434    1438.9968   -19993.431   -983.27534     295.7557    78.757702    22.617874    25.525152 
   41400    236.54325   -345.70296    216009.12    -18607.52    1375.6316   -19983.152   -915.68701     296.0153    78.757585    22.617308    25.540244 
   41600    244.96663   -199.98797    216009.12   -18579.643    1424.6183   -20004.261   -219.65682    296.59771    78.757343    22.617552    25.546746 
   41800    242.28824   -262.02414    216009.12   -18571.057    1409.0419   -19980.099   -553.30413    300.41542    78.757624     22.61849    25.556562 
   42000    235.29181   -348.28388    216009.12     -18576.9    1368.3537   -19945.254   -916.40514    300.90144    78.757847    22.619933    25.576963 
   42200    229.28012    -276.0563    216009.12   -18625.926    1333.3924   -19959.318   -583.70628    305.19454    78.758907    22.619068    25.559351 
   42400    239.47901   -326.70533    216009.12   -18620.702    1392.7047   -20013.407   -823.81136     307.3533    78.759722    22.621376    25.535529 
   42600    236.13981   -218.61425    216009.12   -18640.776    1373.2854   -20014.061   -363.17053     305.4292    78.760812    22.623522     25.51925 
   42800    237.93601   -264.71701    216009.12   -18584.925    1383.7312   -19968.656   -573.23907    307.47739     78.75957    22.623596    25.505589 
   43000    237.44367   -253.80203    216009.12   -18604.431     1380.868   -19985.299   -529.93519    307.17072    78.761173    22.622671    25.517694 
   43200    239.08682   -354.74884    216009.12   -18570.367    1390.4238   -19960.791   -941.41179    308.95632    78.762107    22.619535    25.527834 
   43400    240.22446    -132.1068    216009.12   -18548.931    1397.0399   -19945.971    9.4431267    308.18129     78.76332    22.619335    25.510151 
   43600    235.50073   -371.01075    216009.12   -18575.697    1369.5687   -19945.265   -996.02933     310.4168    78.763787    22.622068    25.509994 
   43800    239.04864   -211.02253    216009.12    -18629.46    1390.2018   -20019.662   -301.29704    312.36416    78.763784    22.622048    25.530694 
   44000    237.84053   -302.57748    216009.12   -18632.078     1383.176   -20015.254   -715.67553    313.57927    78.762725    22.622939    25.569301 
   44200    237.85979   -353.42579    216009.12   -18572.565     1383.288   -19955.853   -895.83246    314.30717    78.763537    22.623039    25.563859 
   44400    231.32989   -368.63964    216009.12   -18614.739     1345.313   -19960.052   -970.39593    317.06618     78.76414    22.624017    25.568415 
   44600    234.91085   -154.68755    216009.12   -18628.219    1366.1382   -19994.357   -79.365283    317.57867    78.765446    22.622614    25.596663 
   44800    243.07064   -114.27595    216009.12   -18653.143     1413.592   -20066.735    96.183894    317.35876    78.765383    22.624995    25.594957 
   45000    236.74703   -260.37287    216009.12    -18644.44    1376.8167   -20021.257   -542.60361    317.56647     78.76495    22.625567    25.593592 
   45200    245.67451   -124.60418    216009.12   -18595.644     1428.735   -20024.379    64.618982    318.70847      78.7647     22.62501    25.602557 
   45400    231.92835   -247.47623    216009.12   -18666.274    1348.7933   -20015.067   -469.82383    323.03735    78.764229    22.626328    25.577513 
   45600    241.49511    -415.8255    216009.12    -18565.75    1404.4294    -19970.18   -1219.2023    327.47855    78.765574    22.624614    25.574745 
   45800    239.62867   -413.90843    216009.12   -18602.569     1393.575   -19996.144   -1228.0723    331.43556    78.763972    22.626068    25.576514 
   46000    241.84881   -426.02323    216009.12   -18520.382    1406.4863   -19926.869   -1216.4801    333.75285    78.763195    22.626742    25.583666 
   46200    239.15348   -291.48452    216009.12   -18503.013    1390.8115   -19893.824   -659.01595    334.26571    78.762555    22.628062    25.588901 
   46400    246.86963   -144.96654    216009.12   -18585.179    1435.6852   -20020.864   -50.037507    334.52165    78.762372    22.628907    25.581524 
   46600    247.14781   -477.07762    216009.12   -18623.462     1437.303   -20060.765   -1458.3956    335.63913    78.759833     22.63207     25.55919 
   46800    240.64878   -309.31517    216009.12   -18631.936    1399.5075   -20031.443   -767.41885    336.64216    78.758537    22.633765    25.570775 
   47000    239.43364   -420.13876    216009.12   -18574.217    1392.4408   -19966.658   -1247.1717     339.7737     78.75775    22.634885    25.579147 
   47200    233.42609   -477.35698    216009.12   -18684.341    1357.5035   -20041.845   -1501.8627    339.70324    78.756961    22.634934    25.604935 
   47400    251.21719   -246.92292    216009.12   -18622.892    1460.9688   -20083.861   -512.25001    342.55073    78.757787    22.637471    25.604621 
   47600     240.0337   -394.29818    216009.12   -18652.669    1395.9305     -20048.6    -1122.375    348.15711    78.754869    22.636366    25.634873 
   47800    241.98216   -467.56233    216009.12   -18627.405    1407.2619   -20034.666   -1433.4693    350.43723    78.753055    22.636908    25.614788 
   48000    242.70972   -315.71224    216009.12     -18650.4     1411.493   -20061.893    -744.4058    348.58089    78.753916    22.636106    25.613724 
   48200    240.54019   -352.98144    216009.12   -18659.445     1398.876   -20058.321   -901.83722    347.53142    78.751648    22.635277    25.617726 
   48400    238.02903   -132.97337    216009.12   -18668.872    1384.2722   -20053.145   -24.349772    347.79681    78.753371    22.634602    25.627833 
   48600    234.15268   -320.14988    216009.12   -18731.234    1361.7291   -20092.963   -815.53114    351.97773    78.750722    22.632189    25.631782 
   48800    237.90308   -56.472892    216009.12   -18710.043    1383.5397   -20093.582    319.25993    351.09939     78.75054    22.628818    25.643524 
   49000    242.62159   -379.40249    216009.12   -18689.973    1410.9805   -20100.954   -1011.1884    352.21744    78.749107    22.627305    25.648032 
   49200    244.12086   -177.49464    216009.12   -18622.982    1419.6996   -20042.681   -179.42579    352.63469    78.749237    22.626276    25.649296 
   49400    235.45951   -377.37144    216009.12    -18650.54     1369.329   -20019.869   -1032.5669    355.07533    78.749935    22.626036    25.655397 
   49600    241.49649   -340.57309    216009.12   -18636.328    1404.4374   -20040.766   -871.92018    357.25799     78.74871    22.624769    25.659964 
   49800    235.89737   -350.67475    216009.12   -18618.524    1371.8754   -19990.399   -892.23755    359.27979    78.750623    22.623926    25.673973 
   50000    234.63259   -413.77691    216009.12   -18591.959      1364.52   -19956.479   -1177.8418    359.01709    78.752181    22.627073    25.658246 
   50200    242.66627   -357.59914    216009.12   -18531.499    1411.2403   -19942.739   -928.01614    360.41268    78.752267    22.626951    25.651897 
   50400    246.11701   -347.34543    216009.12   -18538.582    1431.3083    -19969.89   -889.84459    360.20426    78.755705    22.624791     25.66671 
   50600    247.02254   -367.19113    216009.12   -18455.196    1436.5745   -19891.771   -989.38104     363.1625    78.755603    22.622403    25.684371 
   50800    234.87287    -359.6346    216009.12   -18621.052    1365.9173   -19986.969   -980.70572    363.77169    78.754646    22.623606    25.688451 
   51000    240.21145   -344.08969    216009.12   -18557.842    1396.9642   -19954.806   -898.67375    364.75968    78.758535    22.626125    25.703333 
   51200    239.02681   -239.97321    216009.12   -18574.876    1390.0748   -19964.951   -397.41836    366.23692    78.761584    22.627472    25.701408 
   51400    239.76805   -231.98751    216009.12   -18561.134    1394.3856    -19955.52    -412.1298    369.07117    78.763559    22.628422    25.697472 
   51600    239.04867   -408.41313    216009.12   -18598.776     1390.202   -19988.978   -1141.2859    374.36973    78.764467    22.627055    25.695233 
   51800    242.96441   -297.32539    216009.12   -18574.485    1412.9742   -19987.459   -697.91837     375.3597    78.766984    22.627407    25.687521 
   52000    229.79359   -261.37562    216009.12   -18653.955    1336.3785   -19990.333   -559.16695    375.86238    78.769286    22.629739    25.675981 
   52200    233.69034   -421.46452    216009.12   -18689.171    1359.0403   -20048.211   -1227.3856    375.83652     78.76985    22.630069    25.675181 
   52400    230.47092   -166.48939    216009.12   -18697.926    1340.3175   -20038.243    -146.4585    375.03324    78.769193    22.626925     25.69306 
   52600    238.43184   -302.76997    216009.12    -18624.02    1386.6148   -20010.635   -694.09976    376.21937    78.770616    22.623671    25.693046 
   52800    248.83407   -316.34169    216009.12   -18568.969    1447.1096   -20016.079   -720.45816    379.32492    78.770775    22.618862    25.695216 
   53000    249.74902   -219.21908    216009.12   -18539.505    1452.4305   -19991.935   -353.56346    380.41972    78.770736    22.618065    25.719587 
   53200    237.80001   -320.41861    216009.12   -18643.117    1382.9403   -20026.058   -757.92363    384.24448    78.772497    22.617502     25.69514 
   53400    241.40462   -408.00848    216009.12   -18618.539    1403.9031   -20022.442   -1116.5587    385.01446    78.773355    22.616374    25.724185 
   53600    234.39529   -314.09193    216009.12   -18674.621      1363.14   -20037.761   -729.77934    388.98772     78.77485    22.615841    25.718095 
   53800    238.32672   -201.07086    216009.12    -18642.34    1386.0034   -20028.344   -249.10294    391.32559    78.774723    22.616808    25.699664 
   54000     241.9639    -371.1612    216009.12   -18593.948    1407.1557   -20001.104   -1011.6396    393.38462    78.775372    22.617268    25.689113 
   54200    245.43893   -297.58539    216009.12   -18584.722    1427.3649   -20012.087   -667.77317    396.30343    78.773887    22.617901    25.708769 
   54400    243.55447   -144.43709    216009.12    -18532.53    1416.4057   -19948.935   -40.461715    396.20924    78.773268    22.616722    25.706753 
   54600    239.29515   -310.98604    216009.12    -18556.66    1391.6354   -19948.295   -722.33768     398.3405      78.7727    22.616226    25.679975 
   54800    237.89213    -343.0037    216009.12   -18531.215     1383.476   -19914.691   -929.41001     395.7116    78.772385    22.618345    25.660061 
   55000    244.24382   -331.41014    216009.12   -18509.342    1420.4147   -19929.757   -843.73508    395.59499    78.774473    22.618586    25.692494 
   55200    230.86685   -414.55845    216009.12   -18635.416    1342.6201   -19978.036   -1197.5916    396.74884    78.774663    22.617062    25.697134 
   55400    235.09775   -468.35875    216009.12   -18598.881    1367.2252   -19966.106    -1443.546    393.92588    78.774084    22.614085    25.698971 
   55600    238.38231   -264.41753    216009.12     -18552.1    1386.3267   -19938.427   -561.92259    394.82739    78.774299    22.613326      25.7143 
   55800     246.7874   -353.31556    216009.12   -18447.445     1435.207   -19882.652   -943.89159    395.67333    78.776814    22.612862    25.719246 
   56000    246.71953   -284.40095    216009.12   -18512.921    1434.8123   -19947.733   -595.46005    396.62779    78.774619    22.613503    25.729875 
   56200    246.77343    -316.8854    216009.12   -18521.005    1435.1258   -19956.131   -782.27902    398.03399    78.774852    22.614889    25.690614 
   56400    233.99066   -350.34909    216009.12   -18635.881    1360.7868   -19996.668    -894.3969    401.87885    78.776235    22.616294    25.683609 
   56600    233.63042    -189.6324    216009.12   -18710.078    1358.6918    -20068.77    -227.5857    403.30431    78.775191    22.616614     25.68881 
   56800    248.60138   -271.75519    216009.12   -18632.241    1445.7563   -20077.998   -549.83553    403.52079    78.772914      22.6164    25.689853 
   57000    239.31528   -233.73178    216009.12   -18704.928    1391.7525    -20096.68   -454.59969    399.46563    78.772759    22.620015    25.684962 
   57200    242.38085   -295.02375    216009.12   -18595.061    1409.5805   -20004.641   -699.70578    397.72397    78.772708    22.623156    25.677852 
   57400    240.12728   -549.82294    216009.12    -18600.59    1396.4747   -19997.065    -1749.974    399.79022    78.771508    22.625956    25.686005 
   57600    232.36153    -299.4924    216009.12   -18648.115    1351.3125   -19999.428   -750.84896     399.9148    78.767782    22.624569    25.662807 
   57800    235.41574   -169.89788    216009.12   -18589.217    1369.0745   -19958.291   -138.59568    400.52774     78.76746    22.622078     25.66897 
   58000    242.75385   -361.05884    216009.12   -18576.114    1411.7497   -19987.864   -962.37379    401.12641    78.765171    22.622267    25.668112 
   58200    247.40328      -258.87    216009.12   -18541.308    1438.7887   -19980.096   -532.87112    400.93572    78.764414    22.623031     25.65124 
   58400    247.30665   -321.94644    216009.12   -18622.218    1438.2267   -20060.445   -749.26148    402.74233    78.765884    22.623461     25.64697 
   58600    239.05269   -288.60254    216009.12   -18666.829    1390.2254   -20057.054   -666.25753     401.1535     78.76624    22.625574    25.673886 
   58800    233.97798   -467.86151    216009.12   -18630.672    1360.7131   -19991.386   -1446.1169    403.14326    78.763765    22.625142    25.665926 
   59000    241.84032   -28.362082    216009.12   -18582.975     1406.437   -19989.412    482.89781    401.37884    78.764307    22.624674     25.66907 
   59200    244.11462   -370.35174    216009.12   -18618.908    1419.6633   -20038.572   -997.76418    402.18522    78.760789    22.625752    25.677689 
   59400    237.43005   -328.89967    216009.12   -18640.476    1380.7888   -20021.265   -841.27447    400.21709    78.760091    22.626546    25.632629 
   59600    232.67599   -350.60474    216009.12   -18680.859    1353.1413   -20034.001   -907.17518    401.41164    78.758966      22.6243    25.645055 
   59800    240.03889   -341.23357    216009.12   -18634.996    1395.9607   -20030.957   -923.92606    401.98936    78.759044    22.624072    25.636191 
   60000    240.31878   -443.32154    216009.12   -18624.581    1397.5884    -20022.17   -1280.4842    400.73609    78.762098    22.621733    25.630956 
   60200    232.12099    -123.4963    216009.12   -18642.888    1349.9136   -19992.802    49.624953    398.33446    78.764543    22.617787    25.616048 
   60400    240.61273   -344.68445    216009.12   -18608.662    1399.2979    -20007.96   -928.59581    399.08291    78.763651    22.618647    25.597334 
   60600     244.7819   -235.79466    216009.12   -18573.609    1423.5439   -19997.153   -483.62579    398.66092    78.762433    22.619544    25.569332 
   60800    243.78098   -308.83572    216009.12   -18494.631     1417.723   -19912.354   -796.34573    401.29771    78.761002    22.620119    25.559092 
   61000    238.35563   -376.00282    216009.12   -18583.442    1386.1716   -19969.614   -1081.6823     402.2025    78.760569    22.621275    25.580183 
   61200    241.88213   -294.51212    216009.12   -18543.399    1406.6802    -19950.08   -687.97137    404.46738    78.759266    22.619417     25.56459 
   61400    247.78513   -279.73972    216009.12   -18598.462    1441.0094   -20039.472   -616.38223    406.85876    78.756258    22.618474    25.569885 
   61600    239.41362   -444.57476    216009.12   -18617.785    1392.3244    -20010.11   -1321.2731     407.6477     78.75499    22.617907    25.566057 
   61800     231.9914   -266.14951    216009.12   -18677.586      1349.16   -20026.746   -537.91626     408.0132    78.754786    22.617552    25.548557 
   62000    242.26626   -313.17573    216009.12   -18633.457    1408.9141   -20042.371   -730.85517    407.77047    78.754532    22.615562    25.556341 
   62200    243.01405   -300.23636    216009.12   -18621.571    1413.2629   -20034.834   -700.58112    407.75253    78.756783    22.614992     25.56292 
   62400     239.3553   -210.69141    216009.12   -18585.281    1391.9852   -19977.266    -292.3506    408.28239    78.757774     22.61571    25.570009 
   62600    235.12796   -360.32274    216009.12   -18635.033    1367.4009   -20002.433   -954.07397    409.53552    78.758712    22.617136    25.561635 
   62800    229.99324     -352.491    216009.12   -18682.685    1337.5396   -20020.224   -959.92774    410.35947    78.760162    22.618885     25.54034 
   63000    244.09881    -183.0792    216009.12   -18570.646    1419.5714   -19990.218   -172.32886    410.20598    78.762263     22.62027    25.539828 
   63200    238.25956   -253.27151    216009.12   -18603.595    1385.6129   -19989.208   -499.16858    412.15799    78.763235    22.622232    25.541137 
   63400    235.92882   -374.94018    216009.12   -18664.927    1372.0583   -20036.985   -1019.7615    412.74548    78.764491    22.624435     25.53504 
   63600    240.18003    -407.2814    216009.12   -18654.962    1396.7815   -20051.744   -1187.0087    413.74132    78.763315     22.62506    25.538465 
   63800    230.17937   -253.18524    216009.12   -18687.145    1338.6221   -20025.767   -527.65251    413.60983    78.762791    22.626246    25.538001 
   64000    241.03252   -377.03569    216009.12   -18587.556    1401.7392   -19989.295   -985.58019    414.37601    78.762481    22.628649    25.547371 
   64200    241.30714   -435.42158    216009.12   -18632.761    1403.3362   -20036.097   -1325.7685    416.13437    78.763488    22.626666    25.536431 
   64400    236.95618   -376.95187    216009.12   -18672.177     1378.033    -20050.21   -1030.0586    417.50166    78.763103    22.625427    25.532383 
   64600    235.42625   -375.71971    216009.12   -18698.463    1369.1356   -20067.599   -1019.8122     419.8968    78.761029    22.624958    25.514226 
   64800    241.52366    -158.9256    216009.12   -18658.671    1404.5954   -20063.266   -91.427145    420.45103    78.761079    22.625742    25.516086 
   65000      242.998    -192.5468    216009.12   -18576.292    1413.1696   -19989.461   -233.83961    420.02965     78.76139    22.627579    25.528629 
   65200    240.62013   -231.34567    216009.12   -18596.925    1399.3409   -19996.266   -385.52663     422.0591    78.759047    22.629349    25.520602 
   65400    238.52616   -327.80294    216009.12   -18646.765    1387.1633   -20033.928   -804.63053     423.8747     78.75819    22.628151    25.532101 
   65600    240.38984   -291.17333    216009.12   -18619.815    1398.0016   -20017.817    -663.5367    423.95971    78.758035    22.628348    25.553426 
   65800    241.05055   -283.87829    216009.12   -18621.072     1401.844   -20022.916   -641.05779     424.1291     78.75811    22.630089     25.58564 
   66000    236.04766   -330.92237    216009.12   -18591.226    1372.7494   -19963.976   -865.51664    425.34994    78.757791    22.629569    25.586411 
   66200    237.75908   -468.45196    216009.12   -18654.588    1382.7023   -20037.291   -1419.6274    427.38899    78.757873    22.630431    25.595136 
   66400    231.78245   -372.04847    216009.12   -18678.119    1347.9448   -20026.064   -999.47189    428.52139    78.756884    22.630861    25.600639 
   66600    236.30171   -362.45776    216009.12     -18710.6    1374.2269   -20084.827   -984.89986    430.17556    78.757339    22.631661    25.608324 
   66800    229.52326   -262.08166    216009.12   -18696.681    1334.8064   -20031.487   -512.76471    430.52387    78.757479    22.633037    25.603087 
   67000    232.16299   -264.84155    216009.12   -18718.577    1350.1579   -20068.735   -545.97188    430.66994    78.756942    22.631397    25.590853 
   67200    239.43208   -238.76397    216009.12   -18672.744    1392.4317   -20065.176   -414.69061    432.94943    78.757139    22.631732     25.58819 
   67400    245.96394   -408.32078    216009.12   -18633.124    1430.4181   -20063.542   -1181.1142    435.27117    78.755493    22.631883    25.573368 
   67600    246.25966   -287.77722    216009.12   -18590.461    1432.1379   -20022.599   -650.07287    435.75706    78.756768    22.629848    25.608042 
   67800    239.21136   -180.66507    216009.12    -18611.59    1391.1481   -20002.738   -186.39099    436.01137    78.757503    22.627781    25.624774 
   68000    235.12673   -287.26686    216009.12   -18612.899    1367.3937   -19980.293   -599.62899    438.82681    78.760524     22.62756    25.614997 
   68200    236.76524    -278.4753    216009.12     -18624.4    1376.9225   -20001.322    -605.1878    441.47984    78.759893    22.628904    25.584002 
   68400    238.96054    -502.9649    216009.12   -18582.773    1389.6894   -19972.462   -1558.5833    443.45543    78.761732    22.629642    25.580578 
   68600    240.68249   -378.62421    216009.12   -18604.898    1399.7036   -20004.601   -1022.3151    444.54555    78.762756    22.630639    25.576444 
   68800      236.698   -442.62183    216009.12   -18547.346    1376.5315   -19923.878   -1244.7357    447.35814    78.762959    22.631412    25.580175 
   69000    237.52308   -354.68545    216009.12   -18563.921    1381.3298   -19945.251   -944.30283     447.5707    78.761121    22.631979    25.571105 
   69200     237.2749    -413.0118    216009.12    -18590.12    1379.8865   -19970.006   -1147.0165    450.28017    78.762446    22.634457    25.583783 
   69400    236.23451   -247.90443    216009.12   -18631.883    1373.8361   -20005.719   -460.88471    448.42911    78.761998    22.635576    25.593636 
   69600    242.95112   -201.32003    216009.12   -18468.812    1412.8969   -19881.709     -254.651    449.16556    78.760648    22.637614    25.591483 
   69800    240.02285   -344.89667    216009.12   -18555.273    1395.8674    -19951.14   -881.86204    451.99978    78.761352    22.639619    25.598577 
   70000    244.49703   -178.75911    216009.12   -18555.364    1421.8873   -19977.251   -194.25732    451.96334    78.759017    22.639435    25.581255 
   70200    243.97329   -240.43543    216009.12   -18549.631    1418.8414   -19968.472   -487.70994    453.64455    78.757784      22.6373    25.591006 
   70400    249.42891   -300.77472    216009.12    -18477.81    1450.5689   -19928.379   -709.66212    455.80032    78.757411    22.638718    25.588907 
   70600     246.3535   -454.85509    216009.12   -18586.269    1432.6837   -20018.953   -1340.7358    457.93335     78.75818    22.639021    25.586832 
   70800    238.48649   -300.67094    216009.12   -18618.853    1386.9326   -20005.786   -677.29771     459.0418    78.757532    22.638746    25.602521 
   71000    240.81291    -267.7131    216009.12   -18622.114     1400.462   -20022.576   -565.17704    462.73716    78.757123    22.637202    25.590053 
   71200    237.64112   -232.20587    216009.12   -18600.871    1382.0163   -19982.887   -417.01948    463.49864    78.755884    22.639146     25.57524 
   71400    234.20406   -294.42727    216009.12     -18614.7    1362.0279   -19976.728   -701.89571    467.04094    78.755941    22.640332    25.548733 
   71600    237.03298    -443.5459    216009.12   -18560.405    1378.4796   -19938.885   -1300.1843    471.24467     78.75688    22.641813    25.562609 
   71800    234.69056   -241.60514    216009.12   -18638.999    1364.8572   -20003.856   -489.01772     472.7996    78.758979    22.642914    25.545801 
   72000    241.82302   -356.74504    216009.12   -18614.014    1406.3364    -20020.35   -995.42575    474.04673    78.759433    22.643532    25.519875 
   72200     248.8637   -295.88819    216009.12   -18512.313    1447.2819   -19959.595   -708.24864    474.68915    78.759062    22.643891    25.517162 
   72400    235.65597   -372.01474    216009.12   -18594.003    1370.4715   -19964.474   -1039.1666    476.66059    78.757609    22.645887    25.513452 
   72600    238.25401   -311.35111    216009.12    -18567.69    1385.5806    -19953.27   -765.12191    478.96132    78.757068    22.647042    25.512346 
   72800     243.0175    -345.5118    216009.12   -18565.185     1413.283   -19978.468   -915.54883    482.04921    78.757991    22.647683    25.486367 
   73000    240.97232   -210.50524    216009.12   -18617.761    1401.3891   -20019.151   -310.07801    483.81944    78.758577    22.646259    25.486848 
   73200    248.87866   -227.44559    216009.12   -18562.582    1447.3689    -20009.95   -404.22239    485.26257    78.757806    22.649236      25.4899 
   73400    243.80812   -342.45651    216009.12   -18556.393    1417.8809   -19974.274   -889.52462    482.34276    78.758085    22.647564    25.514105 
   73600     239.9196   -253.17379    216009.12   -18544.772    1395.2669   -19940.039   -511.60284    481.53954    78.759946    22.646621    25.513828 
   73800    235.48658   -500.63638    216009.12   -18674.155    1369.4864   -20043.642   -1502.4004    483.76713    78.760756    22.649218    25.514548 
   74000    234.58865   -301.28784    216009.12   -18690.885    1364.2645   -20055.149   -688.41491    483.20897    78.761919    22.649534    25.501496 
   74200    238.75816   -270.35454    216009.12   -18633.851    1388.5125   -20022.363   -541.92087    485.09892    78.760664    22.647706    25.488787 
   74400     240.1862   -445.20858    216009.12   -18627.692    1396.8173   -20024.509    -1332.701     485.5887    78.761452    22.645919    25.474573 
   74600    235.59733   -53.154642    216009.12   -18675.372    1370.1305   -20045.502    333.66323    484.76598    78.761767    22.644672    25.468073 
   74800    235.74499   -342.96086    216009.12   -18633.426    1370.9892   -20004.415   -915.79175    485.40636    78.761015    22.641472    25.471285 
   75000    237.07177   -314.48016    216009.12   -18631.371    1378.7052   -20010.076   -758.33251    483.20723     78.76287    22.641311    25.480453 
   75200    244.35043   -302.18068    216009.12   -18578.495    1421.0347    -19999.53   -737.59523     484.8317     78.76551     22.64052    25.501496 
   75400    239.47861    -157.8096    216009.12   -18627.417    1392.7023   -20020.119   -88.827772    483.42417     78.76357      22.6409    25.506558 
   75600    238.80997   -227.35494    216009.12   -18606.318    1388.8138   -19995.132   -378.04579    483.77193    78.765024    22.640979    25.531896 
   75800    239.19115   -307.10937    216009.12   -18548.953    1391.0306   -19939.984   -730.29152    485.70823    78.766799     22.64068    25.561589 
   76000    245.84508    -215.1434    216009.12   -18536.861    1429.7269   -19966.588   -307.83129    484.98951    78.764519    22.639957    25.558318 
   76200    235.11469   -465.89458    216009.12   -18617.746    1367.3237    -19985.07   -1363.0827    487.15716    78.763055    22.640038    25.539636 
   76400    241.81538   -233.13942    216009.12   -18594.213     1406.292   -20000.505   -425.66994     485.6431    78.761729    22.637208    25.569394 
   76600    236.15368   -391.83857    216009.12   -18583.431     1373.366   -19956.797   -1086.4957    489.46353    78.762055    22.638253    25.560606 
   76800    233.99296   -86.219753    216009.12   -18626.759    1360.8002    -19987.56    179.52073    491.13732    78.763269    22.637785    25.558002 
   77000    242.96207   -294.57798    216009.12   -18589.183    1412.9606   -20002.143   -650.41908    492.32214    78.762268    22.638865     25.55298 
   77200    246.91058   -227.60869    216009.12   -18551.377    1435.9234   -19987.301   -410.32176    490.73313    78.759397    22.638503    25.560402 
   77400    236.42407   -265.65941    216009.12   -18561.114    1374.9385   -19936.053   -560.05515    491.99913    78.759115     22.63903    25.556855 
   77600    233.09641   -420.44118    216009.12   -18585.378    1355.5862   -19940.965   -1198.4215    492.47197     78.76112    22.639333     25.55171 
   77800    237.47282    -302.8733    216009.12   -18549.863    1381.0376     -19930.9   -697.98824    494.75557    78.761542    22.640054    25.564652 
   78000    237.42606   -472.04272    216009.12   -18588.711    1380.7656   -19969.477   -1428.6971    495.80784    78.758331    22.639365    25.562748 
   78200    239.69405   -412.24327    216009.12   -18539.631    1393.9552   -19933.586   -1169.0081    497.52011    78.758194    22.639496    25.549993 
   78400    241.45865   -174.13303    216009.12   -18556.216    1404.2174   -19960.433   -169.38551    498.38463    78.761871    22.640496    25.572765 
   78600    237.86781   -218.87923    216009.12   -18557.346    1383.3346   -19940.681   -338.04096     499.7535    78.760322    22.639577    25.585584 
   78800    232.28998   -257.16436    216009.12   -18553.557    1350.8964   -19904.454   -498.88214    496.63815    78.761419    22.638998     25.56809 
   79000     245.1703   -457.17903    216009.12   -18524.429    1425.8027   -19950.232   -1380.7778     498.0753    78.760351    22.637413    25.588276 
   79200    245.04034   -271.80744    216009.12   -18508.265    1425.0469   -19933.312   -567.64479    497.74306    78.759624    22.639323    25.594307 
   79400    247.74643   -250.37341    216009.12   -18517.483    1440.7843   -19958.268   -456.55282    498.25824    78.761409    22.641692    25.581167 
   79600    237.92426     -293.601    216009.12   -18608.062    1383.6629   -19991.725   -663.19113    501.14106    78.762509    22.643453    25.587473 
   79800    238.08218   -220.08307    216009.12   -18632.735    1384.5813   -20017.316   -365.94015    502.81319    78.762792    22.644293    25.581883 
   80000    237.93292   -428.12521    216009.12   -18641.138    1383.7133   -20024.851   -1230.8612    501.70992    78.759632    22.644442    25.595496 
   80200    240.70694   -341.68743    216009.12   -18593.297    1399.8458   -19993.143   -865.62752    501.07829     78.76194    22.644455    25.601653 
   80400    238.77074   -450.48302    216009.12   -18634.824    1388.5857    -20023.41    -1348.752    504.74992     78.76172    22.645377    25.585641 
   80600    238.38527   -315.63838    216009.12   -18601.941    1386.3439   -19988.285   -742.42232    506.79714    78.761898    22.645013     25.57627 
   80800    238.30166   -323.23665    216009.12   -18593.564    1385.8577   -19979.422   -801.16916    506.75221    78.761536    22.646424    25.575518 
   81000    238.99031   -255.85885    216009.12   -18581.059    1389.8626   -19970.922   -510.89575    506.99443    78.761373    22.646823    25.600797 
   81200    246.88712   -402.82613    216009.12   -18605.843     1435.787    -20041.63   -1124.5169      506.335     78.76234    22.646717    25.583609 
   81400    241.97514   -353.30177    216009.12   -18582.739    1407.2211    -19989.96   -912.66327    506.81418    78.762525    22.646855    25.571519 
   81600     230.9107    -224.3375    216009.12   -18633.268    1342.8751   -19976.144   -369.53666    506.17405    78.764632    22.646637    25.544639 
   81800    234.40538   -316.03186    216009.12   -18718.562    1363.1986   -20081.761   -777.03568     508.2045      78.7671    22.648128    25.552952 
   82000    241.78351    -352.6491    216009.12   -18626.673    1406.1066   -20032.779   -862.47613    508.30921    78.766695    22.649131    25.576733 
   82200    244.08482    -223.4796    216009.12   -18581.591      1419.49   -20001.081   -322.03563    508.32014    78.766775    22.648644    25.589471 
   82400    246.63495   -167.24893    216009.12   -18606.704    1434.3205   -20041.025   -128.41998    509.79788    78.768292    22.648307    25.598383 
   82600    245.20662   -297.18082    216009.12   -18524.111    1426.0139   -19950.125   -715.23776    510.06247    78.767306    22.647211    25.582547 
   82800    232.64717   -290.94179    216009.12   -18631.732    1352.9737   -19984.706   -667.76154    510.99348     78.76686    22.645895    25.564966 
   83000    241.56234   -267.15526    216009.12   -18536.663    1404.8204   -19941.483    -584.8699    513.79137    78.768451    22.644728    25.561455 
   83200    247.58156   -308.11113    216009.12   -18544.869    1439.8255   -19984.694   -749.22376     514.3532    78.770416     22.64385    25.542067 
   83400    239.37604   -395.03603    216009.12   -18550.625    1392.1058   -19942.731   -1093.3875    513.04015    78.770554    22.641804    25.527759 
   83600    239.00602   -323.62762    216009.12   -18617.553    1389.9539   -20007.507   -804.27573    514.57776    78.772031     22.64212     25.49996 
   83800    235.47257   -277.50426    216009.12   -18584.324     1369.405   -19953.729   -578.00413    516.00024    78.774675    22.644324    25.507577 
   84000    243.34729   -436.78046    216009.12   -18560.805    1415.2009   -19976.006   -1280.9171    517.68731    78.775823    22.645558    25.511588 
   84200    240.67154   -209.96604    216009.12   -18548.798    1399.6399   -19948.438   -250.15587    517.97454    78.776855    22.643964     25.50291 
   84400    242.73231   -360.99851    216009.12   -18601.163    1411.6244   -20012.787   -958.44627    522.51108    78.777515      22.6428    25.525539 
   84600    244.97915   -111.22642    216009.12   -18567.079     1424.691    -19991.77    141.33885    523.77131    78.778976    22.643556    25.507861 
   84800    238.03293   -354.17707    216009.12   -18614.752    1384.2949   -19999.047   -933.44413     525.1045    78.777573    22.643677     25.50844 
   85000    235.79697   -283.08076    216009.12   -18624.464    1371.2915   -19995.756   -631.38084     525.7914    78.776473    22.644514    25.538789 
   85200    243.78403   -303.50758    216009.12   -18659.042    1417.7408   -20076.783   -754.57226    526.10188    78.777245    22.645938      25.5502 
   85400    239.04656   -285.97842    216009.12   -18668.825    1390.1897   -20059.014   -616.88134    525.97361     78.77843    22.643615    25.535497 
   85600    229.16765   -392.20421    216009.12   -18617.835    1332.7383   -19950.574   -1071.3746    528.08161    78.779656    22.643395     25.52474 
   85800    243.29305   -169.61296    216009.12   -18571.247    1414.8854   -19986.132   -147.55704    526.99399    78.780415    22.642472    25.520276 
   86000    237.09206   -472.90921    216009.12   -18601.831    1378.8232   -19980.654   -1433.8147    527.49891    78.778741    22.640138    25.524841 
   86200    242.06484   -219.24183    216009.12   -18575.061    1407.7427   -19982.804   -363.69066    527.21721    78.778021    22.639045    25.535238 
   86400    239.15927   -312.60063    216009.12   -18631.546    1390.8452   -20022.391   -728.40775    527.07651    78.776021    22.637253     25.53674 
   86600    247.69736    -241.7439    216009.12   -18526.315    1440.4989   -19966.814   -492.28803    529.62942    78.776136     22.63777    25.506974 
   86800    237.36753   -129.93606    216009.12   -18593.926    1380.4252   -19974.351   -10.201174    530.39956    78.775308    22.637152    25.480715 
   87000    244.00985   -571.91518    216009.12   -18556.467     1419.054   -19975.521   -1855.5219    533.80602    78.774277    22.635035    25.489065 
   87200    240.25715   -270.52502    216009.12   -18561.523      1397.23   -19958.753       -552.1    533.81098    78.774894    22.632637    25.491787 
   87400    238.79191   -338.76276    216009.12   -18579.421    1388.7088   -19968.129   -850.22893     535.4719    78.776937    22.630959     25.46809 
   87600    236.72465   -300.33467    216009.12   -18598.423    1376.6865   -19975.109   -725.82735     535.5694     78.77277    22.630609    25.468125 
   87800     242.3416   -361.59628    216009.12   -18609.239    1409.3522   -20018.592   -977.16092    536.37099     78.77118    22.631716    25.461388 
   88000    236.54538   -278.60769    216009.12   -18582.819    1375.6439   -19958.463   -622.06259    535.25538    78.768862    22.631724     25.47633 
   88200    233.17584   -478.14582    216009.12   -18633.008    1356.0482   -19989.056   -1417.1634    538.21671    78.765399    22.631809    25.502757 
   88400    245.45073   -407.81391    216009.12   -18565.141    1427.4335   -19992.575   -1153.2843    539.97847     78.76405    22.635895    25.516567 
   88600    236.83641   -305.06897    216009.12   -18548.992    1377.3365   -19926.328   -679.94777    540.86193    78.762814    22.636624    25.523215 
   88800     238.0002   -204.38036    216009.12   -18629.888    1384.1045   -20013.993   -297.13775    540.50766    78.762783    22.635084    25.542492 
   89000    237.62934   -169.15655    216009.12   -18595.433    1381.9478   -19977.381   -150.50799    540.38113    78.763395    22.636275    25.546112 
   89200     241.6724   -347.18626    216009.12   -18573.163    1405.4604   -19978.623   -889.84008    542.56877    78.762634    22.635111    25.539951 
   89400    240.29442   -190.82155    216009.12   -18578.792    1397.4467   -19976.239   -245.82522    542.87762    78.762602    22.635814    25.549948 
   89600    236.05333    -299.8099    216009.12   -18708.228    1372.7824   -20081.011   -714.67548    544.52352    78.760971    22.637009    25.551104 
   89800    238.88533   -448.99641    216009.12   -18586.769    1389.2521   -19976.021   -1367.9887    548.33022    78.758259    22.636216      25.5415 
   90000    240.11444   -198.83025    216009.12   -18586.667       1396.4   -19983.067   -264.64077    549.09899    78.757881    22.636762    25.558327 
   90200    237.08704    -340.1351    216009.12    -18616.41     1378.794   -19995.204   -857.78317    551.90871    78.756398    22.638344    25.557556 
   90400    245.61879   -400.30593    216009.12   -18591.485    1428.4109   -20019.896   -1153.6028    554.63478    78.753381    22.640032    25.561019 
   90600    237.02009   -164.45131    216009.12   -18606.234    1378.4047   -19984.639   -88.457744    553.87428    78.752139    22.640734     25.53992 
   90800    240.64258   -213.40262    216009.12   -18595.013    1399.4715   -19994.484   -305.85127    555.08215    78.752186    22.643672    25.550741 
   91000    238.16281   -447.10102    216009.12   -18617.973    1385.0502   -20003.023   -1354.2392    555.97104    78.752287    22.646299    25.557458 
   91200     237.3781   -196.32586    216009.12   -18674.688    1380.4867   -20055.175   -238.02124    555.42843    78.752835    22.646541    25.565644 
   91400    242.39541   -417.40969    216009.12   -18624.871    1409.6651   -20034.536   -1208.4623    557.38244    78.751832    22.646145    25.554146 
   91600    246.23004   -167.92527    216009.12   -18532.187    1431.9657   -19964.152   -146.11939    556.42535    78.750111    22.645332    25.556031 
   91800    244.45108   -408.18556    216009.12   -18552.019      1421.62   -19973.639   -1123.3946    559.34622    78.749549    22.642967    25.546144 
   92000    240.08547   -400.34564    216009.12   -18579.585    1396.2316   -19975.816   -1139.7421    562.79144    78.749044    22.644204    25.565567 
   92200    235.84793   -244.25159    216009.12   -18609.176    1371.5879   -19980.764   -433.82627     561.6072    78.744769    22.644784    25.569431 
   92400    237.64259   -359.16973    216009.12   -18544.323    1382.0249   -19926.348   -967.53241    562.69086    78.744853    22.646287    25.566678 
   92600    242.63559   -260.74057    216009.12   -18483.857    1411.0619   -19894.919   -514.10409    563.64531    78.742711    22.645693    25.560047 
   92800    235.18277   -361.03945    216009.12   -18567.985    1367.7196   -19935.704   -920.91876    564.75586    78.741195    22.647467    25.530595 
   93000    237.09174   -445.15352    216009.12   -18620.717    1378.8213   -19999.538   -1309.8175    566.82176    78.741167    22.650641    25.532975 
   93200    237.22585   -270.08345    216009.12   -18613.238    1379.6013   -19992.839   -543.06699    567.66682    78.739779    22.651476    25.535265 
   93400    234.61944   -344.67862    216009.12   -18700.754    1364.4435   -20065.198   -880.57308    567.38614    78.739867    22.648619    25.563068 
   93600    235.28488   -171.85714    216009.12   -18648.161    1368.3134   -20016.475   -100.98018    568.98011    78.738618    22.646677    25.578626 
   93800    236.19658   -350.66452    216009.12   -18662.015    1373.6155   -20035.631   -885.69878    571.53444    78.738975    22.647735    25.598537 
   94000     237.4429   -287.09496    216009.12   -18642.877    1380.8635   -20023.741   -579.88789    571.43636      78.7393    22.644393    25.608893 
   94200    241.63024    -301.0724    216009.12   -18595.524    1405.2153    -20000.74   -679.00224    570.23136    78.738235    22.642505    25.612515 
   94400     242.1313   -281.45972    216009.12   -18642.384    1408.1292   -20050.514   -575.77106    572.38553    78.740998    22.641848     25.62719 
   94600    232.89659   -171.90442    216009.12   -18661.443    1354.4242   -20015.867   -141.22619    573.67757    78.740913    22.644483    25.611433 
   94800      233.308   -423.84551    216009.12   -18642.675    1356.8168   -19999.492   -1225.0674    576.22188     78.73941    22.643927    25.576529 
   95000    234.17371   -346.66171    216009.12    -18634.72    1361.8514   -19996.572   -845.53648    575.48645    78.739969    22.643155    25.577804 
   95200    239.52027   -336.07996    216009.12   -18632.793    1392.9446   -20025.738   -797.03852    577.03126    78.741846     22.64088    25.564717 
   95400    229.72154   -372.87826    216009.12   -18622.365    1335.9595   -19958.325   -987.35749    578.35766    78.743038    22.642923    25.574582 
   95600    237.58355   -382.74867    216009.12    -18578.14    1381.6815   -19959.822   -1054.8379    580.38214    78.744455    22.643874    25.585021 
   95800    245.72616   -322.63057    216009.12   -18586.834    1429.0353   -20015.869    -752.6818    580.48217    78.745002    22.644752    25.569562 
   96000    242.82543   -225.87932    216009.12   -18567.836     1412.166   -19980.002   -327.88118    579.94596    78.742848    22.645104    25.569665 
   96200    238.48442   -366.34041    216009.12   -18522.124    1386.9205   -19909.045   -966.60768    582.03533    78.745673    22.641681    25.565039 
   96400    240.02772   -270.45437    216009.12   -18564.544    1395.8957    -19960.44   -565.04523    579.63215    78.744141    22.641532     25.55988 
   96600    232.81264   -416.03814    216009.12   -18587.847     1353.936   -19941.783    -1174.224     581.9909    78.742336    22.641844    25.558798 
   96800    238.75584   -277.26987    216009.12   -18551.191     1388.499    -19939.69   -637.68258    582.52254    78.742609    22.640411    25.551037 
   97000    231.57715   -392.35814    216009.12   -18601.479    1346.7509    -19948.23   -1111.4497    585.64307    78.743128    22.642302     25.52478 
   97200    242.14784   -344.07836    216009.12   -18566.694    1408.2254    -19974.92    -879.1331    586.80012     78.74118     22.63944    25.513102 
   97400    234.66679    -320.6205    216009.12   -18561.385    1364.7189   -19926.104    -762.0589    588.70374    78.738345    22.639015    25.519549 
   97600    245.61236   -321.02758    216009.12   -18505.178    1428.3735   -19933.552    -729.4671    586.31478    78.738127     22.63773    25.523474 
   97800    241.73495   -278.73798    216009.12    -18519.44    1405.8242   -19925.264   -622.24522    587.53736    78.737396    22.637635    25.523824 
   98000    247.25927   -346.90984    216009.12   -18565.678    1437.9512   -20003.629   -921.89702     589.0162    78.732758    22.636121     25.54192 
   98200    237.21903   -359.61941    216009.12   -18612.874    1379.5616   -19992.435   -997.03608    590.04346    78.733137    22.634222    25.531805 
   98400    232.62251   -402.70802    216009.12   -18550.351    1352.8303   -19903.181   -1109.0371    593.25997    78.733005    22.634438    25.510814 
   98600    235.19363   -195.15687    216009.12   -18569.711    1367.7827   -19937.494   -248.90806    592.64965    78.734528    22.632835    25.490994 
   98800    244.51827    -236.2492    216009.12   -18527.609    1422.0108    -19949.62    -396.6436    594.42933     78.73458    22.633664    25.500694 
   99000    244.38233   -254.40317    216009.12   -18580.521    1421.2202   -20001.741   -509.62736    596.82484    78.733679    22.632999    25.506985 
   99200     243.9955   -257.55144    216009.12   -18584.247    1418.9706   -20003.217   -543.32757    597.76161     78.73432    22.633067    25.496639 
   99400    238.46774   -225.17702    216009.12   -18603.872    1386.8235   -19990.695   -337.39874    597.18222    78.734806    22.635063    25.505181 
   99600    246.33467   -260.21714    216009.12   -18561.504    1432.5742   -19994.078   -532.73611    598.24279    78.736084    22.636116    25.513625 
   99800    234.43847   -458.82835    216009.12   -18589.167    1363.3911   -19952.558   -1399.2091    598.08467    78.735415    22.635237    25.528367 
  100000    238.94753   -364.93333    216009.12   -18568.082    1389.6138   -19957.696   -953.07811    597.28822    78.738748    22.636328     25.50618 
  100200    235.94894   -377.52457    216009.12   -18631.101    1372.1753   -20003.276   -1029.8931    599.70552    78.737603    22.636769    25.519641 
  100400    242.44768   -201.80013    216009.12   -18578.118    1409.9691   -19988.087   -286.39689    601.70243     78.73431     22.63677    25.523922 
  100600     242.5262   -233.90336    216009.12   -18615.227    1410.4258   -20025.653   -426.14259    601.00936    78.732889    22.638602    25.512368 
  100800    231.64367    -402.0608    216009.12    -18632.39    1347.1378   -19979.527   -1105.0215    602.34869    78.731878    22.638953    25.485255 
[...]
 5175800    220.53078   -403.50337    216009.12   -20695.961    1282.5101   -21978.471   -1101.6432    7531.5678     77.45116     22.30186    25.495002 
 5176000     222.4172   -247.47682    216009.12   -20695.034    1293.4807   -21988.515   -463.66525    7528.6274    77.451539    22.301988    25.501046 
 5176200    225.63355   -417.62497    216009.12   -20701.113    1312.1855   -22013.298   -1200.1497    7532.5764    77.451788     22.30113    25.494287 
 5176400     223.4584   -369.86751    216009.12   -20725.983    1299.5358   -22025.519   -982.02575    7530.2247    77.452549    22.300474    25.496246 
 5176600    227.50675   -231.11286    216009.12   -20683.679    1323.0793   -22006.758   -364.42942    7529.3423    77.453251    22.300418    25.492346 
 5176800    228.21855   -335.06523    216009.12    -20653.88    1327.2187   -21981.099   -776.66047    7534.2025    77.454045      22.3001    25.495521 
 5177000    234.57798   -320.37677    216009.12   -20652.811    1364.2024   -22017.014   -762.82949    7530.4411    77.453735    22.300577    25.493316 
 5177200    228.78742    -233.5415    216009.12   -20671.664    1330.5271   -22002.191    -377.5877    7528.9238    77.453322    22.300791     25.49087 
 5177400    222.05717   -317.31202    216009.12   -20697.275    1291.3869   -21988.662   -710.39594    7534.1868    77.453036     22.30152    25.492648 
 5177600    229.77195   -291.84482    216009.12   -20638.931    1336.2526   -21975.184   -660.49742    7529.6328    77.453668      22.3012    25.492333 
 5177800     229.4318   -295.87198    216009.12   -20671.441    1334.2745   -22005.715   -659.30893    7528.8044    77.453632    22.302198    25.491638 
 5178000    224.88211   -454.12323    216009.12   -20691.564    1307.8155   -21999.379   -1346.5065     7531.878    77.453674      22.3025    25.484234 
 5178200    229.54756   -254.54839    216009.12    -20697.83    1334.9477   -22032.778   -488.61869    7528.6641    77.453171    22.302402    25.481401 
 5178400    222.79973   -193.60923    216009.12   -20703.868    1295.7053   -21999.573   -231.98963    7528.2607    77.453166    22.302178    25.486838 
 5178600    229.88325   -357.87946    216009.12   -20701.189    1336.8999   -22038.089   -890.94221    7532.6236    77.453884    22.302733    25.485278 
 5178800    227.73803   -288.19522    216009.12   -20657.343    1324.4243   -21981.767   -622.06228    7530.1684    77.453422    22.302358    25.486072 
 5179000    231.99876   -227.79471    216009.12   -20691.887    1349.2028    -22041.09    -328.1968    7529.5244    77.452596    22.303058    25.487274 
 5179200    226.07701   -332.82877    216009.12   -20665.524    1314.7645   -21980.289    -822.1242    7532.3369    77.452087     22.30366    25.495925 
 5179400    226.81507   -281.30973    216009.12   -20727.939    1319.0567   -22046.995   -597.12121    7529.9809     77.45282    22.303333    25.497773 
 5179600     229.3136   -259.36791    216009.12   -20624.189    1333.5871   -21957.776   -496.73402    7530.8274     77.45295    22.303724    25.496317 
 5179800    233.35774   -350.37797    216009.12   -20687.686     1357.106   -22044.792   -909.56165    7530.0262    77.452048    22.303834    25.487269 
 5180000    228.81837   -298.09725    216009.12     -20708.6     1330.707   -22039.307   -669.33766    7529.2483    77.451645    22.304892    25.490991 
 5180200    222.09323   -297.79504    216009.12   -20773.061    1291.5966   -22064.658   -681.71435    7530.9309    77.451881    22.305082    25.492927 
 5180400    222.11529   -340.15375    216009.12   -20745.765    1291.7249    -22037.49   -842.23892    7529.1821    77.451742    22.305428    25.490558 
 5180600    229.58269   -275.68151    216009.12   -20686.864     1335.152   -22022.016   -595.46317    7530.4198    77.451796    22.305805    25.497276 
 5180800    225.75622   -333.41131    216009.12   -20661.053     1312.899   -21973.952   -778.78825    7530.9175    77.451787    22.305758     25.50139 
 5181000    225.86257   -273.01571    216009.12   -20707.041    1313.5174   -22020.558    -557.5823    7530.4623    77.450995     22.30618    25.499051 
 5181200    230.20486   -323.02631    216009.12    -20712.67    1338.7703    -22051.44   -767.27137    7530.3515    77.450581    22.306392    25.491782 
 5181400    231.23238   -333.48844    216009.12   -20752.251    1344.7459   -22096.997   -818.84324    7531.7413    77.450967    22.306379    25.493243 
 5181600    227.22333   -306.67458    216009.12   -20683.928     1321.431   -22005.359   -729.51996    7531.0967    77.451151    22.306832    25.495217 
 5181800    220.08111   -344.44816    216009.12   -20753.325     1279.895    -22033.22   -877.00395    7530.0184    77.451375    22.306035    25.499236 
 5182000    230.63025   -264.92627    216009.12    -20671.39    1341.2441   -22012.634   -504.21302    7530.8684    77.450934    22.304983    25.500217 
 5182200    222.40774    -318.4586    216009.12   -20666.962    1293.4257   -21960.387   -767.50218    7530.4855    77.450758     22.30604    25.497924 
 5182400    228.32287   -317.64498    216009.12   -20658.576    1327.8255   -21986.402   -734.21245    7530.4769    77.450631    22.306414    25.494308 
 5182600     220.1091   -372.75314    216009.12   -20754.473    1280.0577   -22034.531   -997.93034    7531.5226    77.449433     22.30641    25.498468 
 5182800    231.09461   -321.04751    216009.12   -20693.123    1343.9446   -22037.068   -801.23721    7529.8593      77.4501    22.306457    25.497474 
 5183000    231.18113   -338.76634    216009.12   -20688.417    1344.4478   -22032.865    -838.0332    7530.3164    77.450598    22.306876    25.498217 
 5183200    232.98533   -362.54433    216009.12   -20643.544    1354.9403   -21998.484   -893.97065    7532.3037    77.450152     22.30792    25.495184 
 5183400    228.35061    -242.9149    216009.12   -20651.675    1327.9868   -21979.662   -439.67889    7530.8593     77.45006    22.308206    25.497718 
 5183600    228.16176   -328.41211    216009.12   -20733.074    1326.8885   -22059.962   -739.43511    7530.8111    77.449896     22.30716    25.501869 
 5183800    224.24233   -409.81432    216009.12   -20754.703    1304.0948   -22058.798   -1139.6298    7531.7188      77.4509    22.305863    25.498705 
 5184000    227.76398   -274.71248    216009.12    -20757.99    1324.5752   -22082.565   -559.44433    7530.8973    77.450884    22.307215    25.496854 
 5184200    229.94362   -320.58871    216009.12   -20640.856     1337.251   -21978.107   -751.11125    7529.6147    77.451662    22.306895    25.498186 
 5184400    221.55825   -343.48539    216009.12   -20706.658    1288.4854   -21995.143   -829.06981    7530.7622    77.451775    22.306706     25.49255 
 5184600    227.02801   -298.73732    216009.12   -20644.446    1320.2951   -21964.741   -687.37942    7530.4524    77.450528    22.306931    25.493975 
 5184800    226.27037   -304.69401    216009.12    -20702.53     1315.889   -22018.419   -708.34919    7531.0999    77.450447    22.307965    25.495952 
 5185000    227.57962   -385.32084    216009.12   -20712.353     1323.503   -22035.856   -1025.6754    7533.1041    77.450614    22.308383    25.494537 
 5185200     225.9858   -341.33173    216009.12   -20692.309     1314.234   -22006.543   -807.71574    7529.6641    77.450969    22.307788    25.498063 
 5185400    225.75035   -368.52399    216009.12   -20727.611    1312.8648   -22040.476    -946.0092    7530.2427    77.451549    22.308111    25.495146 
 5185600    225.88485   -421.02434    216009.12   -20690.481     1313.647   -22004.128   -1159.3656    7531.9249    77.451528    22.308489    25.493046 
 5185800    222.13762   -291.59923    216009.12   -20702.047    1291.8547   -21993.901   -611.95866    7530.6146    77.451245    22.308329    25.492453 
 5186000    226.40387   -367.34688    216009.12   -20654.683    1316.6654   -21971.348    -1001.843    7530.6367    77.451125    22.308551    25.491385 
 5186200    231.21762   -469.44908    216009.12   -20666.471      1344.66   -22011.131   -1422.6476    7532.7773     77.45131    22.307807    25.499878 
 5186400    228.87897   -274.92207    216009.12   -20683.135    1331.0595   -22014.195   -564.49447    7528.1225    77.451142    22.308251    25.490389 
 5186600    229.91001   -333.96058    216009.12   -20672.329    1337.0555   -22009.384   -822.54628    7530.1776    77.450908    22.308474    25.493583 
 5186800    226.25424   -397.55815    216009.12   -20669.765    1315.7952    -21985.56   -1047.5739    7531.6949    77.451629    22.308835    25.491451 
 5187000    228.18122    -257.6509    216009.12   -20687.663    1327.0017   -22014.665   -436.55253    7528.2554     77.45098    22.309071    25.496617 
 5187200    228.39829   -286.24091    216009.12   -20646.726     1328.264    -21974.99   -659.34619    7529.3712    77.451616    22.308767    25.500267 
 5187400    227.85733   -431.95918    216009.12   -20662.411    1325.1181   -21987.529   -1217.0142    7532.2999    77.452166    22.309084    25.495814 
 5187600    219.50547   -354.46479    216009.12   -20709.871    1276.5473   -21986.418   -911.12248    7529.3241    77.452401    22.309076    25.496799 
 5187800    224.63069   -301.65052    216009.12   -20651.661    1306.3534   -21958.014   -701.52064    7528.6394    77.453646     22.30892    25.495721 
 5188000    227.45862   -383.99118    216009.12   -20671.696    1322.7993   -21994.496   -1060.4894    7532.7772     77.45372    22.308181    25.500637 
 5188200    231.45321   -337.60838    216009.12   -20630.893    1346.0301   -21976.923   -876.72345    7531.4293    77.454587    22.307829    25.494323 
 5188400    224.38819   -262.74783    216009.12   -20657.794    1304.9431   -21962.737   -529.54839    7529.7597    77.454132    22.308258    25.494861 
 5188600    230.48067   -393.11737    216009.12   -20669.752    1340.3742   -22010.126   -1033.2831    7531.0354     77.45436    22.308901    25.496727 
 5188800     225.1365   -323.03772    216009.12   -20722.679    1309.2949   -22031.973   -732.62733    7529.8145    77.454429    22.308547    25.497995 
 5189000    223.55271   -230.96376    216009.12   -20716.034    1300.0843   -22016.118   -332.77766    7528.7211    77.455967    22.307811    25.495369 
 5189200    227.55341   -419.32441    216009.12   -20703.415    1323.3506   -22026.766   -1165.0411    7534.2368    77.455495    22.307382    25.495681 
 5189400    225.07658   -310.71919    216009.12   -20771.833    1308.9465   -22080.779    -721.5276    7529.4396    77.455813     22.30677    25.489742 
 5189600    223.96372   -237.56661    216009.12   -20718.511    1302.4746   -22020.986   -410.07459    7528.6555    77.455813    22.306999    25.492255 
 5189800    231.38641   -457.89585    216009.12   -20673.741    1345.6416   -22019.382   -1378.8093    7533.3458    77.456201    22.306691    25.490773 
 5190000    219.65733   -327.60388    216009.12   -20709.561    1277.4305   -21986.991   -815.24233    7529.4507    77.456864    22.307602    25.485737 
 5190200    227.76059   -245.33307    216009.12   -20690.058    1324.5555   -22014.614   -411.62249    7529.3098    77.456957    22.307088    25.488143 
 5190400    227.92042   -409.93875    216009.12   -20700.772     1325.485   -22026.257   -1106.4442    7533.6602     77.45803    22.307256    25.487196 
 5190600    233.55095   -350.36145    216009.12   -20625.038    1358.2297   -21983.268   -868.77858    7530.8479    77.457817    22.306412    25.493407 
 5190800    229.83533   -263.16957    216009.12   -20705.456    1336.6213   -22042.077   -522.42208    7529.8462    77.457806     22.30545    25.496987 
 5191000    228.96755      -382.86    216009.12   -20678.089    1331.5746   -22009.664   -1033.4316    7531.6202    77.458068    22.303989    25.487521 
 5191200    222.21978   -311.67134    216009.12   -20666.028    1292.3326    -21958.36   -720.19297    7530.6469    77.458142     22.30462    25.490763 
 5191400    224.07073   -301.29553    216009.12   -20697.419    1303.0968   -22000.516   -685.02425    7531.4083    77.457683    22.305426    25.491523 
 5191600    222.72616   -409.96471    216009.12   -20712.861    1295.2774   -22008.138   -1118.4913    7532.5339    77.457941    22.304843    25.490491 
 5191800    228.78627     -302.059    216009.12   -20707.736    1330.5203   -22038.256   -675.56734    7531.1495    77.457632    22.305393     25.49109 
 5192000    226.83295   -301.26744    216009.12   -20656.873    1319.1607   -21976.034   -668.64875    7532.0367    77.456967     22.30408    25.490388 
 5192200    229.96538   -384.62061    216009.12   -20626.924    1337.3775   -21964.301   -1035.7217    7533.5447    77.457231     22.30371    25.492912 
 5192400    219.19509   -316.62597    216009.12   -20698.417    1274.7423   -21973.159    -738.2907    7530.0755    77.457541    22.304371    25.495054 
 5192600    232.46502   -257.80245    216009.12   -20680.887    1351.9144   -22032.802   -470.41145     7531.833    77.458426    22.303396    25.499832 
 5192800    231.11782   -353.81459    216009.12   -20697.938    1344.0796   -22042.017   -887.01277    7534.3491     77.45943    22.304304    25.496584 
 5193000    228.62568   -271.07051    216009.12   -20670.077    1329.5864   -21999.664   -528.59374    7530.8762    77.459601    22.303032    25.495909 
 5193200    230.06862   -249.50111    216009.12   -20742.015     1337.978   -22079.993   -471.44095    7530.1241    77.459632    22.303403    25.496315 
 5193400     228.1328   -413.01065    216009.12    -20661.15    1326.7201    -21987.87   -1147.8666    7534.0697    77.459475    22.302694    25.491161 
 5193600    225.46619   -359.41092    216009.12    -20684.77    1311.2123   -21995.982   -881.89108    7532.0067    77.460143    22.301727    25.487033 
 5193800    227.47175   -273.24826    216009.12   -20678.428    1322.8757   -22001.303   -538.58633    7528.5572    77.460686    22.300123       25.493 
 5194000    229.07769   -390.27179    216009.12   -20665.856    1332.2152   -21998.071   -1078.0917    7532.6234    77.460835    22.300065    25.492922 
 5194200    226.94534   -323.57974    216009.12   -20751.546    1319.8143    -22071.36   -766.87726    7532.5701    77.461386    22.299197    25.492451 
 5194400    227.12126   -243.18902    216009.12   -20723.719    1320.8374   -22044.556   -450.53419     7529.002    77.461031    22.298559    25.490722 
 5194600    232.01939   -398.05642    216009.12   -20684.241    1349.3228   -22033.564   -1112.0494    7532.8251    77.462023    22.297438    25.496742 
 5194800    230.02031    -400.5915    216009.12   -20640.432     1337.697   -21978.129   -1130.9461    7533.6384     77.46202    22.297248     25.49448 
 5195000    228.22101    -220.8441    216009.12   -20704.041    1327.2331   -22031.274   -330.36995    7529.1294    77.462804     22.29726    25.491879 
 5195200    236.39511   -289.21663    216009.12   -20627.831    1374.7701   -22002.601   -608.72559    7532.2121    77.462297    22.296719    25.498668 
 5195400    223.68194   -368.82057    216009.12    -20702.63    1300.8358   -22003.466    -988.0643    7533.5977    77.461491    22.296965    25.495149 
 5195600    227.94824   -258.59656    216009.12   -20655.803    1325.6468   -21981.449   -520.95441    7529.7739    77.461735    22.296746    25.497761 
 5195800    229.11689   -340.00883    216009.12   -20721.041    1332.4431   -22053.484   -830.45571    7532.1108    77.460918    22.295362    25.495598 
 5196000    236.03707   -343.76482    216009.12   -20636.086    1372.6878   -22008.774   -863.84208    7533.1469    77.461293    22.294689    25.494876 
 5196200    228.84692   -207.78106    216009.12   -20656.771    1330.8731   -21987.644   -282.18792    7529.0427    77.461326    22.295656    25.494007 
 5196400    227.84445   -376.81861    216009.12   -20701.575    1325.0432   -22026.618    -976.6046    7533.5388    77.460808    22.294812    25.488677 
 5196600    225.58959   -315.02077    216009.12   -20665.009    1311.9299   -21976.939    -705.4887    7534.8797    77.461437    22.294887    25.495584 
 5196800     233.1002    -227.9806    216009.12    -20677.29    1355.6083   -22032.898   -382.69773    7531.1503    77.461011    22.294688    25.504996 
 5197000    228.11455   -360.14622    216009.12   -20659.515     1326.614   -21986.129   -922.11829    7534.7945    77.460684    22.294495    25.501831 
 5197200     233.2796   -327.24028    216009.12   -20644.236    1356.6516   -22000.887   -780.53898    7533.6046     77.46035    22.294453    25.503159 
 5197400    229.96448   -243.24062    216009.12   -20706.228    1337.3723     -22043.6   -464.42692    7530.4977    77.460842    22.294421    25.502751 
 5197600    229.76332   -296.75413    216009.12   -20706.255    1336.2025   -22042.457   -612.79946    7532.4515    77.461634    22.294979    25.500672 
 5197800    225.25095   -352.99148    216009.12   -20720.207    1309.9605   -22030.167   -884.68091    7531.7556    77.462342    22.294054    25.499145 
 5198000    221.68148   -215.61087    216009.12    -20761.51     1289.202   -22050.712   -325.13122    7530.1665    77.462549    22.295082    25.505037 
 5198200    228.78041   -266.60433    216009.12   -20662.164    1330.4863    -21992.65   -565.75107    7533.4855    77.463092    22.294604    25.501241 
 5198400    226.72429   -317.26909    216009.12   -20657.398    1318.5288   -21975.927   -739.57724    7536.5669    77.463368    22.293993    25.502556 
 5198600    229.32486   -224.36472    216009.12    -20674.89    1333.6526   -22008.543   -378.85591    7531.7612    77.462861    22.293717    25.501723 
 5198800    221.67334    -257.0841    216009.12   -20732.927    1289.1547   -22022.081    -462.4518    7531.5944    77.463954    22.292839     25.50632 
 5199000    219.07622   -434.10807    216009.12    -20698.97     1274.051    -21973.02   -1196.0721    7535.6325    77.463869    22.292579    25.505377 
 5199200     230.5666   -236.06483    216009.12    -20605.46     1340.874   -21946.334   -386.21484     7530.519    77.464379    22.292316    25.501724 
 5199400    224.41321   -376.43633    216009.12   -20722.392    1305.0886    -22027.48   -1015.9377     7531.932    77.464424    22.291568    25.504195 
 5199600    225.99198   -427.50901    216009.12   -20708.975      1314.27   -22023.246    -1223.639    7534.2528    77.464506    22.290446    25.500747 
 5199800    230.66313   -308.18745    216009.12   -20669.012    1341.4354   -22010.448   -718.08026    7531.4249    77.465234    22.289654     25.50407 
 5200000    226.21446   -285.91042    216009.12   -20681.773    1315.5639   -21997.337   -621.87504    7530.4767    77.465531    22.288253    25.506813 
Loop time of 6842.77 on 160 procs for 5200000 steps with 9248 atoms

Performance: 656.576 ns/day, 0.037 hours/ns, 759.926 timesteps/s
97.8% CPU use with 160 MPI tasks x no OpenMP threads

MPI task timing breakdown:
Section |  min time  |  avg time  |  max time  |%varavg| %total
---------------------------------------------------------------
Pair    | 0.24325    | 1424.2     | 5482.3     |5114.5 | 20.81
Neigh   | 0.31086    | 89.14      | 358.51     |1225.5 |  1.30
Comm    | 11.104     | 1710.2     | 5472.7     |4544.1 | 24.99
Output  | 89.435     | 89.512     | 91.386     |   1.6 |  1.31
Modify  | 213.88     | 3431.9     | 6648.1     |4738.4 | 50.15
Other   |            | 97.86      |            |       |  1.43

Nlocal:    57.8 ave 196 max 0 min
Histogram: 72 23 25 0 0 0 0 0 13 27
Nghost:    535.231 ave 908 max 0 min
Histogram: 20 4 0 8 8 32 36 12 27 13
Neighs:    0 ave 0 max 0 min
Histogram: 160 0 0 0 0 0 0 0 0 0
FullNghs:  5861.44 ave 23543 max 0 min
Histogram: 109 11 0 0 0 0 0 1 20 19

Total # of neighbors = 937830
Ave neighs/atom = 101.409
Neighbor list builds = 542025
Dangerous builds = 0
write_data 		${DIR}/data.${NAME}_run
write_data 		run_21/data.${NAME}_run
write_data 		run_21/data.ibeam_cooling_21_run
Total wall time: 1:54:17
