
# Set production fixes - Nose/Hoover
#
fix                 4 water temp/csvr ${START_TEMP} ${END_TEMP} 500.0 928347
fix                 4 water temp/csvr 240 ${END_TEMP} 500.0 928347
fix                 4 water temp/csvr 240 227 500.0 928347


## divide "droplet" into core and surface
#region		core_reg cylinder z 135 135 44.6 20 INF units box
#region		surface_reg cylinder z 135 135 44.6 20 INF units box side out
#group		core dynamic all region core_reg
#group		surface dynamic all region surface_reg

## compute pressure core
#compute        peratom_core core stress/atom NULL
#compute        p_core core reduce sum c_peratom_core[1] c_peratom_core[2] c_peratom_core[3]
#variable       press_core equal -(c_p_core[1]+c_p_core[2]+c_p_core[3])/(3*1249982.5)


## compute pressure surface
#compute        peratom_surf surface stress/atom NULL
#compute        p_surf surface reduce sum c_peratom_surf[1] c_peratom_surf[2] #c_peratom_surf[3]
#variable       press_surf equal -(c_p_surf[1]+c_p_surf[2]+c_p_surf[3])/(3*33365)

## compute total pressure of drop
compute        peratom water stress/atom NULL
compute        p water reduce sum c_peratom[1] c_peratom[2] c_peratom[3]
variable       press equal -(c_p[1]+c_p[2]+c_p[3])/(3*50320)


# compute order parameter
compute        3 all orientorder/atom nnn NULL cutoff 3.5

# compute center of mass of bridge
compute 	4 water com

# Run simulation
thermo_style        custom step c_2 press vol etotal ke pe v_press c_1[4] c_4[*]
thermo              200
dump		     1 water custom 400 ${DIR}/prod.${NAME}.dump id type x y z vx vy vz c_3[*] c_peratom[*]
dump		     1 water custom 400 run_17/prod.${NAME}.dump id type x y z vx vy vz c_3[*] c_peratom[*]
dump		     1 water custom 400 run_17/prod.ibeam_cooling_17.dump id type x y z vx vy vz c_3[*] c_peratom[*]
run                 ${STEPS}
run                 5200000
Neighbor list info ...
  update every 1 steps, delay 0 steps, check yes
  max neighbors/atom: 2000, page size: 100000
  master list distance cutoff = 6.67472
  ghost atom cutoff = 6.67472
  binsize = 3.33736, bins = 48 13 9
  2 neighbor lists, perpetual/occasional/extra = 1 1 0
  (1) pair sw, perpetual
      attributes: full, newton on
      pair build: full/bin/atomonly
      stencil: full/bin/3d
      bin: standard
  (2) compute orientorder/atom, occasional, copy from (1)
      attributes: full, newton on
      pair build: copy
      stencil: none
      bin: none
Per MPI rank memory allocation (min/avg/max) = 6.176 | 6.737 | 7.298 Mbytes
Step c_2 Press Volume TotEng KinEng PotEng v_press c_1[4] c_4[1] c_4[2] c_4[3] 
       0    246.19456   -273.45291    181563.75   -13316.993    1012.7257   -14329.719   -411.19894    35.166447    78.719693    25.136799    16.439407 
     200    240.33153   -320.85873    181563.75   -13355.236    988.60803   -14343.844   -560.62292    35.853687    78.721655    25.137801    16.437721 
     400    237.72526   -352.59624    181563.75   -13374.562    977.88708   -14352.449   -635.95002    36.437185    78.719709    25.134873    16.421473 
     600    231.35996   -385.99595    181563.75   -13464.647    951.70331   -14416.351   -828.86499     36.15642    78.719373    25.132858    16.454026 
     800    234.02387   -289.84259    181563.75   -13467.234    962.66136   -14429.896   -443.64103    36.594008    78.718281    25.132265    16.457445 
    1000    241.30153   -333.05595    181563.75   -13346.205    992.59814   -14338.803   -585.32455    38.231508    78.715245    25.130177    16.466983 
    1200    239.10063   -265.19222    181563.75   -13400.468    983.54473   -14384.012   -403.22753    39.096316    78.714138    25.132538    16.461113 
    1400    242.48236    -296.2918    181563.75   -13270.248    997.45551   -14267.704   -460.56278    40.623552    78.712693    25.133568    16.473578 
    1600    238.98615    -295.2455    181563.75   -13256.546     983.0738    -14239.62   -480.94377     41.00848    78.711755    25.132752     16.48792 
    1800    235.29483   -389.70209    181563.75   -13288.885     967.8895   -14256.774   -824.40514    41.904062    78.708099    25.129685    16.516409 
    2000    253.72395   -387.75101    181563.75   -13219.927     1043.698   -14263.625   -836.83236    43.206263    78.711802    25.124703    16.526019 
    2200    244.13415   -404.15003    181563.75   -13231.668    1004.2502   -14235.918   -858.19074    45.170366    78.712714    25.120654     16.54211 
    2400    239.94379   -417.88964    181563.75   -13274.004    987.01307   -14261.017   -907.81384    47.223177    78.711953    25.116028    16.512916 
    2600    237.79773   -210.58327    181563.75   -13282.942     978.1852   -14261.127   -190.04425    47.923012    78.712278    25.113887    16.512819 
    2800    248.22108   -410.61085    181563.75   -13284.615    1021.0618   -14305.677   -878.80279    49.296375    78.708692    25.113768    16.475392 
    3000    237.88535   -434.28776    181563.75   -13353.803    978.54563   -14332.348   -1026.2096    50.986387    78.707364    25.117485    16.441217 
    3200    227.62492   -436.34785    181563.75   -13320.665    936.33918   -14257.004   -1001.4273    52.385673    78.708176    25.119908    16.443625 
    3400    234.93134   -416.70029    181563.75   -13289.315    966.39428    -14255.71   -916.05182    53.754217    78.707406    25.121838    16.443589 
    3600    247.40389   -447.68505    181563.75   -13254.098    1017.7003   -14271.798   -1026.9354    54.788731    78.705893    25.119226    16.465238 
    3800    239.78896   -406.42853    181563.75   -13274.054    986.37619    -14260.43    -871.0233    55.765758    78.703038    25.116978    16.456473 
    4000    239.10632   -311.52784    181563.75   -13290.075    983.56812   -14273.643   -585.95413    57.617046    78.700537     25.11476    16.457275 
    4200    250.88652   -445.27846    181563.75   -13201.433    1032.0262   -14233.459   -1009.2558    59.139582    78.701323    25.112862    16.470361 
    4400    249.81197   -300.03586    181563.75   -13170.234     1027.606    -14197.84   -512.60517    60.008852    78.700595    25.112455    16.445374 
    4600    242.06317   -295.42608    181563.75   -13264.038    995.73117    -14259.77   -517.40321     61.94308    78.702796    25.113757    16.440758 
    4800    240.07772    -389.1363    181563.75   -13242.074    987.56398   -14229.638   -834.38968    63.496201     78.70266    25.115312    16.451198 
    5000    228.08182   -307.01697    181563.75   -13306.804    938.21864   -14245.022   -550.47127    64.769329    78.700153    25.115826    16.449516 
    5200    236.00458   -328.77496    181563.75   -13297.138    970.80906   -14267.947   -593.24575    66.711349    78.703378    25.114692    16.417648 
    5400    233.94772    -428.0285    181563.75   -13302.393    962.34811   -14264.741   -953.27484    67.060686    78.705561    25.116269    16.436073 
    5600    236.16503    -300.3588    181563.75   -13329.944    971.46905   -14301.413   -474.40712    68.131426    78.705405    25.114914    16.411417 
    5800    258.15233   -447.03132    181563.75   -13195.478    1061.9142   -14257.392   -1014.7235    68.805767    78.708078     25.11494    16.399065 
    6000    229.58107   -295.42983    181563.75   -13345.193    944.38584   -14289.579   -482.12477      71.5022    78.706933     25.11521    16.374264 
    6200    233.00588   -321.72257    181563.75   -13263.631    958.47386   -14222.105   -567.64037    72.931755    78.705039    25.110593    16.378974 
    6400    236.12854   -225.29841    181563.75   -13235.027    971.31895   -14206.346   -216.98569    74.481016    78.705104     25.10764    16.380213 
    6600    232.84677   -467.33654    181563.75    -13318.73    957.81934   -14276.549   -1067.9741    74.828429    78.702236    25.105629    16.395932 
    6800    232.62521   -361.28722    181563.75   -13289.993    956.90796   -14246.901   -704.67622    75.588494     78.70212    25.106313    16.405307 
    7000    239.27988   -594.15712    181563.75   -13324.117    984.28204     -14308.4    -1568.506    76.252887    78.701161    25.108578    16.415086 
    7200    230.40541   -462.14748    181563.75   -13254.774    947.77677   -14202.551   -1061.8894    77.666432    78.703314    25.109265    16.407908 
    7400     235.1302   -347.47221    181563.75   -13317.516     967.2123   -14284.728   -620.80077     77.95314    78.706561    25.110455    16.379729 
    7600    233.88728   -201.65357    181563.75   -13312.946    962.09951   -14275.045   -137.84985    79.588889    78.710413    25.108117    16.383282 
    7800    235.52142   -300.03177    181563.75   -13207.924    968.82156   -14176.746   -483.30799    82.405099     78.71258    25.106884    16.350542 
    8000    237.62552   -417.27348    181563.75   -13236.796    977.47684   -14214.273   -910.18181     84.48443    78.716626    25.103679    16.345369 
    8200    238.53719   -460.19352    181563.75   -13307.707    981.22699   -14288.934   -1077.0965    86.205573     78.71499    25.101434    16.339641 
    8400    234.52966   -371.88897    181563.75   -13315.455    964.74193   -14280.197   -777.94273    86.714236    78.709529    25.103279    16.319156 
    8600    239.25957   -514.49876    181563.75   -13246.604    984.19851   -14230.803   -1313.9039    86.840609    78.706758    25.099877    16.306446 
    8800    231.63611   -365.28103    181563.75    -13251.55     952.8393   -14204.389   -718.49356     87.44211    78.706145    25.102169    16.329446 
    9000    244.49971    -338.2089    181563.75   -13240.814    1005.7539   -14246.568   -632.83984    88.723909    78.707046     25.10277    16.340954 
    9200     240.3107   -519.35143    181563.75   -13305.062    988.52236   -14293.585   -1281.6352    89.440497    78.708141    25.103525    16.308893 
    9400    237.24862   -456.58849    181563.75   -13321.377    975.92646   -14297.303   -1061.9612    89.880223    78.711549    25.105198    16.330384 
    9600    236.73619   -319.31439    181563.75   -13394.203    973.81856   -14368.021   -600.12672    91.637944      78.7137    25.106914    16.350273 
    9800    232.09307    -612.2711    181563.75   -13348.465    954.71899   -14303.184   -1621.6959    93.013627    78.712412    25.103358    16.365297 
   10000    249.07772   -358.06767    181563.75   -13216.392    1024.5857   -14240.977   -722.05111    93.656924    78.709462    25.104838    16.382613 
   10200     247.1657   -441.71178    181563.75   -13247.125    1016.7205   -14263.846   -1008.8291    94.879751    78.708786    25.110694     16.34615 
   10400    241.58813   -388.58453    181563.75   -13263.435    993.77708   -14257.212   -831.02722    95.693063    78.705468    25.114163    16.327076 
   10600    239.94599    -421.8446    181563.75   -13259.945    987.02213   -14246.967   -950.97005    95.871324    78.703491     25.11687    16.297005 
   10800    242.39872   -361.86204    181563.75    -13295.25    997.11146   -14292.362   -703.14174    97.016795    78.703086    25.120276    16.287642 
   11000    241.64339    -349.6918    181563.75   -13314.322    994.00439   -14308.326   -684.24001    98.919704    78.707794    25.121459    16.279282 
   11200    239.37061   -330.36154    181563.75   -13306.354     984.6553   -14291.009   -611.47801    99.871013    78.707583     25.12801    16.253566 
   11400    245.37641    -370.5578    181563.75   -13287.797    1009.3603   -14297.158   -740.91386    101.44447     78.70486    25.134317    16.232938 
   11600    237.26248   -365.27572    181563.75   -13254.641    975.98345   -14230.624   -706.24313    103.59891    78.705992    25.134031    16.227405 
   11800    241.59056   -501.30598    181563.75   -13257.054    993.78708   -14250.841   -1221.9851    106.01125    78.704553    25.134148    16.246263 
   12000     248.1312   -403.94659    181563.75   -13202.341    1020.6921   -14223.033   -879.55222    106.15822    78.697383    25.134293    16.234517 
   12200    240.99468   -452.18342    181563.75   -13211.475    991.33594   -14202.811   -1023.5409    106.70289    78.698196    25.133514    16.189134 
   12400    238.46072   -184.33115    181563.75   -13167.456    980.91245   -14148.369   -45.302933    107.20757     78.69748    25.132207    16.200385 
   12600    246.22533   -314.38477    181563.75   -13145.681    1012.8523   -14158.533   -598.68317    109.07884    78.695959     25.13375    16.167929 
   12800    239.29031   -632.07046    181563.75   -13231.364    984.32495   -14215.689    -1679.915     111.3333    78.697523    25.132323    16.166508 
   13000    238.05085   -396.99585    181563.75   -13273.307    979.22645   -14252.533   -870.06211     111.0681    78.698558    25.138588    16.190187 
   13200    243.41691   -397.13496    181563.75    -13235.14    1001.2998    -14236.44   -806.75587    113.10385    78.699457    25.139977    16.204913 
   13400    247.51217   -164.31519    181563.75    -13201.27    1018.1457   -14219.416   -16.668005    112.24898    78.700083    25.136212    16.200228 
   13600    237.67727   -269.12715    181563.75    -13221.96     977.6897    -14199.65   -377.80699    113.71636    78.700313    25.139287    16.208996 
   13800    230.60878   -368.89496    181563.75   -13302.648    948.61333   -14251.261   -757.57688    115.07457    78.698031    25.138994    16.231997 
   14000    235.02066    -414.6959    181563.75    -13294.22     966.7617   -14260.982   -910.40924    117.82235    78.695683    25.138341    16.227424 
   14200    235.61867   -315.55982    181563.75   -13354.709    969.22159    -14323.93   -572.22863    119.04219    78.694909    25.140741    16.223236 
   14400    229.43927   -280.70335    181563.75   -13383.904    943.80256   -14327.707   -402.30903    120.81233    78.698367    25.139891     16.23223 
   14600    238.21495   -257.36318    181563.75   -13374.278    979.90147   -14354.179   -374.96857    120.92362    78.701694    25.139936     16.23113 
   14800     235.7063    -439.9741    181563.75   -13327.801    969.58206   -14297.383    -1014.607     121.6442    78.705283    25.138258    16.244944 
   15000     235.8067   -323.20865    181563.75   -13352.317    969.99506   -14322.312   -579.84607    122.42048    78.702076     25.14332    16.249681 
   15200    236.40604   -270.76983    181563.75   -13386.599    972.46045    -14359.06   -388.10682    123.10587    78.698391    25.147829     16.26199 
   15400    245.74494   -405.13905    181563.75   -13310.258    1010.8762   -14321.135   -870.40939    124.79877      78.6937    25.148672    16.280723 
   15600    238.04288   -260.60659    181563.75    -13363.45    979.19362   -14342.643     -426.995    124.48287    78.695568    25.146992    16.260562 
   15800    239.00441    -411.4183    181563.75   -13273.052     983.1489   -14256.201   -890.00361    125.65398    78.692991     25.14407    16.240756 
   16000    235.84584   -315.16184    181563.75   -13325.898     970.1561   -14296.054   -474.99806    126.89097    78.690124    25.141415    16.251614 
   16200    252.86612   -259.50892    181563.75   -13240.132    1040.1693   -14280.302   -324.33532    128.61835    78.689128    25.145382     16.25443 
   16400    243.03202   -477.05286    181563.75   -13240.595    999.71656   -14240.312    -1113.715    130.21869    78.688467    25.142565    16.254909 
   16600    241.69901   -440.73063    181563.75   -13301.332     994.2332   -14295.565   -1001.2863    132.43175    78.695535    25.138568    16.267575 
   16800     243.5848   -264.32052    181563.75   -13312.804    1001.9904   -14314.794   -342.26059    133.05037     78.69597      25.1382     16.25578 
   17000    240.41687   -440.99268    181563.75   -13312.176    988.95911   -14301.136   -982.17983    134.08048    78.696788    25.135936    16.245902 
   17200    240.01956   -320.79797    181563.75   -13294.797    987.32476   -14282.122   -623.83909    134.17113    78.697173     25.13542    16.258238 
   17400    235.99076   -334.20389    181563.75   -13262.102     970.7522   -14232.854   -681.28218    134.94919    78.698701    25.132251    16.249611 
   17600    245.70599   -355.07213    181563.75    -13220.27     1010.716   -14230.986   -729.72943    137.42725    78.698939     25.13136    16.236879 
   17800    248.36825   -277.14486    181563.75   -13252.361    1021.6672   -14274.028   -406.23442    138.07975    78.701647    25.128886    16.224717 
   18000    242.96981   -363.15889    181563.75   -13306.625    999.46065   -14306.086   -735.98108    138.17833    78.704232    25.126803    16.210782 
   18200    240.47531   -375.69171    181563.75   -13298.795    989.19947   -14287.994   -778.02647    138.55628    78.707752    25.125443    16.223836 
   18400    240.07899   -485.33246    181563.75   -13296.293    987.56923   -14283.862   -1219.6446    139.85642    78.709548    25.122098    16.212721 
   18600    248.25134   -498.93841    181563.75   -13263.811    1021.1863   -14284.997    -1205.622      142.518    78.711445    25.123926    16.237505 
   18800    231.01496   -188.62755    181563.75     -13267.9    950.28415   -14218.184   -90.155918    141.94376    78.714064    25.120113    16.242667 
   19000     239.4588   -430.41557    181563.75   -13266.243    985.01806   -14251.261    -970.6497    144.10482    78.713858    25.121483    16.241312 
   19200    240.01725   -317.43357    181563.75   -13256.563    987.31524   -14243.878   -577.87614    145.76242    78.714373    25.123874     16.24056 
   19400    245.19722     -382.714    181563.75   -13262.289    1008.6231   -14270.912   -804.40075    146.60908    78.713399    25.128843    16.227356 
   19600    239.58789   -264.42525    181563.75   -13337.612    985.54907   -14323.161   -322.31273    146.07973    78.709761    25.131089    16.257362 
   19800    231.44009   -351.33307    181563.75   -13288.255    952.03296   -14240.288   -659.70955    146.76083    78.709468    25.130777    16.274503 
   20000    236.11787   -277.87402    181563.75   -13307.809    971.27507   -14279.084   -436.11904    148.95207    78.708791    25.128947    16.269729 
   20200    235.11824   -463.05012    181563.75   -13308.561    967.16307   -14275.724   -1059.4016    150.49143    78.709065    25.127792     16.31016 
   20400    241.53539   -388.84579    181563.75   -13364.936    993.56014   -14358.496   -847.88556    152.89926    78.710243    25.129177    16.320102 
   20600    233.68267   -305.85477    181563.75    -13315.97    961.25786   -14277.228    -553.7019     153.7419    78.711337    25.125441    16.315166 
   20800    227.65479   -409.83558    181563.75   -13299.839    936.46204   -14236.301   -901.27186    155.24149    78.709992    25.124362    16.319601 
   21000     244.9883   -260.74044    181563.75   -13264.445    1007.7637   -14272.209    -356.4686    156.47811    78.709962    25.119071    16.313657 
   21200    245.51159   -437.90785    181563.75   -13281.462    1009.9163   -14291.378    -994.1638    156.68228    78.708377    25.117133    16.314853 
   21400    240.10978   -246.12058    181563.75   -13334.324    987.69587    -14322.02     -263.056    157.34107    78.709345    25.111928    16.329072 
   21600    233.97755   -408.17062    181563.75   -13275.245    962.47082   -14237.716   -863.57981    158.96639    78.709375    25.109231    16.329064 
   21800    244.91449   -383.14969    181563.75   -13264.012    1007.4601   -14271.473   -800.53667    160.59926    78.712913    25.106315    16.327105 
   22000    235.68871   -280.86113    181563.75    -13270.98    969.50972    -14240.49    -420.3801    160.81431    78.714757    25.102951    16.317582 
   22200    246.77659   -390.20626    181563.75   -13270.851    1015.1199   -14285.971   -822.77298     162.8206    78.716324    25.106862    16.316192 
   22400    243.90293   -240.32298    181563.75   -13299.195    1003.2991   -14302.494   -304.70331    161.91194    78.716954    25.111648    16.317005 
   22600    238.74627   -310.53472    181563.75   -13336.251    982.08705   -14318.338   -533.51654    163.62032    78.715226    25.112722    16.327505 
   22800    238.84493   -215.56088    181563.75   -13258.311    982.49288   -14240.803   -204.51305     164.8436    78.713186    25.112948    16.338232 
   23000    244.00033   -418.20571    181563.75    -13302.75    1003.6997    -14306.45   -914.56431    165.81994    78.712244    25.114659    16.328579 
   23200     239.2414   -337.35493    181563.75   -13306.357    984.12379   -14290.481   -628.09227    168.51175    78.714854    25.113249    16.320343 
   23400    241.70712   -237.87588    181563.75   -13285.635    994.26655   -14279.902   -292.14235    167.85177     78.71267    25.115059    16.342024 
   23600    242.28787   -261.64403    181563.75   -13338.658    996.65548   -14335.314   -365.43985    169.61081    78.710228    25.115613    16.354725 
   23800     228.9273   -233.21205    181563.75   -13361.219    941.69654   -14302.915   -282.18014    169.77668    78.707923    25.115608    16.332773 
   24000    238.71016   -294.34116    181563.75    -13300.72    981.93851   -14282.658   -497.52201    171.11902    78.707609    25.113996    16.304988 
   24200    245.09228   -357.38082    181563.75   -13288.004    1008.1915   -14296.195   -747.59654     172.1952    78.706864    25.116195    16.306954 
   24400    246.03827   -332.48765    181563.75   -13283.125    1012.0828   -14295.208   -573.63824     172.3369    78.708215    25.111909    16.307191 
   24600    240.13904   -546.19016    181563.75   -13301.544    987.81624   -14289.361   -1388.8181    172.84814    78.710205    25.110433    16.300624 
   24800    244.09951   -393.76788    181563.75   -13297.135    1004.1077   -14301.243   -851.06511    173.05813    78.708892     25.10903    16.314487 
   25000    236.98935   -385.41784    181563.75   -13308.625    974.85992   -14283.485    -788.3777    174.41988    78.709527    25.112398    16.313654 
   25200    238.00274   -341.24752    181563.75   -13285.406    979.02853   -14264.435   -591.89329    175.68273    78.705767    25.116389    16.317551 
   25400    233.23518   -563.61494    181563.75   -13318.262     959.4171   -14277.679   -1478.4417    178.66556    78.703548    25.115898    16.322495 
   25600    241.07329   -420.94394    181563.75   -13286.726    991.65929   -14278.385   -933.95808    178.20651    78.701708     25.11193    16.319233 
   25800      237.871   -454.31564    181563.75   -13307.509    978.48662   -14285.996   -1002.9127     179.4795    78.702152    25.110465    16.317156 
   26000    230.88308   -540.57801    181563.75   -13344.782    949.74168   -14294.523   -1339.1868    182.89877    78.700762    25.108393    16.343144 
   26200    235.85676   -346.79435    181563.75   -13293.612    970.20098   -14263.813   -653.32495    182.63955    78.699474    25.108614    16.341853 
   26400    232.79495   -368.72879    181563.75   -13350.834     957.6062    -14308.44   -736.73658    183.12557    78.698664    25.108355    16.331572 
   26600    240.06248   -367.83964    181563.75   -13332.777     987.5013   -14320.278   -758.00747    182.30491    78.695797    25.105794    16.342807 
   26800    239.76397   -669.27565    181563.75   -13274.652    986.27337   -14260.926   -1855.8495    185.16269    78.693284    25.101145    16.330218 
   27000     239.7021   -353.67902    181563.75   -13316.725    986.01887   -14302.744      -688.92    184.95413    78.688593    25.096982    16.310552 
   27200    242.43955   -263.38266    181563.75   -13280.695    997.27941   -14277.974   -320.98729     186.4838    78.689888    25.097802    16.306774 
   27400    250.61161   -128.31885    181563.75   -13266.587    1030.8953   -14297.482    93.131398    186.80922    78.690289    25.096291    16.288018 
   27600    238.98914   -393.39269    181563.75   -13318.637    983.08611   -14301.723   -884.64362    189.13533    78.694025    25.096522    16.267617 
   27800    234.11542   -201.39344    181563.75   -13419.231    963.03796   -14382.269   -192.71399    187.98981    78.697373    25.096346    16.288547 
   28000    235.49945   -524.57306    181563.75   -13365.539     968.7312    -14334.27   -1296.2752    189.23625    78.697604    25.096539     16.30888 
   28200    239.99511    -411.9247    181563.75   -13315.979    987.22417   -14303.203   -948.05288    188.15249    78.699166    25.097083    16.326384 
   28400    237.50917   -304.17423    181563.75   -13333.428     976.9982   -14310.426   -506.62287    188.42035    78.703436    25.102471    16.330235 
   28600    239.61023   -338.51714    181563.75   -13327.965    985.64098   -14313.606   -634.77942    189.54398     78.70279    25.104144    16.313901 
   28800    227.16022   -281.34651    181563.75   -13356.541    934.42761   -14290.968   -425.09934     190.7949    78.703363     25.10811    16.305145 
   29000    237.19738   -439.43933    181563.75   -13308.372    975.71568   -14284.088   -986.78088    190.97981    78.702359    25.108052    16.305486 
   29200    239.43309   -468.98578    181563.75   -13317.548    984.91227    -14302.46   -1141.9055    191.94716     78.70109    25.113245    16.333128 
   29400    232.47407   -437.99486    181563.75   -13316.491    956.28623   -14272.778   -984.55188    193.38598    78.698994    25.114359    16.332221 
   29600    240.22422     -343.824    181563.75   -13311.602    988.16661   -14299.768   -719.42371    193.14831    78.696848    25.117767    16.323165 
   29800     242.9471    -368.1841    181563.75   -13283.847    999.36723   -14283.215   -743.87389    193.55314    78.696346    25.123178    16.347932 
   30000    237.52072   -239.38981    181563.75   -13281.274    977.04572   -14258.319   -340.84869    194.09705    78.692912    25.123384    16.357361 
   30200    242.35837   -362.99696    181563.75    -13333.02    996.94548   -14329.965   -723.14268    196.03509    78.689991    25.121714    16.356351 
   30400    242.94221   -404.38943    181563.75   -13389.234    999.34713   -14388.581   -872.27398     198.6875    78.688275     25.12061    16.354592 
   30600    231.81391   -499.85174    181563.75   -13364.879    953.57065   -14318.449   -1230.6822    200.58985    78.691996    25.119876    16.366416 
   30800    241.29245   -310.89355    181563.75    -13319.98    992.56081   -14312.541   -544.02696    199.97379    78.691354    25.120656    16.367697 
   31000     238.0986   -257.21123    181563.75   -13318.916    979.42283   -14298.339   -346.78187    200.75996    78.690208     25.12115    16.350977 
   31200    247.44127   -494.91765    181563.75   -13267.198    1017.8541   -14285.052   -1233.4486    202.59111    78.688433    25.123751    16.359437 
   31400    245.21667   -525.26197    181563.75   -13287.416    1008.7031   -14296.119   -1299.3731    204.23144    78.692061    25.123225    16.335077 
   31600    246.61265   -297.49702    181563.75   -13259.018    1014.4455   -14273.464   -496.62007    206.25879    78.696149    25.122103    16.348485 
   31800    236.03705    -267.4357    181563.75   -13342.906    970.94262   -14313.849   -410.44262    206.39239    78.695711    25.122519    16.370838 
   32000    238.88275    -376.8695    181563.75   -13333.216    982.64845   -14315.865   -766.84173    207.39053    78.692377    25.124087    16.350605 
   32200    238.64064   -386.40583    181563.75   -13371.434    981.65254   -14353.087   -829.89443    207.11624    78.687497    25.124752    16.353336 
   32400    236.53281   -331.65082    181563.75   -13322.369    972.98196   -14295.351   -594.76373    208.68019    78.683328    25.130002    16.342781 
   32600    240.44883   -347.29066    181563.75   -13300.637    989.09055   -14289.728   -655.64863    209.23795    78.679752    25.132759    16.355212 
   32800    240.70547     -233.951    181563.75    -13326.61    990.14626   -14316.756   -291.66123     211.2057    78.678666    25.133232    16.351274 
   33000    240.53155   -323.16402    181563.75   -13296.189    989.43084    -14285.62   -602.85644    211.96718    78.680387    25.133243     16.37145 
   33200    238.14432   -370.67243    181563.75   -13294.717    979.61091   -14274.327   -755.60996    211.39421    78.678988    25.135021    16.399929 
   33400    233.62195   -489.50604    181563.75   -13306.481    961.00808   -14267.489   -1192.9763    212.38666    78.679917    25.131711    16.383095 
   33600    236.83091   -355.89721    181563.75   -13347.458    974.20819   -14321.666   -695.35788    213.05876    78.679124    25.127841    16.402435 
   33800    238.37355   -507.29847    181563.75    -13283.18    980.55384   -14263.734   -1243.6391    213.80542    78.678349    25.129035    16.408897 
   34000    239.80459   -365.27191    181563.75   -13278.832    986.44046   -14265.273   -746.60241    217.91501     78.67514    25.128706    16.393166 
   34200    236.28289   -187.55174    181563.75   -13305.209    971.95389   -14277.163   -84.351302    219.19592    78.673207    25.132365    16.362742 
   34400    239.82745   -318.42358    181563.75   -13305.302    986.53451   -14291.836   -579.31619    220.20132    78.675057     25.13516    16.365842 
   34600    234.42025   -345.05144    181563.75   -13286.174    964.29191   -14250.466   -580.77708    219.17265     78.67164    25.129117    16.377719 
   34800    239.99414   -483.89003    181563.75   -13254.711    987.22018   -14241.932   -1178.8398    219.14337    78.668886    25.131343     16.39296 
   35000    234.33153   -485.77847    181563.75   -13259.827    963.92692   -14223.754   -1178.2218     221.7839    78.668437    25.134195    16.353476 
   35200    246.75823   -276.05187    181563.75    -13251.14    1015.0444   -14266.185   -384.10838    223.06593    78.665319    25.135076    16.355072 
   35400    246.49009   -286.90544    181563.75   -13219.892    1013.9414   -14233.833   -445.19549      224.139    78.666786    25.140361    16.351164 
   35600    241.48985   -369.17873    181563.75   -13290.134    993.37281   -14283.506   -725.53608    225.92532    78.669032    25.143567    16.394933 
   35800    246.16022   -335.22297    181563.75   -13255.328    1012.5844   -14267.912   -576.79493    227.20416    78.663952    25.149318    16.391289 
   36000    239.26608   -460.31611    181563.75   -13302.293     984.2253   -14286.518   -1070.7959    229.04293    78.662202    25.154135     16.38566 
   36200    232.79019    -359.4591    181563.75   -13302.132     957.5866   -14259.719   -717.79071    229.95157    78.659228    25.154896    16.387924 
   36400    238.60891   -277.13333    181563.75   -13255.051    981.52203   -14236.573     -414.292    232.02585    78.659905    25.154245    16.366085 
   36600    237.01583   -357.96305    181563.75   -13334.419    974.96886   -14309.388   -707.14706    230.46204    78.654464    25.154397     16.37692 
   36800    234.27347   -391.16221    181563.75    -13360.57    963.68809   -14324.258   -875.14265    230.14044    78.650743    25.152817    16.399484 
   37000    240.75759    -373.3436    181563.75    -13305.41    990.36065   -14295.771   -747.76672    231.75006    78.650457    25.151395    16.411852 
   37200    237.97394   -241.47144    181563.75   -13363.748    978.91004   -14342.658   -261.89789    233.05009    78.645737    25.144732     16.39824 
   37400    237.42757   -537.67437    181563.75   -13306.292    976.66256   -14282.955   -1357.4776    235.50794    78.647373    25.143486    16.385495 
   37600    242.48154   -426.42056    181563.75   -13278.588    997.45216    -14276.04   -977.98929    237.47084    78.645967    25.145836    16.381883 
   37800    240.99799   -231.57051    181563.75   -13339.458    991.34952   -14330.808   -286.37333     237.1677      78.6438    25.141314     16.38092 
   38000    234.11987   -188.95181    181563.75   -13325.782    963.05626   -14288.838    -82.78473    238.26637    78.635821    25.139712     16.37148 
   38200    237.56358   -498.24377    181563.75   -13287.373    977.22203   -14264.595   -1236.2109    240.16972    78.633599    25.143872    16.374998 
   38400     242.6426   -336.06752    181563.75   -13280.105    998.11466   -14278.219    -603.0937    240.20524     78.62943    25.146294    16.376578 
   38600    239.73791   -172.45827    181563.75   -13323.449    986.16616   -14309.615   -27.108007    242.74819    78.630962    25.147712    16.346828 
   38800    239.39421   -273.30759    181563.75    -13302.39    984.75236   -14287.143    -412.5133    241.88777    78.634549    25.152953    16.355933 
   39000    238.82198   -353.25231    181563.75   -13225.747    982.39847   -14208.145   -695.35463    244.14644    78.635076    25.157935    16.339176 
   39200    235.78182   -300.88618    181563.75   -13326.293    969.89273   -14296.186   -532.56914    244.34999    78.639184    25.165984     16.33451 
   39400    244.08314   -310.52531    181563.75   -13278.941    1004.0403   -14282.982   -558.24694    248.03872    78.641803    25.168965    16.322679 
   39600    236.67545   -379.87709    181563.75   -13291.742    973.56868    -14265.31   -780.25852    247.38824    78.637665    25.169263    16.287224 
   39800    234.08715   -362.64832    181563.75   -13190.431    962.92166   -14153.353   -740.84485    248.85512    78.638407    25.168851    16.291973 
   40000      237.548   -312.41938    181563.75   -13282.017    977.15795   -14259.175   -545.94235    248.66825    78.638651    25.167879    16.281904 
   40200     231.2019   -487.31614    181563.75   -13341.285    951.05316   -14292.338   -1177.1664    252.64595    78.636016    25.164907    16.264181 
   40400    246.40899   -379.49548    181563.75   -13259.812    1013.6078    -14273.42   -762.16678    252.58933    78.640114    25.163277    16.254362 
   40600    230.62591   -173.96151    181563.75   -13394.729    948.68381   -14343.413    -80.20513    253.25833    78.640519    25.164692    16.275853 
   40800    244.46619   -345.87917    181563.75   -13307.717    1005.6161   -14313.333   -642.88535    255.10177    78.636156     25.17369    16.297581 
   41000    239.80186   -429.64138    181563.75   -13277.918    986.42925   -14264.347   -994.16824    255.08758    78.631567    25.172714    16.292288 
   41200    236.95103   -515.40302    181563.75   -13251.835    974.70228   -14226.537   -1251.7027     256.3014     78.62773    25.169847    16.307535 
   41400    233.30614   -286.12351    181563.75   -13246.068    959.70897   -14205.777   -450.92504    256.51176    78.627792    25.164727     16.30791 
   41600     245.4555   -480.96829    181563.75    -13206.22    1009.6856   -14215.906   -1146.3891    259.25361    78.625108    25.162733     16.32508 
   41800    234.96767   -285.95352    181563.75    -13276.91    966.54371   -14243.454   -482.80905    260.22393    78.624457    25.168756    16.359171 
   42000    240.82144   -374.48258    181563.75   -13283.456    990.62329   -14274.079    -776.5351     261.3181    78.627825    25.168912    16.361229 
   42200    242.09493   -357.75923    181563.75   -13280.683     995.8618   -14276.545   -684.61335    264.91638     78.62559    25.166369    16.355102 
   42400    239.76691   -418.18101    181563.75    -13334.43    986.28548   -14320.715   -925.41368    265.50303    78.625254    25.161867    16.310309 
   42600    240.03089   -388.08206    181563.75   -13300.329    987.37136     -14287.7   -838.35393    265.79214    78.625473    25.162794    16.315296 
   42800    241.10578   -423.45674    181563.75   -13272.263    991.79293   -14264.056   -932.83766    265.94606    78.626797    25.161825    16.306705 
   43000    238.74037   -491.73217    181563.75   -13248.237    982.06277   -14230.299   -1220.8668    267.16455    78.623797    25.160516    16.330049 
   43200    244.14444   -326.60425    181563.75    -13261.62    1004.2925   -14265.912   -574.19216    267.55275    78.623867    25.159314    16.324024 
   43400    237.28511   -426.43786    181563.75   -13277.409    976.07654   -14253.485   -957.32131    268.29957    78.621534    25.155117    16.315098 
   43600    234.49403   -372.66834    181563.75   -13303.644    964.59538    -14268.24   -788.37907    270.54014    78.619561    25.150235    16.294059 
   43800    243.03539   -449.27068    181563.75   -13263.096    999.73042   -14262.826   -1043.3949    269.93429    78.617847    25.152037    16.295112 
   44000    236.78381   -281.28477    181563.75   -13337.564    974.01445   -14311.578    -417.0535    268.48527    78.617944    25.150002    16.286974 
   44200    239.79978   -216.28102    181563.75   -13282.851    986.42067   -14269.272   -189.90793     270.7016    78.617004    25.149599    16.276084 
   44400    256.42725   -291.04988    181563.75   -13257.008    1054.8181   -14311.826   -477.97279    271.26406    78.620462    25.149339    16.309262 
   44600    240.66459   -238.39894    181563.75   -13319.984    989.97809   -14309.962    -298.8081    272.29886    78.618539    25.146078    16.333076 
   44800    244.38844   -386.25337    181563.75   -13304.581    1005.2962   -14309.877   -830.39567    272.56851    78.620648    25.138982    16.303126 
   45000    244.59286   -459.29684    181563.75   -13303.723    1006.1371    -14309.86      -1084.8    272.77325    78.622546    25.137162    16.322232 
   45200    253.92723   -226.67267    181563.75    -13220.72    1044.5342   -14265.254   -228.30226    274.34786    78.623648    25.139741    16.334416 
   45400    246.90994   -434.61654    181563.75   -13210.322    1015.6684    -14225.99   -963.49476    275.32833    78.624776     25.14189    16.318401 
   45600    242.69946   -374.09256    181563.75   -13232.489    998.34855   -14230.838    -788.4102    276.12022    78.625158    25.136853    16.338684 
   45800    232.83784   -438.53396    181563.75   -13284.961     957.7826   -14242.743   -958.57228    278.20697    78.624804    25.137017    16.330117 
   46000     232.5472   -222.98081    181563.75   -13247.994    956.58707   -14204.581   -246.66111    279.52875     78.62558    25.136072    16.364657 
   46200    244.66963   -311.04015    181563.75   -13246.834    1006.4529   -14253.287   -521.64085    281.00896    78.626907    25.133158    16.375428 
   46400    248.42611   -395.93863    181563.75   -13200.019    1021.9053   -14221.925   -856.43919    283.89786    78.629515    25.128059    16.391404 
   46600    240.19822   -191.35268    181563.75   -13238.098    988.05966   -14226.158   -161.62908    284.15647    78.632254     25.12249    16.384905 
   46800     247.5212   -476.39316    181563.75   -13222.512    1018.1829   -14240.695   -1169.4999    284.39962    78.630015    25.117096    16.379214 
   47000    253.82196    -338.9233    181563.75   -13239.634    1044.1012   -14283.736   -595.45065    284.64783    78.629812    25.114898    16.369131 
   47200    234.68385   -311.67016    181563.75   -13324.982    965.37621   -14290.358   -539.88828    286.47362    78.629723    25.114046    16.383852 
   47400    236.21855   -452.71844    181563.75   -13318.772    971.68921   -14290.461   -1063.6864    287.93373    78.628727    25.114648    16.375502 
   47600    236.53192   -425.02736    181563.75   -13301.819     972.9783   -14274.797   -957.40069    287.70728    78.631804    25.113898    16.346217 
   47800    240.23074   -418.64297    181563.75   -13293.353    988.19345   -14281.546   -933.17691    288.17548    78.634992    25.114612    16.329263 
   48000    233.46689   -376.28413    181563.75   -13298.231    960.37023   -14258.601   -789.04001    287.67479    78.635456    25.113335    16.306354 
   48200    245.33391   -249.63915    181563.75   -13287.745    1009.1854   -14296.931   -368.00907    291.14891      78.6329    25.110015    16.315178 
   48400    238.64826   -372.56947    181563.75   -13310.898    981.68388   -14292.582   -779.91572    290.89143    78.635526    25.110503    16.325648 
   48600    235.64301   -44.883934    181563.75   -13269.225    969.32172   -14238.547    398.68191    292.63378    78.638126    25.112628    16.342611 
   48800    241.71934   -315.94487    181563.75   -13287.476    994.31681   -14281.793   -588.24529    293.23002     78.63929    25.112066    16.307682 
   49000    243.95267   -275.28853    181563.75   -13251.596    1003.5037     -14255.1   -424.74579    294.79585    78.641143    25.111235    16.314345 
   49200       243.69   -322.49915    181563.75   -13255.444    1002.4232   -14257.867   -605.45861    295.03068    78.640699    25.107904    16.326045 
   49400    239.51797   -216.61351    181563.75   -13266.232    985.26143   -14251.494   -204.21342    296.51017    78.642875    25.109577    16.328169 
   49600    238.82219   -457.69926    181563.75   -13307.508    982.39933   -14289.907    -1064.615    296.29245    78.639084    25.110684    16.354305 
   49800    232.29914   -325.88467    181563.75   -13321.424    955.56668   -14276.991   -620.94208    298.10629    78.640733    25.112135    16.383711 
   50000    238.19879   -273.73399    181563.75   -13337.384    979.83497   -14317.219     -481.159    298.34466    78.641084    25.112483    16.401159 
   50200    240.82015   -354.06712    181563.75    -13271.06    990.61798   -14261.678   -701.50989    297.59834    78.644234    25.107683    16.385548 
   50400    245.95665   -334.03748    181563.75   -13298.003    1011.7471    -14309.75   -644.23908    298.67885    78.647241    25.102311    16.378067 
   50600    234.80899   -397.86477    181563.75   -13376.208    965.89097   -14342.099   -853.78437    297.34766    78.648764    25.098866    16.379591 
   50800    240.82904   -300.32314    181563.75   -13369.931    990.65457   -14360.585   -515.68479    298.92916    78.647107    25.100294    16.354935 
   51000    246.31337   -318.53933    181563.75   -13264.548    1013.2145   -14277.763   -632.00616    300.69067    78.648741    25.102985    16.384043 
   51200    234.35971   -530.51382    181563.75   -13350.873    964.04287   -14314.916   -1296.9456     303.4436    78.643955    25.104601    16.409384 
   51400    237.10422   -311.72971    181563.75   -13326.004    975.33244   -14301.336   -550.37515    301.47257    78.645277    25.107798    16.423659 
   51600    241.95018   -538.23003    181563.75   -13331.356     995.2664   -14326.623    -1321.437    303.95214     78.64983    25.112289    16.412032 
   51800     237.0322   -306.75116    181563.75   -13322.964    975.03619       -14298   -519.10844     306.1826    78.652414    25.112942    16.421684 
   52000       241.26   -304.26456    181563.75   -13340.359    992.42734   -14332.786   -467.18101    307.53164    78.654406    25.113218    16.425208 
   52200      238.818   -264.87416    181563.75   -13350.839    982.38209   -14333.221   -350.26792    309.63658    78.655171    25.107456    16.442105 
   52400    235.36321    -405.5543    181563.75   -13350.991    968.17078   -14319.162   -898.60561    305.91836    78.655928    25.109885    16.435402 
   52600    238.10458   -308.52524    181563.75    -13341.25    979.44746   -14320.698   -505.73717    305.95072    78.654247    25.109375    16.419983 
   52800    229.34112   -388.75168    181563.75   -13396.644    943.39878   -14340.043   -798.83959    306.43418    78.651775    25.106986    16.385357 
   53000    234.85508   -331.11273    181563.75   -13411.453    966.08055   -14377.534   -617.65095    307.82658    78.650224    25.108692    16.399547 
   53200    236.43327   -356.89634    181563.75   -13398.669    972.57249   -14371.241   -702.51687    308.27299    78.650982    25.102899    16.396639 
   53400    239.72196   -252.73237    181563.75     -13353.9    986.10057       -14340   -310.63862    308.55853     78.65354     25.10168    16.383151 
   53600    247.58264    -424.8278    181563.75   -13308.289    1018.4356   -14326.725   -1003.1556    310.66464    78.654388    25.099381    16.388861 
   53800    241.90145   -347.97376    181563.75   -13339.005    995.06592   -14334.071   -641.77929    310.60144    78.656181    25.094832    16.373465 
   54000    238.93656   -334.85234    181563.75   -13272.328     982.8698   -14255.198   -617.28181    313.41967    78.656109    25.090396    16.373277 
   54200    233.99411   -266.90092    181563.75   -13374.617    962.53895   -14337.156   -396.04843    313.45164    78.655279    25.092974    16.365676 
   54400    241.78103   -478.74285    181563.75   -13336.532     994.5706   -14331.103    -1108.864    313.90662    78.655477    25.097119    16.389889 
   54600    245.50543    -451.0019    181563.75   -13291.544     1009.891   -14301.435   -1024.3545    316.89813    78.654943    25.102955    16.395688 
   54800    248.79719   -334.36939    181563.75   -13261.783    1023.4317   -14285.214   -620.25744    318.20066    78.652956    25.105099    16.404175 
   55000    238.83364   -339.75434    181563.75   -13314.828    982.44643   -14297.274   -637.60131    318.47674    78.652163    25.109054    16.377369 
   55200    244.80347   -327.52732    181563.75   -13263.219    1007.0034   -14270.222    -630.4601    318.31897    78.654212    25.111827     16.37259 
   55400    238.22891    -349.5085    181563.75   -13233.581    979.95887    -14213.54   -656.89758    319.63064    78.657881     25.11087    16.364976 
   55600    238.15167   -233.04499    181563.75   -13252.437    979.64116   -14232.078   -271.84438    322.67817    78.658431    25.105349    16.370354 
   55800    232.15504   -495.70146    181563.75   -13308.845    954.97391   -14263.819   -1186.0318     324.3479    78.659836    25.112192    16.395904 
   56000     236.8672   -330.77305    181563.75   -13346.765    974.35744   -14321.122   -616.06957    326.79892    78.660487    25.117429    16.386586 
   56200    233.95914   -428.34154    181563.75   -13301.511    962.39512   -14263.907   -1010.7797    328.63427    78.661312    25.115529    16.394731 
   56400    240.27544   -433.62368    181563.75   -13323.849    988.37731   -14312.227   -1031.1814    328.97913    78.656699    25.115185    16.407364 
   56600    232.04706   -324.45954    181563.75   -13375.946    954.52972   -14330.476   -576.78186    327.28187    78.654496    25.114683    16.390979 
   56800    227.33218   -484.62191    181563.75   -13377.286      935.135   -14312.421   -1170.1602    329.42208    78.656775    25.113397    16.395738 
   57000    227.56904   -492.20607    181563.75   -13358.148    936.10932   -14294.258   -1207.9731     327.9976    78.656544    25.111322    16.401951 
   57200    235.51598   -375.72602    181563.75    -13338.56    968.79918   -14307.359   -754.71801     327.3037     78.65668    25.112598    16.398977 
   57400    233.55924   -334.91965    181563.75   -13294.485    960.75012   -14255.235   -632.46742    325.80268    78.655025    25.115686    16.404052 
   57600    243.96624   -240.76531    181563.75   -13232.042    1003.5595   -14235.601   -281.61005    325.50393    78.656019    25.116887    16.369775 
   57800     237.0219   -306.37259    181563.75   -13270.517    974.99382   -14245.511   -524.17423    327.60833     78.65684    25.117477    16.350857 
   58000    238.56271   -220.41715    181563.75   -13246.591    981.33197   -14227.923   -218.13311    329.85263    78.659015    25.117182    16.355948 
   58200    236.60814   -288.89347    181563.75   -13302.509    973.29183   -14275.801   -440.11843    332.00589    78.662972    25.115283    16.332242 
   58400    238.83372   -467.85442    181563.75   -13319.729    982.44678   -14302.175   -1065.5172    333.65958    78.662826    25.115925    16.356389 
   58600    238.32595   -358.66238    181563.75   -13302.575    980.35807   -14282.934   -733.94591    337.84378    78.665292    25.118386    16.356164 
   58800    235.19385    -274.1621    181563.75   -13289.618    967.47411   -14257.092   -382.42598    339.14695    78.665497    25.116199    16.372666 
   59000    240.67819   -588.79261    181563.75   -13296.231    990.03403   -14286.265   -1544.7956    342.48649    78.661248    25.114834    16.388798 
   59200    239.23738   -459.06899    181563.75     -13294.6    984.10724   -14278.707   -1072.8439    343.36776    78.656976    25.120356    16.372953 
   59400    248.52011   -140.78261    181563.75   -13301.262    1022.2919   -14323.554    74.651051    345.58284      78.6576    25.120139    16.384196 
   59600     250.2335    -343.4369    181563.75   -13256.837      1029.34   -14286.177   -704.07729    344.68008    78.656106    25.117881    16.359858 
   59800    236.60435    -405.4599    181563.75   -13271.571    973.27621   -14244.847   -875.01527    345.74646    78.657784    25.118087    16.381069 
   60000    234.79481   -416.44778    181563.75   -13318.824    965.83263   -14284.656    -893.5825    346.31467    78.657009    25.119488    16.389703 
   60200    240.39354   -466.70762    181563.75   -13261.934    988.86312   -14250.797   -1103.3704    348.53793    78.658868    25.120662    16.410476 
   60400    236.97108   -306.39287    181563.75   -13317.094    974.78478   -14291.879   -551.82124    351.61639     78.65378    25.119652    16.430563 
   60600    238.19883   -435.19061    181563.75   -13298.018    979.83516   -14277.853   -1047.4287    352.42375    78.649683    25.117654    16.416295 
   60800    237.53039   -245.49116    181563.75     -13305.7    977.08551   -14282.785   -287.80504    350.61677     78.64762    25.117137    16.405991 
   61000    234.69093   -288.76851    181563.75   -13329.114    965.40533   -14294.519   -454.14209    353.71891    78.646347    25.117233    16.405633 
   61200      237.539   -442.51631    181563.75    -13303.78    977.12091   -14280.901   -1007.5823    356.82554    78.646608    25.120651    16.407466 
   61400    238.25389   -337.22963    181563.75   -13283.301    980.06164   -14263.363   -661.82134     356.7137    78.643897    25.116928     16.38162 
   61600    242.67944   -366.75488    181563.75   -13263.509    998.26621   -14261.775   -728.23431    355.75409     78.63971    25.117257    16.373682 
   61800    238.26298   -395.32343    181563.75   -13248.465    980.09903   -14228.564   -846.44185    356.94076    78.639647    25.118448    16.367993 
   62000    237.04943   -280.66738    181563.75   -13276.945    975.10706   -14252.052   -439.61344    360.76527    78.642904    25.118088    16.409124 
   62200    242.29226   -302.91304    181563.75   -13213.529    996.67356   -14210.203   -522.59554    361.24539    78.646786     25.11694    16.405703 
   62400    239.53677   -333.94041    181563.75   -13182.465    985.33878   -14167.804   -649.10507    363.40772    78.645313    25.119543    16.403248 
   62600    235.93941   -382.31434    181563.75   -13305.203    970.54099   -14275.744   -882.49523    365.17137    78.646773    25.120195    16.409432 
   62800    237.94149   -465.88288    181563.75   -13298.291    978.77657   -14277.068   -1099.1596    365.57648    78.649418    25.118609    16.416869 
   63000    240.54761   -302.00823    181563.75   -13274.879    989.49688   -14264.376   -532.86785    364.67818    78.648752     25.11942    16.399098 
   63200    234.61742   -405.42204    181563.75   -13332.962    965.10293   -14298.065   -894.06301    365.09644    78.649991    25.123174    16.404515 
   63400     239.7895   -379.31788    181563.75   -13279.958     986.3784   -14266.337   -731.16199    365.67185    78.655305    25.125497    16.424999 
   63600    248.57841   -221.45779    181563.75   -13214.004    1022.5317   -14236.536   -240.75242    365.81444     78.65727    25.123236    16.416087 
   63800    239.54329   -448.23213    181563.75   -13256.094     985.3656   -14241.459   -1019.2737     365.1485    78.658887    25.124895    16.388226 
   64000    241.27114   -511.48286    181563.75   -13286.129    992.47315   -14278.602    -1326.587    365.74669    78.660106    25.127553    16.408746 
   64200    237.79494   -463.90652    181563.75   -13257.766    978.17374    -14235.94   -1083.6805     368.9671    78.661771    25.127964     16.40095 
   64400    244.90319   -339.35986    181563.75   -13237.812    1007.4136   -14245.226   -588.48943    367.71981    78.662349    25.129644    16.370771 
   64600    243.99308   -269.33715    181563.75   -13259.593    1003.6699   -14263.263   -386.19811    367.49657    78.666557    25.130683    16.366225 
   64800    242.47574   -334.11863    181563.75   -13259.715    997.42831   -14257.143   -667.48915    368.08635    78.673102    25.128354    16.332089 
   65000    231.86946   -348.40609    181563.75   -13332.171    953.79917    -14285.97   -679.19266    368.35403    78.676436    25.128786    16.321476 
   65200    238.93409   -361.87438    181563.75   -13330.111    982.85963   -14312.971   -762.03617    368.17638    78.674207     25.12996    16.337214 
   65400    255.71405   -275.43143    181563.75   -13184.094    1051.8843   -14235.979   -411.46975    372.10558    78.671336    25.133413    16.333068 
   65600    238.40437   -350.02277    181563.75   -13238.146    980.68062   -14218.826   -683.63532    371.53541    78.674999    25.137882    16.346842 
   65800    248.52825    -350.4585    181563.75   -13209.926    1022.3254   -14232.252   -689.85932    368.43418    78.672218    25.140553    16.302503 
   66000    241.39368   -182.47997    181563.75    -13280.36    992.97722   -14273.338   -90.012309    369.27417    78.670977    25.140571    16.290618 
   66200    240.38729   -276.53827    181563.75   -13273.475     988.8374   -14262.312   -415.46247    369.84989    78.669558    25.138664    16.279226 
   66400     239.7492   -440.96002    181563.75   -13347.939    986.21262   -14334.152   -1027.7544    369.45708    78.668135    25.136007    16.263181 
   66600    239.79459    -342.3491    181563.75   -13318.448    986.39932   -14304.847   -656.94823    369.59528    78.666232    25.137424    16.273261 
   66800    242.11423   -214.13316    181563.75   -13326.367    995.94122   -14322.308   -169.29019    370.92991    78.665637    25.135865     16.27826 
   67000     231.5928   -258.63146    181563.75   -13363.436    952.66113   -14316.097   -362.90004     372.3767    78.663569    25.128239    16.261852 
   67200    231.58116    -288.4743    181563.75   -13350.359    952.61324   -14302.972   -464.99453    372.20629    78.665591    25.127924    16.278351 
   67400    235.96833    -249.1986    181563.75   -13296.898    970.65995   -14267.558   -360.46114    370.71361    78.664295    25.129242    16.273379 
   67600    229.89335   -335.45437    181563.75    -13310.86    945.67041   -14256.531   -650.26172    372.60619    78.663501    25.130574    16.247554 
   67800    243.04447   -175.05838    181563.75   -13305.187    999.76775   -14304.955   -100.22108    374.71891    78.663023    25.131223    16.284856 
   68000    243.72652   -486.95927    181563.75   -13318.372    1002.5734   -14320.946   -1173.7571    377.22143    78.661931    25.132016    16.304721 
   68200    244.04227   -283.91477    181563.75   -13302.536    1003.8722   -14306.408   -509.04142    377.70074     78.66065    25.129553    16.328004 
   68400    237.09292    -290.8963    181563.75    -13248.04    975.28596   -14223.326   -466.44388    379.66123    78.660387    25.128147    16.328941 
   68600    244.06904   -300.43573    181563.75   -13304.425    1003.9823   -14308.408   -499.92533    379.14689    78.660517    25.130226    16.333121 
   68800    236.89516   -344.69072    181563.75   -13243.391    974.47249   -14217.863   -684.37858    381.95608    78.655365    25.133356    16.319825 
   69000    239.71865   -395.52758    181563.75   -13217.665    986.08694   -14203.752   -832.23923     385.0643    78.652286    25.134437    16.299825 
   69200    238.14659   -331.42346    181563.75   -13255.853    979.62026   -14235.474   -595.13686    384.46145    78.650909    25.132711    16.315001 
   69400    240.98241   -494.63778    181563.75   -13324.664    991.28546   -14315.949   -1188.8865    384.52461    78.650239     25.13375    16.329893 
   69600    243.04148   -355.41186    181563.75   -13258.202    999.75546   -14257.958   -736.49548    385.44925    78.647284    25.133933    16.352329 
   69800    243.78443   -400.23404    181563.75   -13305.561    1002.8116   -14308.372   -859.31472    385.52399    78.646529    25.137407    16.357911 
   70000    239.71499   -193.12633    181563.75   -13347.301    986.07189   -14333.373    -153.8829    385.06051    78.646555    25.134875    16.367277 
   70200    234.10205   -490.55518    181563.75   -13334.028    962.98295   -14297.011   -1159.2544    388.50852    78.645919    25.134703    16.336974 
   70400    239.50311   -487.84019    181563.75   -13306.671    985.20034   -14291.871   -1179.4658    389.39758    78.645834    25.132871    16.326391 
   70600    240.11533   -467.40037    181563.75   -13294.851    987.71872    -14282.57   -1109.7155    391.00351     78.64462    25.133875    16.327099 
   70800    235.36044   -247.07357    181563.75   -13323.413    968.15939   -14291.572   -339.49453    388.28443    78.645943    25.131753    16.291997 
   71000    243.34564   -283.59601    181563.75   -13262.386    1001.0066   -14263.392    -422.5853    390.08107    78.650739    25.133527    16.305891 
   71200    244.24906   -429.82088    181563.75   -13157.151    1004.7229   -14161.874   -990.70189    392.82307    78.654739    25.134311    16.295638 
   71400    237.26041   -554.00353    181563.75   -13257.606    975.97495    -14233.58   -1405.3141    393.10692    78.659848    25.136329       16.285 
   71600    235.53306   -168.71319    181563.75   -13279.407    968.86946   -14248.277   -41.325201     393.0517    78.662371    25.136341    16.285459 
   71800     240.0407    -402.1593    181563.75   -13296.327     987.4117   -14283.739    -896.9918     394.4828    78.664143    25.139116    16.314117 
   72000     241.4891   -549.82638    181563.75   -13259.517    993.36975   -14252.887   -1400.3639    397.56338    78.665566    25.141511    16.324725 
   72200    238.20678   -197.09324    181563.75   -13277.938    979.86785   -14257.806   -156.43329    396.59637    78.667699    25.145472    16.345565 
   72400    235.14015    -496.3397    181563.75   -13253.553    967.25321   -14220.806   -1205.6982    400.54809    78.667676    25.150069    16.335033 
   72600    239.92448   -477.08158    181563.75   -13234.754    986.93365   -14221.688   -1127.7591    401.10447    78.668453    25.151916    16.311805 
   72800    235.56821    -246.4491    181563.75   -13294.424    969.01406   -14263.438   -254.00722     400.8132    78.670771    25.150581       16.292 
   73000    235.58753   -359.90761    181563.75   -13254.242    969.09352   -14223.335    -720.6707    404.16971    78.673068    25.152257    16.276175 
   73200    246.80707   -464.72169    181563.75     -13201.2    1015.2453   -14216.446   -1065.3872    403.52968     78.67713    25.153329     16.29974 
   73400    237.21496   -280.49735    181563.75   -13266.946    975.78799   -14242.734   -433.99442    404.94926    78.679431     25.15409    16.291824 
   73600    242.10232    -301.0662    181563.75   -13255.021    995.89222   -14250.913    -504.4065    407.50254    78.681554    25.153809    16.281345 
   73800    242.68564   -382.33763    181563.75   -13199.746    998.29172   -14198.038   -812.28723    408.87763    78.683029    25.152741    16.270814 
   74000    242.64457   -360.78119    181563.75   -13225.646    998.12278   -14223.769   -734.82802    408.62712    78.682196    25.148332    16.284578 
   74200    242.14386   -527.41875    181563.75   -13225.087    996.06308    -14221.15   -1278.8609    411.68668    78.683205     25.14684    16.282799 
   74400    244.75015   -245.00695    181563.75   -13253.888    1006.7841   -14260.672   -297.06208    411.58568    78.686815    25.144459    16.276938 
   74600    246.40231   -527.76639    181563.75   -13278.067    1013.5803   -14291.647   -1328.9152    412.71575    78.689176    25.144613    16.286125 
   74800     237.5241   -546.03956    181563.75   -13259.648    977.05965   -14236.708   -1398.8941    413.68584    78.691633    25.144839    16.305452 
   75000    238.02594   -301.93674    181563.75   -13270.077    979.12397   -14249.201   -486.46395    412.50678     78.69789    25.147733    16.280173 
   75200    241.40095   -384.16262    181563.75   -13282.342    993.00713   -14275.349   -783.94082    415.63879    78.700337    25.148621    16.266825 
   75400    245.22938   -307.55273    181563.75   -13246.339    1008.7554   -14255.094   -584.54161     417.4104    78.700768    25.146788    16.246235 
   75600     234.8072   -246.30437    181563.75   -13310.889    965.88361   -14276.773   -305.81534    417.28445    78.701554    25.146191    16.245698 
   75800    236.74076   -204.48782    181563.75   -13305.054    973.83733   -14278.891   -216.36485    418.65429    78.701161    25.147039    16.257912 
   76000    229.31176   -372.41801    181563.75   -13312.569    943.27802   -14255.848   -758.62051    420.01118    78.699493    25.147588    16.269209 
   76200    229.53512    -243.6556    181563.75   -13321.693     944.1968    -14265.89   -300.82858    420.52583    78.696174    25.151003    16.265046 
   76400      237.753   -324.40424    181563.75   -13326.836    978.00122   -14304.837   -566.10136    418.88728    78.694413    25.149705    16.289566 
   76600    241.98255   -396.81716    181563.75   -13285.937    995.39954   -14281.337   -847.06445    419.37534    78.692631    25.142162    16.286521 
   76800      246.359   -278.02135    181563.75   -13247.145    1013.4022   -14260.547   -416.79148    418.79585    78.695834    25.138297      16.3216 
   77000    241.20855   -519.97317    181563.75   -13287.415    992.21567   -14279.631   -1302.1981    418.82714    78.698044    25.137765    16.339912 
   77200    243.64317   -468.00576    181563.75   -13258.522    1002.2305   -14260.752   -1081.0148    421.32828    78.694617    25.138638    16.348157 
   77400      237.763   -409.06997    181563.75   -13247.109    978.04236   -14225.151   -867.36942    423.63556    78.696446    25.137652    16.317413 
   77600    244.93506   -200.96104    181563.75   -13281.642    1007.5448   -14289.187   -188.15999    423.03314    78.698988    25.137471    16.299598 
   77800    240.04417   -336.54343    181563.75   -13265.763    987.42598   -14253.189     -644.639    424.48246     78.70277    25.138397    16.319451 
   78000    231.46559    -164.9019    181563.75   -13340.437    952.13786   -14292.575   -56.842339    425.82283     78.70543    25.140595    16.308661 
   78200    235.35897   -548.26481    181563.75   -13252.702    968.15331   -14220.855   -1397.0579    425.95141    78.704677    25.141202    16.306469 
   78400    242.32438   -310.58969    181563.75   -13268.695    996.80566   -14265.501   -554.01231    426.75526    78.703211    25.141629    16.293722 
   78600    233.07353   -279.56568    181563.75   -13333.242    958.75211   -14291.994   -444.81302    428.73635    78.706304    25.144566    16.297376 
   78800    234.93304   -462.62893    181563.75    -13314.31    966.40125   -14280.712   -1080.3169    430.62323    78.704564    25.143942    16.285595 
   79000    243.19319   -412.26023    181563.75   -13257.794    1000.3795   -14258.173   -897.36867      430.342    78.705297     25.14435    16.270021 
   79200     237.7043   -181.88471    181563.75   -13229.934    977.80089   -14207.735   -91.939549    432.97105    78.707209    25.142825    16.294448 
   79400    239.36621   -371.73587    181563.75   -13307.921    984.63719   -14292.558   -727.07357    434.39693    78.709318    25.144901     16.30274 
   79600    237.11954   -284.03707    181563.75   -13282.144    975.39547   -14257.539   -423.65029    435.81929    78.709975    25.145365    16.314661 
   79800    230.53515    -206.3242    181563.75   -13290.046    948.31044   -14238.357   -158.76661    436.60307    78.711675    25.147726    16.341492 
   80000    236.64992    -522.5917    181563.75   -13300.428    973.46366   -14273.892   -1296.2411    438.86699    78.713415    25.154493    16.350466 
   80200     249.2924   -483.71641    181563.75   -13273.653    1025.4688   -14299.122   -1136.5322     440.6629      78.7088    25.150376    16.361384 
   80400    239.59358   -311.22245    181563.75   -13302.838    985.57248   -14288.411   -532.95348    443.04626    78.706046     25.14715    16.369884 
   80600    247.43363   -497.45552    181563.75   -13233.023    1017.8227   -14250.846   -1204.2541    444.31848    78.705477     25.14556    16.344823 
   80800    243.81433   -337.02901    181563.75   -13289.645    1002.9346   -14292.579   -600.23923    444.44789    78.703643    25.145856    16.327353 
   81000    249.22052   -422.11213    181563.75   -13210.981    1025.1731   -14236.154   -958.49458    444.48216     78.70651    25.145949    16.345582 
   81200    241.19796   -375.66414    181563.75   -13259.381    992.17212   -14251.553   -774.24498     446.7445    78.707887    25.143258    16.370408 
   81400     237.4155   -529.34701    181563.75   -13283.736    976.61291   -14260.349   -1327.0464    453.04561    78.707485    25.141365    16.364752 
   81600    240.02158   -489.77158    181563.75   -13261.562    987.33307   -14248.896   -1199.5424    458.82851    78.708465    25.144595    16.365578 
   81800    241.74379   -373.59584    181563.75   -13239.184     994.4174   -14233.601   -784.93225    458.99696    78.713461    25.141788    16.383731 
   82000    242.48135   -329.54694    181563.75   -13226.118    997.45138    -14223.57    -620.9067     457.0597    78.715964    25.142141    16.368264 
   82200    240.27247   -323.93951    181563.75   -13248.142     988.3651   -14236.507   -578.31089    456.18053    78.716153    25.141906    16.362953 
   82400    245.12465   -385.00741    181563.75   -13292.435    1008.3246    -14300.76   -785.83639    453.97408    78.714893    25.139738    16.320773 
   82600    242.46779   -428.24152    181563.75   -13303.884    997.39557   -14301.279   -961.17005    452.52778    78.714553    25.141712    16.337356 
   82800    244.41137   -337.71876    181563.75   -13279.125    1005.3906   -14284.516   -624.45118    451.90076    78.714797    25.141936    16.318162 
   83000    240.14964   -427.70436    181563.75   -13270.959    987.85985   -14258.819   -1011.2969    452.75006    78.715895     25.14471    16.327996 
   83200    241.13548   -155.50842    181563.75   -13283.207    991.91509   -14275.122   -8.7453302    453.36514    78.714875     25.14411    16.317499 
   83400    241.26904   -428.54373    181563.75   -13317.238     992.4645   -14309.702   -990.95057    455.60268    78.713561    25.146449    16.289029 
   83600    234.76324   -366.40792    181563.75   -13255.966     965.7028   -14221.669   -758.15811    455.13069    78.710372    25.149899    16.296744 
   83800    242.40388    -474.7029    181563.75   -13337.837    997.13271   -14334.969   -1102.5507    456.04083    78.713072    25.149183     16.31251 
   84000    232.72029   -241.74892    181563.75   -13322.578    957.29909   -14279.877   -279.94898    456.78113    78.711046    25.150061    16.303987 
   84200    234.38005   -433.67647    181563.75   -13337.475    964.12652   -14301.602   -986.59497     459.0443    78.709622    25.152645    16.305947 
   84400    241.48375   -349.67154    181563.75   -13321.696    993.34771   -14315.044   -661.14505    462.45384     78.71019    25.155164    16.326366 
   84600    243.07333   -320.88118    181563.75   -13293.013     999.8865   -14292.899   -591.50564    465.58625    78.711097    25.153941    16.306558 
   84800    238.19303   -343.26041    181563.75   -13326.991    979.81129   -14306.802   -676.60771    464.68731    78.713126     25.15421    16.283796 
   85000    242.91421   -481.92957    181563.75   -13362.327    999.23195   -14361.559   -1169.6922    465.84894    78.712407    25.155568    16.261034 
   85200     245.9674   -321.82092    181563.75   -13239.873    1011.7913   -14251.664   -573.93638    469.64332    78.708742    25.153977    16.282604 
   85400    240.11064    -363.6234    181563.75   -13300.601    987.69941   -14288.301   -692.53984    471.86201    78.708616    25.154133    16.295753 
   85600     239.7139   -387.78098    181563.75   -13330.194     986.0674   -14316.261   -850.64922    473.40244     78.71025    25.158339    16.290221 
   85800    241.52897    -418.9594    181563.75   -13285.337    993.53375    -14278.87   -861.87776    475.73276    78.713506    25.158736    16.271642 
   86000    242.33004   -306.03672    181563.75   -13286.338    996.82897   -14283.167   -557.76416     474.6479    78.713097    25.161991    16.271851 
   86200    245.00571   -405.45488    181563.75   -13318.961    1007.8354   -14326.797    -833.9812    477.35526    78.712475    25.162315    16.265311 
   86400    246.26061   -265.68381    181563.75   -13328.274    1012.9974   -14341.272   -357.05952    475.80134    78.711482    25.159574    16.286712 
   86600    239.77109   -293.04429    181563.75   -13327.923    986.30266   -14314.226   -497.72022    475.49297    78.708913    25.157031    16.276415 
   86800    239.27787   -391.84168    181563.75   -13345.528    984.27378   -14329.802   -842.46691    476.79216     78.70825     25.15777    16.279714 
   87000     228.4172    -410.4369    181563.75   -13395.622    939.59821    -14335.22   -869.73919    480.50126    78.711706    25.157151    16.294566 
   87200    244.03894   -392.02695    181563.75   -13347.478    1003.8585   -14351.336   -820.19956     479.0801    78.714196     25.15844    16.293269 
   87400    228.79253   -321.18575    181563.75   -13318.478    941.14215    -14259.62   -610.58109    476.65663    78.714684    25.163449    16.314197 
   87600    243.94163   -379.25814    181563.75   -13286.568    1003.4583   -14290.026   -808.91561    477.49623    78.718352    25.169498    16.313176 
   87800    242.49131   -316.13312    181563.75    -13331.89    997.49234   -14329.382   -583.33294    480.29567    78.725477    25.174274    16.316319 
   88000    243.08513   -378.58986    181563.75   -13270.535    999.93501    -14270.47   -793.60712       483.99    78.729594    25.175894    16.318607 
   88200    246.74005   -355.45866    181563.75    -13277.71    1014.9696   -14292.679    -691.5458    484.47858    78.729425    25.183227     16.30215 
   88400    244.32555   -405.88659    181563.75    -13293.43    1005.0375   -14298.467   -831.08476    486.89706    78.729979    25.186581       16.312 
   88600    238.46822   -466.90299    181563.75   -13364.655    980.94329   -14345.598   -1085.6289    485.41234    78.734527    25.189582    16.289112 
   88800    235.44495   -424.36635    181563.75   -13406.051    968.50699   -14374.558   -943.42545    482.69088    78.737754    25.193747    16.302938 
   89000    235.14511   -319.20604    181563.75   -13401.773    967.27359   -14369.046   -541.82243    486.73235    78.739275    25.196584     16.30354 
   89200    234.49652   -284.00458    181563.75   -13404.502    964.60563   -14369.107   -423.97135    485.93417    78.740246    25.195962    16.288989 
   89400    242.88965   -417.05741    181563.75   -13364.236    999.13091   -14363.367   -897.42458    487.32772    78.744026    25.196369    16.285617 
   89600    236.49806    -400.6662    181563.75   -13409.918    972.83898   -14382.757    -878.3799    486.31914    78.741635    25.194521    16.279769 
   89800    242.07577   -464.85814    181563.75   -13323.552    995.78299   -14319.335   -1087.0033    488.71977      78.7443    25.196425    16.292643 
   90000      239.923   -481.84439    181563.75   -13277.997    986.92754   -14264.925   -1114.7887    493.55104    78.744881    25.196432    16.309073 
   90200    235.71061   -448.66529    181563.75   -13356.643     969.5998   -14326.243    -1057.064    496.43821     78.74678    25.196894    16.325497 
   90400    238.17811   -299.03093    181563.75   -13402.027     979.7499   -14381.777   -473.93469    497.26167    78.749158    25.202053    16.334286 
   90600    244.16182   -273.44435    181563.75   -13310.864     1004.364   -14315.228   -445.99263    497.26954    78.751934     25.20356    16.312323 
   90800    234.85553   -167.37405    181563.75   -13304.912    966.08243   -14270.994   -41.070903    496.54372    78.753375    25.205901    16.321131 
   91000    240.98549    -385.0352    181563.75   -13327.805     991.2981   -14319.103   -761.55401    499.87753    78.753453    25.204058    16.334501 
   91200    240.90824   -234.54688    181563.75   -13328.165    990.98037   -14319.146    -227.9252    500.93862    78.752566    25.205108    16.333787 
   91400    238.57368    -452.0629    181563.75   -13372.276    981.37711   -14353.653   -1072.6172    500.53151     78.75207    25.208278     16.29876 
   91600    239.93795   -233.56813    181563.75    -13270.79    986.98905   -14257.779   -254.21238    496.46889    78.750624    25.208734    16.309489 
   91800    240.31864   -544.93583    181563.75   -13288.675    988.55501    -14277.23   -1332.9733    501.21573    78.750593    25.208095    16.286533 
   92000    239.94243   -437.10272    181563.75   -13292.172    987.00747   -14279.179   -1002.0703    506.27318    78.753459    25.211859    16.320358 
   92200    241.27865   -254.73787    181563.75   -13272.641    992.50402   -14265.145   -334.52555    507.44756    78.755621    25.212357    16.323585 
   92400    246.62495   -412.97346    181563.75   -13207.001    1014.4961   -14221.497   -890.69008    511.80116    78.760275    25.214572    16.319148 
   92600    246.41514   -381.15406    181563.75   -13277.396    1013.6331   -14291.029   -791.66286    510.76516    78.762631    25.214604    16.310965 
   92800    242.19475   -324.42416    181563.75   -13317.219    996.27245   -14313.491   -527.83687    512.89506    78.759601    25.216784    16.335399 
   93000    234.42114   -409.38012    181563.75   -13337.456    964.29553   -14301.752    -914.6413    515.47214     78.75718    25.217152    16.334831 
   93200    238.61973   -444.42023    181563.75   -13327.423    981.56653    -14308.99   -1006.9387    515.86628    78.759749    25.214183     16.32561 
   93400    239.91441   -265.67575    181563.75   -13357.768    986.89221    -14344.66   -382.58432    515.21573    78.758783    25.214141    16.324064 
   93600    241.72504   -230.21279    181563.75   -13316.627    994.34026   -14310.967   -247.05457    513.45391    78.761336    25.213183    16.365003 
   93800    242.67046    -319.1595    181563.75   -13251.157    998.22928   -14249.386   -542.16776    512.94905    78.759587    25.216073    16.355291 
   94000    241.89823   -405.69199    181563.75   -13299.895     995.0527   -14294.948    -833.8598     511.7215    78.762193    25.218698    16.361429 
   94200    253.85089   -290.89437    181563.75   -13231.741    1044.2202   -14275.961    -477.1899    509.75153    78.763744    25.222934    16.362923 
   94400    250.07189   -420.99853    181563.75   -13238.906    1028.6752   -14267.582   -905.54872    511.88049    78.762972    25.230657    16.352875 
   94600    247.28021   -220.30298    181563.75   -13235.097    1017.1915   -14252.288   -174.68033     516.1276    78.762736    25.234067    16.346613 
   94800    248.12313   -200.22788    181563.75   -13235.327    1020.6589   -14255.986   -124.20851    520.02777    78.764063    25.233602    16.323476 
   95000    229.31678   -309.58695    181563.75   -13333.374    943.29866   -14276.673   -506.46147    519.94042    78.765242    25.230309    16.325299 
   95200    230.31106    -422.5006    181563.75   -13319.965    947.38867   -14267.354   -961.80748    519.01426    78.763194    25.227555    16.346645 
   95400     238.9045   -399.01327    181563.75   -13293.742    982.73793    -14276.48   -908.56961    518.14967    78.762783    25.224304    16.349766 
   95600    241.77082   -333.09563    181563.75   -13297.595    994.52858   -14292.124    -650.4591    521.01042    78.761577    25.220829    16.346364 
   95800    243.31289   -299.80631    181563.75   -13328.728    1000.8719     -14329.6    -499.9359    525.61627     78.75796    25.223151    16.361706 
   96000    242.28904   -500.26152    181563.75   -13348.697    996.66029   -14345.357   -1244.3069    528.47893    78.754051    25.221116    16.354797 
   96200    241.96225   -363.73979    181563.75   -13363.884    995.31603     -14359.2   -740.31792    528.80085    78.753397    25.221502    16.311989 
   96400    235.19861    -455.1625    181563.75   -13335.139    967.49368   -14302.632   -1076.4714    531.40827    78.754959    25.223046    16.325979 
   96600    235.35619   -425.83277    181563.75   -13352.487     968.1419   -14320.629   -974.20335    529.50093    78.754139    25.224999    16.352952 
   96800    248.62898   -351.99685    181563.75   -13259.123    1022.7398   -14281.862   -705.96539    530.12791    78.752704    25.231048    16.331449 
   97000    247.80514   -351.97155    181563.75   -13265.571    1019.3509   -14284.922   -703.55702    532.46509    78.757639    25.232172      16.3387 
   97200    240.97394   -300.04821    181563.75     -13228.4    991.25059   -14219.651     -517.471    532.47862    78.760753    25.231404    16.354581 
   97400     232.6753   -320.53673    181563.75   -13344.585    957.11402   -14301.699   -572.79502    533.45312     78.76091    25.234454    16.353864 
   97600    243.88383   -347.50034    181563.75   -13310.632    1003.2205   -14313.852   -669.83438    533.26266     78.75877    25.235392    16.352253 
   97800    238.79159   -290.19343    181563.75   -13330.796    982.27348    -14313.07   -497.15999    532.42129    78.761022    25.231422    16.362494 
   98000    227.16521    -345.8829    181563.75   -13376.156    934.44815   -14310.604   -629.34045    533.99509    78.762647    25.223942    16.358919 
   98200    242.40302   -182.99725    181563.75   -13372.167    997.12917   -14369.296   -70.269275    531.43427    78.765022    25.220582    16.329707 
   98400    243.42094   -299.28568    181563.75   -13325.121    1001.3164   -14326.438   -482.19061    531.44293     78.76552    25.217587    16.317068 
   98600    244.63945   -480.27024    181563.75   -13300.578    1006.3287   -14306.907   -1119.8534     530.8161    78.765412     25.21793    16.336863 
   98800    250.60834   -291.83315    181563.75   -13181.104    1030.8819   -14211.986   -529.29299     529.1802    78.766413    25.217878    16.340796 
   99000    245.33374   -476.50478    181563.75   -13217.103    1009.1847   -14226.288   -1130.9743    529.92638    78.764525    25.221537    16.320955 
   99200     244.1001   -207.90447    181563.75   -13213.911    1004.1101   -14218.021   -112.43178    529.61154    78.766145    25.223886    16.312958 
   99400    243.21998   -308.45903    181563.75   -13212.106    1000.4897   -14212.595   -518.21024    531.27151    78.768262    25.225573    16.267757 
   99600    243.29602   -354.44723    181563.75   -13212.311    1000.8025   -14213.114   -725.83982    534.54514    78.767976    25.231116    16.267537 
   99800    243.67614   -503.77623    181563.75   -13210.758    1002.3662   -14213.124   -1224.9547    536.62424    78.774442    25.228019    16.266556 
  100000    242.07369    -258.5779    181563.75   -13245.179    995.77445   -14240.953   -418.18074    537.31755     78.77522    25.227371    16.256396 
  100200    244.53137   -428.72958    181563.75   -13196.066    1005.8842   -14201.951   -992.74037    542.77174    78.775165    25.228599    16.216936 
  100400      235.713   -244.21738    181563.75   -13266.037    969.60963   -14235.647   -317.77742    542.55553    78.775365    25.228459    16.220369 
  100600    229.22823   -417.56732    181563.75   -13334.389    942.93442   -14277.324   -940.69771    546.35334    78.777653    25.229567    16.219805 
  100800    237.28312   -242.85684    181563.75   -13282.718    976.06834   -14258.787   -320.07274    543.35277    78.778781    25.230408    16.217328 
[...]
 5175800    223.71224   -415.71717    181563.75   -14723.578    920.24429   -15643.822   -868.74678    3116.6226    78.472494    25.066359    16.309116 
 5176000    221.95719   -345.65515    181563.75   -14677.658    913.02488   -15590.682    -581.3981     3118.213    78.470851    25.067215    16.311847 
 5176200    227.26014   -322.82124    181563.75   -14697.585    934.83865   -15632.424   -493.39134    3115.1272    78.469912    25.067599    16.307583 
 5176400    219.34882   -399.91638    181563.75   -14741.882    902.29529   -15644.178   -771.73979    3114.0791     78.47055    25.067964    16.307621 
 5176600    222.02547   -371.81181    181563.75   -14686.831    913.30575   -15600.137   -665.68682    3118.1194    78.470925    25.070484    16.309627 
 5176800    224.97525   -387.50191    181563.75   -14710.936     925.4397   -15636.375   -739.71914    3111.4345    78.470927    25.071876    16.310218 
 5177000    222.35441   -375.91753    181563.75   -14719.057    914.65885   -15633.716   -730.78903    3115.1896    78.470657    25.071591    16.309463 
 5177200    222.15898   -476.16526    181563.75    -14677.18    913.85492   -15591.035   -1071.5339    3119.3338    78.471481    25.072526    16.307055 
 5177400    223.16637   -332.94178    181563.75   -14703.421    917.99886    -15621.42   -524.71454    3114.2758    78.472989    25.073596    16.313638 
 5177600    235.33727   -249.22784    181563.75   -14710.536    968.06406     -15678.6    -214.0845    3115.2258     78.47376    25.073715    16.310654 
 5177800    220.57095   -370.90778    181563.75   -14713.801    907.32253   -15621.123   -652.03837    3117.7537    78.474243    25.075586    16.304952 
 5178000    224.42568   -450.98011    181563.75   -14706.271    923.17904    -15629.45   -1008.7636    3115.4475     78.47393    25.077409    16.303712 
 5178200    220.06974   -308.28167    181563.75   -14718.113    905.26081   -15623.374   -481.68852    3116.3998    78.474563     25.07993    16.306341 
 5178400    224.49861    -269.5024    181563.75   -14698.606    923.47904   -15622.085   -277.71816    3115.1302    78.475192    25.082074    16.306043 
 5178600     235.7773   -399.31753    181563.75   -14686.366    969.87414   -15656.241   -772.04918    3115.5133    78.475024    25.084869    16.310743 
 5178800    227.28761   -365.18233    181563.75   -14656.263    934.95167   -15591.215   -651.12591    3117.1839    78.475719    25.086464    16.296189 
 5179000    232.25799    -248.2713    181563.75   -14650.818     955.3974   -15606.216   -244.48679    3113.7153    78.474741    25.090143    16.308762 
 5179200    228.15299   -384.60765    181563.75    -14693.63    938.51139   -15632.141   -723.23811    3116.0274    78.475546    25.090099    16.306298 
 5179400    224.35956   -323.26612    181563.75   -14699.104    922.90707   -15622.012   -466.62409    3117.6436    78.474598    25.092102    16.307008 
 5179600    223.19065   -271.35492    181563.75   -14730.174    918.09873   -15648.273   -313.42208     3111.552    78.473942    25.092464    16.306428 
 5179800    220.32089    -315.7787    181563.75   -14688.842    906.29393   -15595.136   -490.64072    3115.3024    78.471535    25.091964    16.303819 
 5180000    224.78121   -482.57764    181563.75   -14723.474    924.64153   -15648.116    -1116.707     3118.289    78.471204    25.092001    16.307394 
 5180200    225.24121    -313.7871    181563.75   -14706.182    926.53373   -15632.716    -443.3046    3113.7373    78.470278    25.092118    16.310556 
 5180400    228.60956   -249.97238    181563.75   -14690.077    940.38951   -15630.467   -217.00166    3113.6405    78.468433     25.09336    16.307459 
 5180600    213.99011   -401.14838    181563.75   -14746.651    880.25214   -15626.903   -784.84964    3114.4339    78.467639    25.093421    16.314168 
 5180800    219.74572   -479.87992    181563.75   -14712.406    903.92793   -15616.334   -1121.0768    3116.0683     78.46598    25.090919    16.308398 
 5181000    220.32072   -296.39156    181563.75    -14718.98     906.2932   -15625.273    -411.3477     3116.022    78.467685    25.090055    16.304162 
 5181200    225.11384   -283.92498    181563.75   -14695.758     926.0098   -15621.768   -381.53801    3112.0124    78.465214    25.090485    16.303902 
 5181400    229.61549   -401.43869    181563.75   -14682.168    944.52741   -15626.695   -767.20522    3117.1731    78.463832    25.088855    16.305679 
 5181600     227.2234   -335.29447    181563.75   -14687.183    934.68752    -15621.87   -592.11696    3117.0265    78.462708    25.087576    16.309301 
 5181800    233.90079   -238.41877    181563.75   -14659.395    962.15507    -15621.55   -189.04185    3112.9017    78.461554    25.086638    16.307002 
 5182000    220.00899   -365.37182    181563.75   -14736.613     905.0109   -15641.624   -646.92696    3117.9071    78.461793    25.085224    16.301799 
 5182200     221.2389    -431.8275    181563.75   -14804.266    910.07017   -15714.336    -883.8134    3117.0881    78.460623     25.08412    16.305425 
 5182400    220.94218   -303.46003    181563.75   -14702.249    908.84962   -15611.099   -466.40173    3113.9791    78.462359     25.08413    16.301096 
 5182600    223.19561    -332.2052    181563.75   -14677.738    918.11914   -15595.857   -561.72436    3116.7237     78.46243     25.08466    16.303155 
 5182800    217.23403    -445.2908    181563.75   -14706.312    893.59606   -15599.908   -947.28078     3116.816    78.461557     25.08328    16.307402 
 5183000    235.97065   -407.32483    181563.75   -14697.896    970.66949   -15668.566    -844.0431     3118.407    78.461514    25.081475    16.294597 
 5183200     223.6651   -331.96718    181563.75   -14666.332     920.0504   -15586.382   -551.68008    3115.9721    78.460382    25.081266    16.300839 
 5183400    220.07757   -328.55875    181563.75   -14712.479    905.29302   -15617.772   -511.90844    3116.0306    78.460649    25.080792    16.297036 
 5183600     219.5309   -423.63315    181563.75   -14696.608    903.04429   -15599.652   -907.56555    3117.3972    78.460441    25.080463    16.300231 
 5183800    225.10409   -296.75648    181563.75   -14735.752    925.96971   -15661.721   -439.99149     3114.542    78.460649    25.079317    16.300002 
 5184000    223.03004   -280.14212    181563.75   -14713.354    917.43804   -15630.793   -353.37953    3114.6241    78.461056    25.080281    16.299884 
 5184200    221.28663   -352.23488    181563.75    -14697.43    910.26651   -15607.696   -622.15579    3115.7406    78.462674     25.07814    16.293435 
 5184400    226.69052   -369.06339    181563.75   -14707.467    932.49549   -15639.963    -669.0147     3113.563     78.46319    25.075659    16.305309 
 5184600     223.5538     -319.627    181563.75   -14674.767    919.59255   -15594.359   -497.94369    3116.8549    78.463747    25.073662    16.304226 
 5184800    234.39004   -316.68089    181563.75   -14640.355    964.16761   -15604.522   -473.78077    3113.7717    78.463064    25.071532    16.295679 
 5185000    232.40731   -368.10742    181563.75    -14635.54    956.01161   -15591.551   -680.64602    3114.2501    78.464041    25.069293    16.304542 
 5185200    227.31314   -261.37962    181563.75   -14686.482    935.05665   -15621.538   -293.22005    3115.9045    78.465999    25.068104      16.3054 
 5185400     225.1489   -398.06571    181563.75   -14696.345    926.15402   -15622.499   -816.30114    3115.5852    78.466868    25.067937    16.305589 
 5185600    222.68431   -394.21457    181563.75   -14751.967    916.01587   -15667.983   -749.29235    3115.3655    78.467307    25.067198    16.305323 
 5185800      221.931   -350.13151    181563.75   -14694.804    912.91715   -15607.721   -619.93075    3114.1808    78.467644    25.065611    16.304787 
 5186000    234.51048   -317.99656    181563.75   -14660.565    964.66306   -15625.228   -474.66545    3113.6638    78.467025    25.063383    16.313437 
 5186200    229.92655   -340.71208    181563.75   -14643.325    945.80697   -15589.132   -572.10533     3115.975    78.467669    25.062307    16.306776 
 5186400     219.4001   -362.13459    181563.75   -14717.275    902.50624   -15619.781    -654.5215    3112.3051    78.467525    25.060389    16.305502 
 5186600    227.96678     -351.354    181563.75   -14699.591    937.74544   -15637.337   -601.76546    3114.4358    78.464241    25.060309     16.30556 
 5186800    237.05772   -459.83197    181563.75   -14661.083    975.14116   -15636.224   -974.72855    3117.5555     78.46481    25.060452    16.307775 
 5187000     225.0268   -353.23202    181563.75   -14704.022    925.65177   -15629.674   -608.88102     3112.464    78.463296     25.05918    16.310767 
 5187200    223.90767   -273.66678    181563.75   -14680.358     921.0482   -15601.407   -286.19029    3113.5763    78.461286    25.058905    16.308821 
 5187400    221.22692   -337.42153    181563.75   -14728.178    910.02089   -15638.198   -564.82689    3115.4743    78.461785     25.05894     16.30872 
 5187600    219.88729   -395.44683    181563.75   -14705.179    904.51029    -15609.69   -790.15225    3115.1427    78.459709    25.056699    16.310772 
 5187800    227.62876   -262.56032    181563.75   -14681.976    936.35496   -15618.331    -298.2332    3114.7652    78.460035    25.056608    16.309514 
 5188000    230.98285   -360.35238    181563.75   -14708.935    950.15208   -15659.087   -609.18102    3113.9265     78.46038    25.057484    16.312488 
 5188200    225.48886   -414.70125    181563.75   -14685.568    927.55247   -15613.121    -804.3418    3119.0075    78.459641     25.05607    16.308636 
 5188400    224.01836   -381.41888    181563.75    -14702.55    921.50354   -15624.053   -766.03922    3117.5221    78.458881    25.055382    16.312874 
 5188600    221.24394    -288.2261    181563.75   -14716.287    910.09091   -15626.378   -384.76191    3112.9227    78.457989    25.055202    16.311641 
 5188800    228.16187    -423.5702    181563.75    -14671.44    938.54794   -15609.988   -871.88062    3118.8288    78.456895    25.053489    16.308557 
 5189000    227.18651    -394.4191    181563.75   -14696.925    934.53579   -15631.461    -760.6764    3117.8817    78.456433    25.053816    16.306467 
 5189200    230.66915   -352.73272    181563.75   -14684.998    948.86168    -15633.86   -621.44083    3113.4624     78.45715    25.052686    16.308183 
 5189400    225.88215   -318.41078    181563.75   -14701.056    929.17026   -15630.226   -482.44433    3119.8172    78.458335    25.051477    16.316167 
 5189600    224.02295   -423.36593    181563.75   -14710.819    921.52241   -15632.341   -877.81166    3118.3706     78.45958    25.052504    16.314683 
 5189800    227.72165    -354.1931    181563.75   -14716.631    936.73708   -15653.368   -602.01166    3115.7951    78.458527    25.050312    16.311261 
 5190000    221.58201   -305.36618    181563.75   -14698.685    911.48156   -15610.167   -462.18231    3117.4235    78.459373    25.048265     16.30903 
 5190200    223.78383   -411.10653    181563.75   -14725.216     920.5388   -15645.755   -808.51738    3115.9775    78.459587    25.047917    16.313672 
 5190400    224.48446    -423.1758    181563.75   -14685.859    923.42085    -15609.28   -878.02358    3118.3246     78.46032    25.046586    16.307219 
 5190600    231.29608    -328.0194    181563.75   -14658.743    951.44057   -15610.184   -514.89473    3117.5919     78.46119     25.04785    16.311455 
 5190800    229.64152   -343.74349    181563.75   -14690.716     944.6345   -15635.351   -561.31552    3114.6559      78.4611    25.048885    16.303321 
 5191000    220.39973   -336.91929    181563.75    -14740.81    906.61821   -15647.428   -554.47754    3120.2206    78.461098    25.050317    16.311981 
 5191200    223.88153   -321.05596    181563.75   -14718.893    920.94067   -15639.833   -490.73811    3115.3967    78.461238    25.049062    16.314126 
 5191400     224.9191   -299.16298    181563.75   -14702.472    925.20873    -15627.68   -470.99233    3114.5007    78.458272    25.047605    16.306771 
 5191600    224.34189    -329.4904    181563.75   -14696.852    922.83436   -15619.686    -546.0434    3117.7406    78.459156    25.047539    16.308504 
 5191800     224.8831   -404.46735    181563.75   -14716.051    925.06065   -15641.112   -822.00957    3115.4903    78.458471    25.046119    16.306842 
 5192000    236.23175   -319.94217    181563.75   -14687.876    971.74351   -15659.619   -505.11585     3117.701    78.458054       25.046    16.303404 
 5192200    230.77407   -284.36437    181563.75   -14632.097    949.29326    -15581.39    -400.2997    3116.8916    78.458947    25.047091    16.304761 
 5192400    241.16313   -287.13782    181563.75   -14625.641    992.02884    -15617.67   -370.61027    3115.6748    78.460629    25.046472    16.305758 
 5192600    222.22563   -420.49603    181563.75   -14697.875     914.1291   -15612.004   -865.58863    3118.6887    78.461568    25.044373    16.310008 
 5192800    223.97174   -328.02053    181563.75   -14714.705    921.31175   -15636.017   -491.64552    3116.4715    78.461582    25.044393    16.303354 
 5193000    221.68747    -396.7019    181563.75   -14695.946    911.91539   -15607.861   -788.76623    3114.6415    78.461851    25.044612    16.310242 
 5193200    226.85728   -361.98024    181563.75   -14688.782    933.18147   -15621.963   -638.50164    3118.9921    78.461972    25.044091    16.304256 
 5193400    223.51965   -433.84383    181563.75    -14757.22    919.45207   -15676.672   -909.10969    3117.1625    78.462769    25.043506    16.304784 
 5193600    223.94684   -340.15627    181563.75    -14695.77    921.20931   -15616.979   -601.13413    3116.4127    78.461674    25.042821    16.305573 
 5193800    223.36745   -325.01541    181563.75   -14721.693    918.82599   -15640.519   -504.69974    3117.5757    78.459065    25.042296    16.303646 
 5194000    230.15805   -321.64016    181563.75   -14672.589    946.75925   -15619.348   -474.28465    3114.8401    78.460194    25.041871    16.305777 
 5194200    225.32786   -353.00559    181563.75   -14699.986    926.89017   -15626.876   -641.65203    3116.4916    78.460306     25.04048     16.30527 
 5194400    225.00236   -325.97067    181563.75   -14665.171    925.55123   -15590.722   -542.94416    3116.7109    78.461034    25.039303    16.304185 
 5194600    217.70713   -350.03663    181563.75   -14716.917    895.54216    -15612.46   -644.08637    3115.5974    78.458965    25.038338    16.303169 
 5194800     229.7424   -358.61298    181563.75   -14677.584    945.04946   -15622.633   -656.14753     3118.403    78.458948    25.038694    16.303735 
 5195000    226.63334   -334.36473    181563.75   -14682.786    932.26028   -15615.046   -542.72549     3116.253    78.459951    25.037168    16.301439 
 5195200    220.39757    -360.8335    181563.75   -14718.201    906.60933   -15624.811   -626.49608    3115.5801     78.45733    25.035004    16.307505 
 5195400    225.73509   -381.15122    181563.75   -14696.479    928.56532   -15625.044    -707.1576    3119.2876    78.456208    25.033019    16.309457 
 5195600    225.73639   -363.74397    181563.75   -14695.697    928.57066   -15624.267   -649.50803    3114.7534    78.455568    25.032781    16.307662 
 5195800    226.04064   -280.15997    181563.75   -14702.011    929.82219   -15631.834   -343.17891    3115.2028    78.455161    25.031796    16.313767 
 5196000    230.19907   -337.70501    181563.75   -14658.619      946.928   -15605.547   -553.11986    3118.3452    78.452748     25.03133     16.30927 
 5196200    228.79764   -320.97491    181563.75   -14688.474    941.16319   -15629.638   -518.60403    3114.7069    78.451971    25.030847    16.308611 
 5196400    233.06712   -324.27113    181563.75   -14639.708    958.72575   -15598.433   -499.92079    3114.2087    78.451428    25.030436    16.311746 
 5196600    224.37446   -357.40524    181563.75   -14714.537    922.96833   -15637.505   -616.58845    3117.8044     78.45037    25.028753    16.321555 
 5196800     224.5448   -270.35874    181563.75   -14704.311    923.66903    -15627.98   -288.66275    3112.3461    78.449362    25.027378    16.310932 
 5197000     228.8263   -303.10758    181563.75    -14681.37    941.28108   -15622.651   -468.42123    3115.2024    78.447837    25.026382    16.316874 
 5197200    222.69743   -334.77913    181563.75   -14689.756    916.06984   -15605.825   -579.55499    3114.0171    78.450402    25.026211    16.313477 
 5197400    227.95898   -324.71553    181563.75   -14629.839    937.71335   -15567.552   -535.77548    3113.7754    78.448467    25.026133    16.312993 
 5197600    228.20838   -304.37829    181563.75   -14668.958    938.73925   -15607.698   -466.99675    3115.1383    78.450815    25.027775    16.314239 
 5197800     225.9053   -365.95179    181563.75   -14669.359    929.26549   -15598.624   -632.47409    3114.0792    78.452209    25.027533    16.316481 
 5198000    228.69293   -353.19296    181563.75   -14643.449    940.73246   -15584.181   -616.25914    3113.5885    78.450231    25.026401    16.307889 
 5198200    227.40011   -375.05197    181563.75   -14685.515     935.4144    -15620.93   -739.95158    3115.6783    78.452073    25.028556    16.307166 
 5198400    229.92012   -402.09673    181563.75   -14713.034    945.78051   -15658.815   -841.88171    3111.3624    78.452646    25.029641    16.310233 
 5198600    229.39907   -354.19397    181563.75   -14695.648    943.63719   -15639.286   -576.61573    3113.9058    78.451959    25.028032    16.309527 
 5198800    219.88858   -354.30629    181563.75   -14736.732    904.51561   -15641.248   -584.02418    3114.6759    78.452444    25.029104    16.316219 
 5199000    229.51832   -356.26003    181563.75   -14703.549    944.12771   -15647.677   -640.98443    3110.4434    78.451749    25.030289    16.311409 
 5199200    225.77348   -433.44245    181563.75   -14706.123    928.72324   -15634.846   -892.57227    3116.2816    78.453161    25.029544    16.316182 
 5199400     227.7755   -375.31908    181563.75   -14737.546    936.95858   -15674.505   -682.11823    3114.6065    78.454646    25.030171    16.315423 
 5199600    225.01625   -351.88407    181563.75   -14733.375    925.60837   -15658.983   -609.62615    3112.3653    78.454345    25.029215    16.312561 
 5199800    232.52983   -411.59721    181563.75   -14683.229    956.51559   -15639.745    -842.7031    3114.7806    78.453802    25.028786    16.314859 
 5200000    227.68168   -359.97048    181563.75   -14683.452    936.57267   -15620.025   -627.77364    3112.9189    78.454504    25.029214     16.31456 
Loop time of 6209.5 on 64 procs for 5200000 steps with 9253 atoms

Performance: 723.536 ns/day, 0.033 hours/ns, 837.426 timesteps/s
100.0% CPU use with 64 MPI tasks x no OpenMP threads

MPI task timing breakdown:
Section |  min time  |  avg time  |  max time  |%varavg| %total
---------------------------------------------------------------
Pair    | 0.53506    | 1600.8     | 4939.7     |3673.4 | 25.78
Neigh   | 7.2096     | 218.26     | 498.37     |1194.2 |  3.51
Comm    | 180.77     | 1687.6     | 4528.7     |3425.8 | 27.18
Output  | 160.61     | 160.67     | 160.89     |   0.3 |  2.59
Modify  | 131.96     | 2482.2     | 5797.6     |4717.8 | 39.97
Other   |            | 59.96      |            |       |  0.97

Nlocal:    144.578 ave 294 max 0 min
Histogram: 16 8 0 8 0 0 0 3 21 8
Nghost:    960.328 ave 1326 max 657 min
Histogram: 13 3 0 7 17 0 12 4 0 8
Neighs:    0 ave 0 max 0 min
Histogram: 64 0 0 0 0 0 0 0 0 0
FullNghs:  15525.6 ave 35493 max 0 min
Histogram: 24 8 0 0 0 0 0 12 14 6

Total # of neighbors = 993640
Ave neighs/atom = 107.386
Neighbor list builds = 507599
Dangerous builds = 0
write_data 		${DIR}/data.${NAME}_run
write_data 		run_17/data.${NAME}_run
write_data 		run_17/data.ibeam_cooling_17_run
Total wall time: 1:43:41
