
### Dimensions ###


### IMPORT ATOMS ###
read_data ../Box_Setup/data.Ibeam_240K
  orthogonal box = (0 0 0) to (68.908 85.8483 27.9754)
  4 by 8 by 2 MPI processor grid
  reading atoms ...
  8493 atoms
  reading velocities ...
  8493 velocities
group water type 2
1689 atoms in group water
group graphite type 1
6804 atoms in group graphite


# Define potential
#
pair_style          sw
pair_coeff * * MLC_e.sw C mW

# Add velocity/set timestep
#

fix		1 graphite setforce 0.0 0.0 0.0
velocity 	graphite set 0.0 0.0 0.0
velocity            water create ${START_TEMP} ${SEED} rot yes dist gaussian
velocity            water create 240 ${SEED} rot yes dist gaussian
velocity            water create 240 16294 rot yes dist gaussian
timestep            5.0

# Define output
#
compute 1 water msd
compute 2 water temp


thermo	            100
thermo_style custom step c_2 press vol etotal ke pe c_1[4] density

# Neighbor lists
#
neigh_modify        delay 0 every 1 check yes


# Set fixes
#
fix                 2 water momentum 10 linear 1 1 1 rescale
fix                 3 all nve
fix                 4 water temp/csvr ${START_TEMP} ${START_TEMP} 500.0 928347
fix                 4 water temp/csvr 240 ${START_TEMP} 500.0 928347
fix                 4 water temp/csvr 240 240 500.0 928347

# Run 0.05 ns equilibration
#
dump                1 all custom 100 ${DIR}/eq.${NAME}.dump id type x y z vx vy vz
dump                1 all custom 100 run_16/eq.${NAME}.dump id type x y z vx vy vz
dump                1 all custom 100 run_16/eq.ibeam_cooling_16.dump id type x y z vx vy vz
run                 10000
Neighbor list info ...
  update every 1 steps, delay 0 steps, check yes
  max neighbors/atom: 2000, page size: 100000
  master list distance cutoff = 6.67472
  ghost atom cutoff = 6.67472
  binsize = 3.33736, bins = 21 26 9
  1 neighbor lists, perpetual/occasional/extra = 1 0 0
  (1) pair sw, perpetual
      attributes: full, newton on
      pair build: full/bin/atomonly
      stencil: full/bin/3d
      bin: standard
Per MPI rank memory allocation (min/avg/max) = 3.384 | 4.425 | 4.753 Mbytes
Step c_2 Press Volume TotEng KinEng PotEng c_1[4] Density 
       0          240   -298.97748    165492.15   -16025.669    1207.5858   -17233.255            0    1.1252403 
     100    245.13814   -599.86838    165492.15   -15990.194    1233.4389   -17223.633   0.83430254    1.1252403 
     200     242.8639   -605.62665    165492.15   -16036.824    1221.9958    -17258.82    1.3816986    1.1252403 
     300    249.99753   -349.25509    165492.15   -16020.949    1257.8894   -17278.838    1.8050125    1.1252403 
     400    235.13782   -438.52214    165492.15    -16042.89    1183.1212   -17226.011    2.2379412    1.1252403 
     500    234.55099   -606.50609    165492.15   -16053.444    1180.1685   -17233.612      2.57962    1.1252403 
     600    239.67039   -502.83257    165492.15   -16145.145    1205.9273   -17351.072    2.8928675    1.1252403 
     700    231.61039    -300.5312    165492.15   -16119.365    1165.3725   -17284.738     3.242065    1.1252403 
     800    228.59014   -643.12295    165492.15   -16160.231    1150.1758   -17310.407      3.37287    1.1252403 
     900    239.53887   -480.47115    165492.15    -16128.97    1205.2655   -17334.236    3.8434176    1.1252403 
    1000     236.3029   -482.14662    165492.15   -16080.425    1188.9834   -17269.409    4.2946464    1.1252403 
    1100    237.62481    -366.1196    165492.15   -16092.849    1195.6348   -17288.484    4.5347483    1.1252403 
    1200    236.75189   -576.34814    165492.15   -16133.838    1191.2425    -17325.08    4.7124504    1.1252403 
    1300    234.45366   -490.77382    165492.15   -16104.064    1179.6788   -17283.742    5.0065241    1.1252403 
    1400    241.42411   -262.97052    165492.15   -16053.571    1214.7514   -17268.322    5.3550373    1.1252403 
    1500    239.46648   -604.40627    165492.15   -16060.003    1204.9013   -17264.904    5.6402041    1.1252403 
    1600    239.21279   -492.40444    165492.15   -16042.061    1203.6248   -17245.686    6.0042622    1.1252403 
    1700    241.84111   -295.05024    165492.15   -16057.914    1216.8495   -17274.764    6.2915923    1.1252403 
    1800    237.04701   -604.36062    165492.15     -16055.3    1192.7275   -17248.028    6.6218885    1.1252403 
    1900    248.41841    -491.7778    165492.15   -15987.297    1249.9439   -17237.241    6.8907615    1.1252403 
    2000    246.91387   -511.93264    165492.15   -15967.929    1242.3736   -17210.303    7.3460635    1.1252403 
    2100     242.7818   -450.76292    165492.15    -15979.58    1221.5827   -17201.162    7.8166846    1.1252403 
    2200    241.90886   -562.29003    165492.15   -15973.798    1217.1904   -17190.988    8.1609335    1.1252403 
    2300     244.2023   -560.51202    165492.15   -16013.428    1228.7301   -17242.158    8.4506042    1.1252403 
    2400    237.80547   -487.09981    165492.15    -16013.97    1196.5437   -17210.514    8.7835003    1.1252403 
    2500    236.57299   -531.55055    165492.15   -16008.739    1190.3424   -17199.082     8.715639    1.1252403 
    2600     238.0204   -538.10793    165492.15   -16043.042    1197.6252   -17240.667    9.0685561    1.1252403 
    2700    246.78916   -384.66955    165492.15   -16022.479    1241.7461   -17264.225    9.4549978    1.1252403 
    2800    243.36297   -399.59407    165492.15    -16030.34    1224.5069   -17254.847    9.7230032    1.1252403 
    2900    239.38502   -524.09894    165492.15   -16092.575    1204.4914   -17297.066    10.156668    1.1252403 
    3000    241.42238   -416.91596    165492.15   -16108.696    1214.7426   -17323.439    10.369932    1.1252403 
    3100    238.13887   -462.76213    165492.15   -16107.186    1198.2213   -17305.408    10.873837    1.1252403 
    3200    230.36333   -416.10284    165492.15   -16118.662    1159.0978    -17277.76    11.322777    1.1252403 
    3300    237.33307   -415.78142    165492.15   -16079.484    1194.1668   -17273.651    11.473603    1.1252403 
    3400    244.47155   -445.28952    165492.15   -16070.032    1230.0849   -17300.117     11.90579    1.1252403 
    3500    236.90395    -681.6141    165492.15   -16078.349    1192.0077   -17270.357    12.196147    1.1252403 
    3600    239.94748   -433.52158    165492.15   -16067.725    1207.3215   -17275.046    12.787936    1.1252403 
    3700     237.4065   -485.88674    165492.15   -16083.888    1194.5363   -17278.424    13.138297    1.1252403 
    3800    240.98321    -425.3371    165492.15   -16065.918    1212.5329   -17278.451    13.666043    1.1252403 
    3900    234.15275   -608.13217    165492.15   -16077.957    1178.1647   -17256.121    14.248528    1.1252403 
    4000     238.3906   -481.49159    165492.15   -16100.429    1199.4879   -17299.917    14.666653    1.1252403 
    4100    247.33848   -313.80833    165492.15   -16072.325    1244.5101   -17316.836    15.037706    1.1252403 
    4200    249.76917   -416.61876    165492.15   -16054.212    1256.7404   -17310.952    15.114745    1.1252403 
    4300    244.64831    -541.5889    165492.15   -15983.834    1230.9742   -17214.809    15.602656    1.1252403 
    4400    242.90916    -496.3287    165492.15   -15992.399    1222.2235   -17214.622      15.9361    1.1252403 
    4500    246.41566   -280.21742    165492.15   -16046.034    1239.8668   -17285.901    16.242012    1.1252403 
    4600    238.70433   -555.51064    165492.15   -16066.182    1201.0664   -17267.248    16.507258    1.1252403 
    4700    239.02965   -438.79294    165492.15   -16074.382    1202.7034   -17277.085    16.753742    1.1252403 
    4800    245.99051   -499.89061    165492.15   -16046.951    1237.7277   -17284.679    16.782838    1.1252403 
    4900    246.24737   -625.75267    165492.15   -16063.604    1239.0201   -17302.624     16.88021    1.1252403 
    5000    231.12795   -607.24275    165492.15   -16091.226    1162.9451   -17254.171    17.240985    1.1252403 
    5100    234.80152   -453.14068    165492.15   -16101.616     1181.429   -17283.045     17.67857    1.1252403 
    5200    234.50941    -426.9893    165492.15   -16079.066    1179.9593   -17259.025    17.746419    1.1252403 
    5300    226.83368   -324.87036    165492.15   -16115.804     1141.338   -17257.142    17.875105    1.1252403 
    5400    244.20228   -287.00321    165492.15     -16083.6      1228.73    -17312.33    18.199263    1.1252403 
    5500    233.83783   -769.85274    165492.15    -16118.27    1176.5801    -17294.85    18.588334    1.1252403 
    5600    232.89981   -465.66614    165492.15   -16136.895    1171.8604   -17308.755    18.614245    1.1252403 
    5700    234.48272   -525.53029    165492.15   -16101.763     1179.825   -17281.588    18.831852    1.1252403 
    5800    246.69593   -151.97677    165492.15   -16014.267     1241.277   -17255.544    19.189598    1.1252403 
    5900    245.36736     -524.776    165492.15   -16054.148    1234.5922    -17288.74    19.718928    1.1252403 
    6000    235.00168   -729.90868    165492.15     -16134.4    1182.4362   -17316.836    20.199969    1.1252403 
    6100    235.88356   -400.03657    165492.15   -16128.481    1186.8735   -17315.354    20.445774    1.1252403 
    6200    242.80896   -157.57258    165492.15   -16104.955    1221.7193   -17326.674     21.14486    1.1252403 
    6300    236.66652   -429.42744    165492.15   -16077.744     1190.813   -17268.557    21.791766    1.1252403 
    6400    248.15037   -529.93852    165492.15   -16072.959    1248.5952   -17321.554    21.887176    1.1252403 
    6500    238.78675   -446.76578    165492.15   -16089.488    1201.4812   -17290.969    22.426932    1.1252403 
    6600    243.16325   -492.05987    165492.15   -16123.682     1223.502   -17347.184     22.73166    1.1252403 
    6700    228.99303   -374.94339    165492.15   -16161.532     1152.203   -17313.735    22.728732    1.1252403 
    6800    230.53585   -372.75539    165492.15   -16130.505    1159.9659   -17290.471    23.515065    1.1252403 
    6900    237.01748    -506.7421    165492.15   -16157.927    1192.5789   -17350.505    24.132983    1.1252403 
    7000     237.5819    -456.7758    165492.15   -16160.347    1195.4188   -17355.766    24.492195    1.1252403 
    7100    240.13626   -424.36345    165492.15   -16087.632    1208.2714   -17295.903    24.724995    1.1252403 
    7200    237.54547   -429.84607    165492.15   -16077.681    1195.2355   -17272.916    24.670008    1.1252403 
    7300    233.97361   -645.70844    165492.15   -16134.484    1177.2633   -17311.747    25.084214    1.1252403 
    7400    243.51924   -394.22095    165492.15   -16131.395    1225.2932   -17356.688    25.289357    1.1252403 
    7500    236.09642    -438.4898    165492.15   -16158.057    1187.9445   -17346.001    25.932435    1.1252403 
    7600    233.91102   -642.00416    165492.15   -16163.216    1176.9484   -17340.164     26.12353    1.1252403 
    7700    237.65365   -320.17517    165492.15     -16147.9    1195.7798   -17343.679    26.292209    1.1252403 
    7800    240.99343   -497.21731    165492.15   -16094.592    1212.5843   -17307.176    26.254637    1.1252403 
    7900     242.5009   -302.01525    165492.15   -16080.445    1220.1693   -17300.614     26.41386    1.1252403 
    8000    235.60458   -260.06107    165492.15   -16070.682    1185.4698   -17256.151    26.862769    1.1252403 
    8100    236.37502   -749.21389    165492.15   -16088.737    1189.3463   -17278.083    27.089584    1.1252403 
    8200    232.79909   -523.40184    165492.15    -16112.96    1171.3536   -17284.314    27.609871    1.1252403 
    8300    236.63852    -462.5399    165492.15   -16121.101    1190.6721   -17311.773    28.005723    1.1252403 
    8400     240.6797   -372.68152    165492.15    -16105.15    1211.0057   -17316.155    28.493725    1.1252403 
    8500    238.86047   -483.17915    165492.15   -16126.843    1201.8521   -17328.696     28.38949    1.1252403 
    8600    237.77801   -671.13885    165492.15    -16068.98    1196.4056   -17265.385    28.589186    1.1252403 
    8700    233.00227   -483.61575    165492.15   -16124.033    1172.3759   -17296.408    28.828261    1.1252403 
    8800    243.59075   -388.30018    165492.15   -16074.822     1225.653   -17300.475    29.108679    1.1252403 
    8900    233.94738   -491.95752    165492.15    -16092.11    1177.1314   -17269.241    29.502426    1.1252403 
    9000    240.46849   -462.70562    165492.15   -16039.728     1209.943   -17249.672    29.627946    1.1252403 
    9100    242.10477   -370.66317    165492.15   -16023.558    1218.1761   -17241.734    29.485639    1.1252403 
    9200    238.17414   -557.59294    165492.15   -16069.384    1198.3987   -17267.783    29.618872    1.1252403 
    9300    243.03207   -548.29135    165492.15   -16111.035     1222.842   -17333.877    30.151282    1.1252403 
    9400    237.36907   -593.78332    165492.15   -16144.867    1194.3479   -17339.215    30.953043    1.1252403 
    9500    234.32255   -451.51306    165492.15   -16114.056    1179.0191   -17293.075    31.245445    1.1252403 
    9600    236.32072   -503.51279    165492.15   -16171.289    1189.0731   -17360.362    31.268418    1.1252403 
    9700    232.46833   -243.37439    165492.15   -16136.217    1169.6893   -17305.906    31.340767    1.1252403 
    9800    235.61869    -311.1763    165492.15   -16135.013    1185.5408   -17320.554    31.534466    1.1252403 
    9900    236.34055     -632.181    165492.15   -16106.714    1189.1728   -17295.887    31.868564    1.1252403 
   10000     245.3963   -383.91659    165492.15   -16033.141    1234.7379   -17267.879    32.239631    1.1252403 
Loop time of 10.2432 on 64 procs for 10000 steps with 8493 atoms

Performance: 421.745 ns/day, 0.057 hours/ns, 976.262 timesteps/s
99.9% CPU use with 64 MPI tasks x no OpenMP threads

MPI task timing breakdown:
Section |  min time  |  avg time  |  max time  |%varavg| %total
---------------------------------------------------------------
Pair    | 0.0015962  | 3.6024     | 7.8539     | 153.6 | 35.17
Neigh   | 0.0080858  | 0.24486    | 0.58083    |  37.9 |  2.39
Comm    | 1.2533     | 4.3078     | 8.6745     | 109.9 | 42.06
Output  | 0.14994    | 0.15001    | 0.15074    |   0.0 |  1.46
Modify  | 0.39002    | 1.8401     | 7.6292     | 155.3 | 17.96
Other   |            | 0.09804    |            |       |  0.96

Nlocal:    132.703 ave 253 max 0 min
Histogram: 16 0 5 11 0 0 0 0 17 15
Nghost:    926 ave 1152 max 665 min
Histogram: 9 7 0 0 6 18 8 0 5 11
Neighs:    0 ave 0 max 0 min
Histogram: 64 0 0 0 0 0 0 0 0 0
FullNghs:  13915.3 ave 29712 max 0 min
Histogram: 16 16 0 0 0 0 0 3 17 12

Total # of neighbors = 890578
Ave neighs/atom = 104.86
Neighbor list builds = 569
Dangerous builds = 0
write_data 	    ${DIR}/data.${NAME}_eq
write_data 	    run_16/data.${NAME}_eq
write_data 	    run_16/data.ibeam_cooling_16_eq

undump              1
unfix               4



################################################
#######         Run Simulation         #########
################################################

reset_timestep      0
timestep	    10.0
log                 ${DIR}/log.run_${NAME}
log                 run_16/log.run_${NAME}
log                 run_16/log.run_ibeam_cooling_16
