
# Set production fixes - Nose/Hoover
#
fix                 4 water temp/csvr ${START_TEMP} ${END_TEMP} 500.0 928347
fix                 4 water temp/csvr 235 ${END_TEMP} 500.0 928347
fix                 4 water temp/csvr 235 225 500.0 928347


## divide "droplet" into core and surface
#region		core_reg cylinder z 135 135 44.6 20 INF units box
#region		surface_reg cylinder z 135 135 44.6 20 INF units box side out
#group		core dynamic all region core_reg
#group		surface dynamic all region surface_reg

## compute pressure core
#compute        peratom_core core stress/atom NULL
#compute        p_core core reduce sum c_peratom_core[1] c_peratom_core[2] c_peratom_core[3]
#variable       press_core equal -(c_p_core[1]+c_p_core[2]+c_p_core[3])/(3*1249982.5)


## compute pressure surface
#compute        peratom_surf surface stress/atom NULL
#compute        p_surf surface reduce sum c_peratom_surf[1] c_peratom_surf[2] #c_peratom_surf[3]
#variable       press_surf equal -(c_p_surf[1]+c_p_surf[2]+c_p_surf[3])/(3*42395)

## compute total pressure of drop
compute        peratom water stress/atom NULL
compute        p water reduce sum c_peratom[1] c_peratom[2] c_peratom[3]
variable       press equal -(c_p[1]+c_p[2]+c_p[3])/(3*50402)


# compute order parameter
compute        3 all orientorder/atom nnn NULL cutoff 3.5

# compute center of mass of bridge
compute 	4 water com

# Run simulation
thermo_style        custom step c_2 press vol etotal ke pe v_press c_1[4] c_4[*]
thermo              200
dump		     1 water custom 400 ${DIR}/prod.${NAME}.dump id type x y z vx vy vz c_3[*] c_peratom[*]
dump		     1 water custom 400 run_15/prod.${NAME}.dump id type x y z vx vy vz c_3[*] c_peratom[*]
dump		     1 water custom 400 run_15/prod.ibeam_cooling_15.dump id type x y z vx vy vz c_3[*] c_peratom[*]
run                 ${STEPS}
run                 4000000
Neighbor list info ...
  update every 1 steps, delay 0 steps, check yes
  max neighbors/atom: 2000, page size: 100000
  master list distance cutoff = 6.67472
  ghost atom cutoff = 6.67472
  binsize = 3.33736, bins = 24 25 11
  2 neighbor lists, perpetual/occasional/extra = 1 1 0
  (1) pair sw, perpetual
      attributes: full, newton on
      pair build: full/bin/atomonly
      stencil: full/bin/3d
      bin: standard
  (2) compute orientorder/atom, occasional, copy from (1)
      attributes: full, newton on
      pair build: copy
      stencil: none
      bin: none
Per MPI rank memory allocation (min/avg/max) = 6.148 | 6.79 | 7.275 Mbytes
Step c_2 Press Volume TotEng KinEng PotEng v_press c_1[4] c_4[1] c_4[2] c_4[3] 
       0    227.44935   -378.36345    216156.16    -20226.23    1440.7145   -21666.945   -976.82971    29.714549    39.427015     39.23084     23.63879 
     200    235.80174   -312.03489    216156.16   -20238.765    1493.6204   -21732.385   -682.46497    31.448651    39.427877    39.229878    23.654606 
     400    227.43583   -263.32878    216156.16   -20194.836    1440.6289   -21635.465   -489.88385    32.709307    39.430041    39.229752    23.676421 
     600    243.37618    -409.9984    216156.16    -20105.69    1541.5986   -21647.289   -1137.9399     34.08109     39.43065    39.229284    23.676302 
     800    235.14257   -386.33367    216156.16   -20111.937    1489.4451   -21601.382   -994.31845    35.665379    39.431106    39.228127    23.679965 
    1000    231.44503   -409.43875    216156.16   -20189.362     1466.024   -21655.386   -1076.2313    36.484005    39.430485    39.228264    23.697916 
    1200    234.41922   -342.44337    216156.16   -20191.266    1484.8633   -21676.129   -750.71256     37.09921    39.429199     39.22784    23.707432 
    1400    233.21277   -363.10808    216156.16   -20177.524    1477.2213   -21654.745   -854.00245    38.253243    39.429397    39.226592     23.67833 
    1600    232.98054   -483.81812    216156.16   -20158.067    1475.7503   -21633.818   -1404.2308    39.774491    39.429102    39.224326    23.667393 
    1800    241.19182   -292.88651    216156.16    -20118.72    1527.7624   -21646.482   -620.17107    41.793626    39.429678    39.220636    23.668615 
    2000    238.92994   -259.90233    216156.16   -20063.486    1513.4351   -21576.921   -443.72593    43.429077    39.428227    39.221358    23.663395 
    2200     233.9216   -500.95113    216156.16   -20137.097    1481.7112   -21618.808    -1450.447    43.500025    39.427918    39.223562    23.679066 
    2400    234.53452   -424.92557    216156.16   -20144.098    1485.5936   -21629.692   -1178.4879     44.06651     39.42882    39.223718     23.67188 
    2600    231.40299   -242.62808    216156.16   -20207.062    1465.7578    -21672.82   -347.99194    45.414459    39.428872    39.223014    23.653201 
    2800    245.00091   -339.46529    216156.16   -20092.896      1551.89   -21644.786   -756.69626    46.524247    39.429823    39.223794    23.640827 
    3000    238.36067    -293.7807    216156.16   -20099.031    1509.8292   -21608.861   -623.36121    46.557973    39.432528    39.224657    23.646041 
    3200    238.36103   -347.95676    216156.16   -20155.962    1509.8315   -21665.794   -816.61347    47.893929    39.433837    39.226718    23.646284 
    3400    231.73051   -420.43091    216156.16   -20128.865    1467.8324   -21596.698   -1133.2735    48.778506     39.43555    39.228078    23.649951 
    3600    232.46612   -283.81754    216156.16    -20140.17    1472.4919   -21612.662   -553.12179    51.082858    39.434529    39.228915    23.651447 
    3800    239.42085   -424.76311    216156.16   -20095.818    1516.5447   -21612.362   -1166.4844    52.914272    39.435553     39.23065    23.653985 
    4000    235.38981   -451.66743    216156.16   -20162.046    1491.0112   -21653.057   -1298.4961    53.487956    39.435016    39.232613    23.669105 
    4200    233.74263   -285.16997    216156.16   -20123.611    1480.5776   -21604.189   -500.93653    54.945337    39.434876     39.23423    23.663715 
    4400    237.17246   -258.32685    216156.16   -20150.555    1502.3029   -21652.857   -457.26629    56.082265    39.434932    39.233413    23.676826 
    4600    227.08294    -513.7025    216156.16   -20194.816    1438.3936   -21633.209   -1474.3118    57.327912    39.435668    39.233611    23.682395 
    4800    238.41143   -339.84216    216156.16   -20081.855    1510.1507   -21592.006   -830.00273    59.357411    39.436732    39.235716    23.643189 
    5000    231.18974   -370.08793    216156.16    -20129.47     1464.407   -21593.877   -946.96805    61.355999    39.437726    39.233743    23.634799 
    5200    235.96802   -497.10589    216156.16   -20144.316    1494.6736   -21638.989   -1427.6119    62.000124    39.436185    39.232337    23.662789 
    5400    232.71454   -342.70349    216156.16   -20148.926    1474.0654   -21622.991   -804.23535    62.636278    39.434099    39.232628    23.657996 
    5600     234.5607   -242.00316    216156.16   -20153.774    1485.7594   -21639.533   -398.54011    64.534664    39.433307    39.233703    23.660794 
    5800    235.84862   -387.36215    216156.16   -20094.086    1493.9174   -21588.003   -1045.4876     65.92842    39.434674    39.235228     23.64946 
    6000    234.38733   -536.72803    216156.16   -20154.105    1484.6612   -21638.767   -1648.9837    65.944808    39.435854    39.237146    23.652697 
    6200     238.5349   -376.23761    216156.16   -20168.568    1510.9329   -21679.501   -990.82253    67.293823    39.436261    39.238243     23.64988 
    6400    230.09151   -381.06468    216156.16   -20121.975    1457.4506   -21579.426   -974.94627    69.028466    39.437658    39.236313    23.626671 
    6600    231.24173   -496.78155    216156.16   -20157.229    1464.7363   -21621.966    -1459.733    70.246535    39.438269    39.236683    23.634747 
    6800    234.95623   -512.63391    216156.16   -20169.979    1488.2648   -21658.244   -1512.8654    71.066438    39.438176    39.236921    23.650425 
    7000    237.87826   -411.25851    216156.16   -20129.105    1506.7735   -21635.879   -1119.7074    71.274316    39.438493    39.236013    23.649455 
    7200    232.50262   -243.11356    216156.16   -20244.456    1472.7231   -21717.179   -377.43296    72.903355    39.439292    39.234022    23.623152 
    7400    230.03907   -369.69885    216156.16   -20203.981    1457.1184     -21661.1   -946.74767    74.721292    39.442277    39.231616    23.608486 
    7600    244.38206   -451.58131    216156.16   -20108.131    1547.9701   -21656.102   -1311.7499    76.229485    39.444772    39.229907    23.605195 
    7800     232.7019   -388.61136    216156.16   -20214.246    1473.9853   -21688.231   -1000.6654    77.369491    39.445324    39.230415    23.603352 
    8000    238.48359   -422.14962    216156.16   -20120.002    1510.6079    -21630.61   -1162.8706    78.948099    39.446615    39.229071    23.592734 
    8200    239.17284   -234.00854    216156.16   -20125.135    1514.9737   -21640.109   -311.24831    80.773779    39.448116    39.227295    23.582509 
    8400    242.15679   -434.46622    216156.16    -20070.91    1533.8747   -21604.785   -1245.6376    80.181593    39.446898    39.226841    23.587916 
    8600     234.5136   -391.51187    216156.16   -20111.981     1485.461   -21597.442   -987.63937    80.833856    39.447502    39.226637    23.575422 
    8800    234.52133    -515.2235    216156.16   -20120.061      1485.51   -21605.572   -1555.7047    82.554394     39.44629    39.224935    23.540785 
    9000    230.74532   -485.32233    216156.16    -20095.48     1461.592   -21557.072   -1403.0999    84.229487    39.447986    39.225619    23.538124 
    9200    238.62917   -316.25662    216156.16   -20070.225      1511.53   -21581.755    -710.0147    85.780258    39.447687    39.224804    23.526697 
    9400    234.84333    -372.4249    216156.16   -20121.607    1487.5496   -21609.156   -944.42706    86.789385    39.445332    39.223533    23.548841 
    9600    234.83136   -365.63847    216156.16    -20171.63    1487.4738   -21659.104   -912.17125    87.801029    39.445245    39.223574    23.548511 
    9800    234.24093    -378.7775    216156.16    -20111.68    1483.7339   -21595.414    -937.1415    87.862274    39.446195    39.225419     23.55072 
   10000    232.82764   -467.02211    216156.16   -20165.459    1474.7818   -21640.241   -1332.4066    89.351003    39.446826    39.226627     23.54673 
   10200    238.39303   -380.89732    216156.16   -20093.347    1510.0342   -21603.381   -979.86089    90.708615    39.447683    39.227981     23.54497 
   10400    240.95313   -321.38225    216156.16   -20121.525    1526.2504   -21647.776   -696.74897    91.989901    39.448712    39.229255    23.509404 
   10600    231.56756   -453.01776    216156.16   -20163.873    1466.8002   -21630.673   -1293.0025    93.118239    39.448351    39.230282    23.521095 
   10800     230.3067   -437.40987    216156.16   -20209.748    1458.8136   -21668.561   -1170.9165     93.86574    39.448786    39.230909    23.536448 
   11000    236.39338   -341.34795    216156.16   -20179.409     1497.368   -21676.777   -781.50273    95.556174    39.448219    39.230616      23.5449 
   11200    235.80253   -295.90417    216156.16   -20173.965    1493.6254    -21667.59   -635.91927    97.437637    39.447134    39.229124    23.555504 
   11400    235.43486   -380.87758    216156.16   -20160.372    1491.2965   -21651.668   -966.36141     98.24404    39.446849    39.228666    23.581976 
   11600    241.96825   -201.94347    216156.16   -20050.095    1532.6805   -21582.775   -242.72186    99.724845    39.445948    39.229248    23.598474 
   11800    239.38486   -464.50602    216156.16   -20088.395    1516.3167   -21604.712   -1273.3924    102.46499    39.444234    39.231087    23.579797 
   12000    236.31773    -361.1403    216156.16   -20119.032    1496.8888    -21615.92   -856.98162     104.1256    39.442878    39.231253     23.60141 
   12200    233.06762    -399.2152    216156.16   -20150.008    1476.3019    -21626.31   -1052.0244    104.87535    39.443971    39.231129    23.606896 
   12400    237.44736   -306.34139    216156.16   -20180.857    1504.0441   -21684.901   -647.54859    105.35011    39.444925    39.229954    23.607894 
   12600    241.13128   -349.02493    216156.16   -20120.066    1527.3789   -21647.445   -835.25342    106.74867    39.446004     39.23045    23.595237 
   12800    233.91422   -503.76137    216156.16   -20148.524    1481.6644   -21630.189   -1517.1217    107.67033     39.44373    39.230052     23.58066 
   13000    235.11793   -312.09916    216156.16   -20187.557     1489.289   -21676.846    -670.9584    108.27258    39.440322      39.2295    23.584722 
   13200    233.41479   -240.30407    216156.16   -20183.876    1478.5009   -21662.377   -417.64298    109.53333    39.437865    39.225744    23.557071 
   13400     233.5825   -241.95038    216156.16   -20241.503    1479.5633   -21721.067   -369.29189    111.34263    39.437551    39.227016    23.550283 
   13600    232.30647   -438.20453    216156.16   -20155.784    1471.4806   -21627.264   -1169.0902    113.51252    39.439227    39.228421    23.547754 
   13800    239.55813    -356.4236    216156.16   -20113.446    1517.4142    -21630.86   -851.29669    114.76482    39.438886    39.227359    23.515166 
   14000    239.88161    -345.1344    216156.16   -20062.926    1519.4632   -21582.389   -811.53938    115.08414    39.438342    39.229713    23.513433 
   14200    240.38467   -292.66219    216156.16    -20123.78    1522.6497    -21646.43   -639.88006    114.36496    39.438734    39.229309    23.503322 
   14400    233.27054   -389.92383    216156.16   -20199.065    1477.5872   -21676.652   -1010.0052    114.74513    39.440497    39.228902    23.475621 
   14600    238.43832   -344.05273    216156.16   -20174.103    1510.3211   -21684.424   -867.50809    115.76558    39.442384    39.230158    23.472737 
   14800    240.37065   -506.89308    216156.16   -20140.411    1522.5609   -21662.972   -1518.2911    116.61338    39.443709    39.229893    23.465509 
   15000    234.35415   -130.08818    216156.16   -20186.403     1484.451   -21670.854    74.454416    117.92329    39.444838    39.232163    23.444062 
   15200    238.42606   -339.69605    216156.16   -20135.138    1510.2434   -21645.381   -787.95504    118.37106    39.446459    39.234958     23.46636 
   15400    234.44217    -369.0205    216156.16   -20211.009    1485.0086   -21696.018   -922.91634    119.41529     39.44714    39.239467    23.463026 
   15600    242.37769   -457.78991    216156.16   -20093.077    1535.2739   -21628.351   -1290.0189    121.42551    39.447133    39.240331    23.479758 
   15800     236.3077   -338.94392    216156.16   -20127.363    1496.8253   -21624.188   -816.59028     121.6501    39.445967    39.239377    23.454392 
   16000    239.58564   -346.29034    216156.16   -20166.973    1517.5885   -21684.562   -855.65412    121.43937    39.446458    39.240026    23.423504 
   16200    236.14142   -248.12884    216156.16   -20139.477     1495.772   -21635.249   -413.10054    122.85329    39.448661    39.239835    23.413718 
   16400    236.66453   -420.65089    216156.16    -20198.59    1499.0855   -21697.675   -1168.1068    123.98132    39.449423    39.238837    23.405995 
   16600    236.11204   -249.48316    216156.16   -20102.968    1495.5859   -21598.554   -390.66581    125.95324    39.448696    39.237315    23.415179 
   16800    237.18218   -343.85791    216156.16   -20146.117    1502.3644   -21648.482   -769.08352     126.8419    39.448008    39.237693    23.384828 
   17000    236.04099   -325.30784    216156.16   -20216.656    1495.1359   -21711.792   -726.95744    128.09073    39.448345    39.238861    23.407316 
   17200    239.68954   -391.99788    216156.16   -20201.803    1518.2466   -21720.049   -1009.5682    128.05325    39.449187    39.237701    23.416026 
   17400    229.95378   -347.00073    216156.16   -20286.341    1456.5782   -21742.919   -836.92279    129.55396    39.446964     39.23888    23.413796 
   17600    237.74775   -473.58257    216156.16   -20221.908    1505.9469   -21727.855   -1397.1321    130.14839    39.444636    39.237948    23.415884 
   17800    233.42495    -210.9386    216156.16   -20227.802    1478.5653   -21706.368   -250.83473    129.63255    39.441159     39.23848    23.419819 
   18000    224.93043   -540.86849    216156.16    -20189.63    1424.7592   -21614.389   -1638.3519    130.83191     39.44051    39.236238    23.394679 
   18200    237.77273   -408.84083    216156.16   -20217.644    1506.1051   -21723.749   -1058.7598     132.9085    39.439663    39.237777    23.390386 
   18400    233.07769   -481.01109    216156.16   -20175.881    1476.3657   -21652.246    -1366.099    133.44678    39.439192    39.238812    23.377041 
   18600    236.02376   -462.35141    216156.16   -20157.768    1495.0268   -21652.795   -1314.7255    134.74232    39.435989    39.238702    23.380676 
   18800    234.64822   -358.12692    216156.16   -20194.721    1486.3138   -21681.035   -872.75578    134.68463    39.435521    39.240072    23.387086 
   19000    237.80339   -530.71091    216156.16   -20114.782    1506.2993   -21621.081   -1606.8421    136.21374    39.435535    39.238968    23.397955 
   19200    236.94305   -530.77852    216156.16    -20165.03    1500.8497   -21665.879   -1583.9073    138.46699    39.435366    39.237672    23.401499 
   19400    230.47543   -474.47086    216156.16   -20128.314    1459.8824   -21588.196   -1382.0586     140.1208    39.435084    39.236557    23.384439 
   19600    238.60042   -429.69793    216156.16   -20156.529    1511.3479   -21667.877   -1196.4292    140.78445    39.434549    39.235138    23.379048 
   19800    240.79264   -395.68341    216156.16   -20150.868    1525.2339   -21676.102   -1015.5887    141.90621    39.434751    39.234245    23.398363 
   20000    228.49231   -391.52492    216156.16   -20152.644    1447.3209   -21599.965   -992.68199    144.04316    39.433152    39.233898    23.384176 
   20200    231.72719   -479.12936    216156.16    -20182.28    1467.8113   -21650.092   -1401.2038    145.06439    39.435119    39.234214     23.37362 
   20400    237.67254   -497.66154    216156.16   -20095.582    1505.4705   -21601.052   -1414.9043    145.48343     39.43536    39.233635    23.376043 
   20600    237.19466   -401.56087    216156.16   -20203.336    1502.4435    -21705.78   -1025.4277    145.47511    39.434389     39.23605     23.38248 
   20800    233.35679   -297.55306    216156.16   -20130.059    1478.1336   -21608.193   -591.89957    145.81289    39.434193    39.236725    23.388414 
   21000    234.84742   -498.68613    216156.16   -20147.764    1487.5756    -21635.34   -1501.1729    147.41788    39.434918    39.240551    23.405949 
   21200    236.11355   -211.16757    216156.16   -20088.483    1495.5955   -21584.078   -258.80696    149.68083     39.43397    39.240481    23.408664 
   21400    226.36592   -508.85891    216156.16   -20103.016    1433.8519   -21536.868   -1509.8208    150.32437    39.433308    39.242415    23.406671 
   21600    247.19806   -236.38935    216156.16   -20042.524    1565.8073   -21608.332   -336.44271    151.60267    39.434524    39.245049    23.395102 
   21800    235.31798   -509.38444    216156.16   -20124.483    1490.5562    -21615.04   -1545.3984    153.44993    39.434742    39.245524    23.384168 
   22000     232.8397   -380.34038    216156.16   -20203.069    1474.8582   -21677.927   -977.87233    153.33338    39.436268    39.246679    23.414379 
   22200     233.5537   -504.45777    216156.16   -20237.602    1479.3808   -21716.983   -1501.2104    153.11032    39.436159    39.244425    23.423228 
   22400    235.29466   -334.22937    216156.16   -20090.253    1490.4085   -21580.662   -778.81541    153.92801    39.433216    39.244207    23.437286 
   22600    233.59837   -302.54916    216156.16   -20137.674    1479.6638   -21617.338   -656.98679    153.92928    39.430496    39.244708    23.450772 
   22800    240.71319    -312.3267    216156.16   -20114.968    1524.7306   -21639.699   -669.84266    155.37216    39.426782    39.244282    23.466624 
   23000    229.21808   -225.23475    216156.16   -20159.537     1451.918   -21611.455   -341.62315    155.48567     39.42512    39.246675    23.449944 
   23200    240.52952   -455.45418    216156.16   -20110.887    1523.5672   -21634.455   -1290.7862     157.4004    39.425622    39.245933    23.456348 
   23400    235.85494   -399.92841    216156.16   -20124.712    1493.9574   -21618.669   -1070.7717    157.86334     39.42483    39.245408    23.452485 
   23600    240.92247   -400.99309    216156.16   -20052.697    1526.0562   -21578.754   -1050.6039    158.15996    39.423907    39.246327    23.471918 
   23800    226.42315   -459.46406    216156.16   -20053.144    1434.2143   -21487.359   -1300.4169    159.08342    39.421443    39.245395    23.470693 
   24000    234.39077   -332.65041    216156.16   -20115.984     1484.683   -21600.667   -796.68443    160.12891    39.418074    39.243989    23.457455 
   24200     233.6823   -400.27829    216156.16   -20132.417    1480.1954   -21612.613   -1080.4585    162.56529    39.416817    39.244112    23.460906 
   24400    236.59127   -316.67721    216156.16   -20166.168    1498.6214   -21664.789   -672.87547     163.8475    39.419088    39.245365    23.461173 
   24600    232.10751    -414.0552    216156.16   -20209.552    1470.2204   -21679.773   -1084.5251    164.77037    39.419373     39.24165    23.458559 
   24800    229.34186   -568.62247    216156.16   -20203.775    1452.7021   -21656.477   -1723.5978    166.00221    39.418383    39.241955    23.469522 
   25000    235.85467   -374.38498    216156.16   -20191.794    1493.9557   -21685.749   -903.50102    166.45588    39.417181    39.243541    23.463061 
   25200    225.05743   -436.77028    216156.16   -20312.775    1425.5636   -21738.339   -1234.5864    167.59567    39.418693    39.245686    23.473672 
   25400    238.14775   -304.56298    216156.16   -20187.195    1508.4805   -21695.676   -686.13861    168.47954    39.416788    39.247179    23.454792 
   25600    246.07238   -392.46843    216156.16    -20035.07    1558.6769   -21593.747   -1048.4329    169.91415    39.414747    39.246252    23.446135 
   25800    244.45564   -331.34393    216156.16   -20101.902    1548.4362   -21650.338    -737.8749    171.14762    39.414877    39.248128    23.458519 
   26000    233.10348   -333.48467    216156.16   -20152.993     1476.529   -21629.522   -743.22275    172.79683     39.41446    39.248829    23.458835 
   26200     234.9719   -202.68514    216156.16   -20166.808     1488.364   -21655.172   -204.29472    173.66247    39.414265    39.249377    23.460802 
   26400    231.95981   -427.74766    216156.16   -20204.938    1469.2848   -21674.223   -1192.8237    174.37336    39.412495    39.249746    23.480204 
   26600    244.14435   -292.18012    216156.16   -20115.855    1546.4644   -21662.319      -567.39    173.64423    39.414327    39.250965    23.484682 
   26800    234.64037   -337.18509    216156.16   -20132.115    1486.2641   -21618.379   -772.04224    175.01374    39.413553    39.249374    23.480787 
   27000    240.30537   -335.52882    216156.16   -20078.286    1522.1474   -21600.434   -791.43618    177.72396     39.41395    39.248475     23.47334 
   27200    234.01596   -270.56449    216156.16   -20120.004    1482.3089   -21602.313   -493.08768    177.12956     39.41357    39.250033    23.465832 
   27400    238.86848   -483.81315    216156.16   -20102.859    1513.0458   -21615.905   -1404.5889    179.50969    39.412066    39.253937    23.480834 
   27600    225.62661   -319.35136    216156.16   -20221.107    1429.1689   -21650.276   -734.58445    180.18268    39.410048    39.254752    23.483955 
   27800    237.88397   -448.52644    216156.16   -20086.553    1506.8097   -21593.362   -1218.4198    181.35126    39.407957    39.253325    23.493589 
   28000     226.2574   -359.40488    216156.16   -20188.396    1433.1644   -21621.561   -894.07128    182.45195    39.408042    39.250272    23.491791 
   28200    239.76316   -462.82575    216156.16   -20132.828     1518.713   -21651.541   -1295.3962    182.79728    39.405355    39.252226     23.49326 
   28400     239.3178   -357.17447    216156.16   -20123.329    1515.8919   -21639.221   -857.60271    181.56191    39.404634    39.251898    23.499253 
   28600    230.68696   -194.70305    216156.16   -20166.723    1461.2223   -21627.946    -160.9379    182.07364    39.405854    39.254315    23.491214 
   28800    239.03218   -252.96627    216156.16   -20173.943    1514.0827   -21688.026   -408.43848    183.92367    39.406174    39.255004    23.495196 
   29000    233.43019   -307.20929    216156.16   -20157.931    1478.5985    -21636.53   -651.67928    184.39068    39.405959    39.257382     23.50534 
   29200    236.27924    -347.7458    216156.16   -20131.532     1496.645   -21628.177   -842.24391    186.16956    39.405478    39.257265    23.517551 
   29400    239.10523   -448.55439    216156.16   -20155.364    1514.5455    -21669.91   -1241.1288    186.51973    39.404325    39.256858    23.549877 
   29600    234.89427   -386.08977    216156.16   -20150.091    1487.8723   -21637.963   -989.06576    187.93069    39.403868    39.258379    23.552275 
   29800    227.85753   -423.56048    216156.16   -20222.172       1443.3   -21665.472   -1151.8409    189.04165    39.402586     39.25916    23.574064 
   30000    222.03002   -251.60546    216156.16   -20267.927    1406.3873   -21674.314   -396.98978     188.7412    39.401337     39.25904    23.568532 
   30200    233.86179   -358.75602    216156.16   -20223.354    1481.3324   -21704.686   -883.37702    189.52467    39.401997    39.262003    23.570515 
   30400    229.66213   -456.45395    216156.16   -20220.529    1454.7308    -21675.26   -1307.0371     190.5719    39.402397    39.260674    23.575191 
   30600    227.10009    -371.2861    216156.16   -20268.613    1438.5023   -21707.115   -911.62453    191.00734    39.401701    39.260212     23.55721 
   30800      237.192   -341.63176    216156.16   -20203.349    1502.4266   -21705.776   -764.27573    191.34408    39.402013    39.260169    23.559857 
   31000    238.56782   -452.21631    216156.16   -20190.021    1511.1414   -21701.162   -1254.8454    192.64375    39.400071    39.259599    23.554088 
   31200    240.72563   -480.42837    216156.16   -20148.278    1524.8094   -21673.087   -1391.2957    192.13944     39.40195    39.259647    23.545566 
   31400    238.47747   -569.35298    216156.16   -20164.496    1510.5691   -21675.065   -1736.3259     192.5767    39.405221    39.259452    23.532261 
   31600    229.92417   -429.20139    216156.16   -20203.165    1456.3906   -21659.555   -1165.9418    194.27465    39.406098    39.258454    23.525425 
   31800    236.71705    -217.1962    216156.16    -20132.65    1499.4182   -21632.068   -291.46172    194.19807     39.40585    39.260855    23.506182 
   32000    234.57959   -442.36709    216156.16   -20215.582     1485.879   -21701.461   -1212.9306     195.1241    39.404517    39.262556    23.505034 
   32200    230.07946   -389.77216    216156.16   -20202.971    1457.3742   -21660.345    -957.2656    196.64466    39.401712    39.265308    23.492988 
   32400    229.50206   -535.57704    216156.16   -20184.289    1453.7168   -21638.005   -1661.3798    197.85282    39.400669    39.266977    23.498063 
   32600    239.00112   -408.69567    216156.16   -20116.171     1513.886   -21630.057   -1107.2304    200.50681     39.39993    39.270007    23.483084 
   32800    239.05109   -311.22818    216156.16   -20100.754    1514.2025   -21614.956   -661.95369    200.44867    39.401015     39.26966    23.503917 
   33000    237.82634   -324.71072    216156.16   -20106.046    1506.4447   -21612.491   -737.48696     202.0543    39.403566    39.270657    23.503325 
   33200    231.76233   -364.60846    216156.16   -20150.017    1468.0339   -21618.051   -931.35046    202.86706    39.404856    39.272423    23.510361 
   33400    233.46844   -191.27214    216156.16   -20213.877    1478.8407   -21692.718   -179.78746    204.61243    39.407444    39.273415    23.511383 
   33600    229.61541    -351.2968    216156.16   -20224.477    1454.4348   -21678.912   -891.66097    203.68165    39.407323    39.274881    23.511024 
   33800    243.90044   -407.91842    216156.16   -20088.079    1544.9194   -21632.998   -1082.3299    206.41721    39.406775    39.276169    23.490494 
   34000    231.10422   -348.22639    216156.16   -20194.745    1463.8653   -21658.611   -836.25041    208.13157    39.408188    39.276154    23.472987 
   34200     232.1724   -339.10547    216156.16    -20194.47    1470.6314   -21665.101   -787.95826    208.35046    39.408606    39.276933    23.500584 
   34400    230.06176   -289.06116    216156.16   -20205.482    1457.2621   -21662.744   -551.79548    209.32389    39.409996    39.276545     23.48083 
   34600    243.78129   -343.62263    216156.16   -20077.253    1544.1646   -21621.417   -750.20842    210.38277    39.410432    39.275547    23.500433 
   34800    233.66974   -166.97806    216156.16   -20171.491    1480.1158   -21651.607   -87.354233    210.37847    39.412818    39.276426       23.519 
   35000    230.15739    -277.2664    216156.16   -20183.793    1457.8679   -21641.661   -546.92361    211.27601    39.416781    39.276858    23.534803 
   35200    241.43612   -384.38553    216156.16   -20106.738    1529.3098   -21636.048   -965.73327    212.94902    39.417007    39.278446    23.541577 
   35400    239.00888   -431.97197    216156.16   -20132.074    1513.9351   -21646.009   -1164.3167    214.35864    39.416212    39.277695    23.534665 
   35600    238.99492   -542.02332    216156.16   -20167.407    1513.8468   -21681.254   -1661.3144    215.17089    39.416941    39.276969    23.543146 
   35800    239.67778   -361.87537    216156.16   -20106.393    1518.1721   -21624.565   -865.38435    215.40491    39.415002    39.275788    23.525212 
   36000     233.6403   -404.69377    216156.16   -20217.055    1479.9294   -21696.985   -1048.1239    216.68912    39.416213    39.275618    23.529711 
   36200    234.30289    -505.6205    216156.16   -20260.744    1484.1264    -21744.87   -1487.1633    217.41227     39.41664    39.275471    23.539388 
   36400    239.57737   -221.97736    216156.16   -20222.982    1517.5361   -21740.519   -317.44371    218.69716    39.416402    39.275762    23.537289 
   36600    231.15499   -376.10418    216156.16     -20213.9    1464.1868   -21678.087   -938.11151    218.57049    39.415623    39.275497    23.541686 
   36800    230.59791   -480.41721    216156.16   -20244.051    1460.6582   -21704.709   -1370.4565    219.60398    39.416432    39.274485    23.526129 
   37000    230.13977   -407.26157    216156.16   -20243.781    1457.7562   -21701.537   -1116.2926    219.72297    39.418072    39.277745    23.521758 
   37200     232.3013   -292.98713    216156.16   -20245.459    1471.4479   -21716.907   -566.36305    220.41925    39.420529    39.279978    23.528476 
   37400    233.11638   -474.61233    216156.16   -20253.344    1476.6108   -21729.955   -1339.1024    221.70115    39.422034    39.280185    23.517594 
   37600    223.09398   -434.90248    216156.16   -20261.627    1413.1267   -21674.754   -1168.8718    222.21401    39.421234    39.281603    23.504763 
   37800    229.53247   -417.73467    216156.16   -20260.945    1453.9095   -21714.855   -1109.6826    223.56391    39.422587    39.281551    23.521533 
   38000    229.95473   -430.50819    216156.16   -20172.608    1456.5841   -21629.192   -1127.5629    224.48901    39.421533    39.281457    23.539173 
   38200    231.77994   -448.82222    216156.16    -20197.05    1468.1455   -21665.195   -1274.3182    226.12378    39.421878    39.284203    23.561526 
   38400    231.26047    -305.0342    216156.16   -20164.342     1464.855   -21629.197   -667.88208    227.25992     39.42284    39.285115    23.575665 
   38600    240.22454    -374.9609    216156.16   -20194.778    1521.6354   -21716.414   -936.81056    228.43617    39.425549    39.285935    23.571717 
   38800     231.7562   -548.87685    216156.16   -20178.264    1467.9951   -21646.259   -1709.7401    229.63586    39.424921    39.286863    23.575458 
   39000     238.0242   -364.95252    216156.16   -20149.823     1507.698   -21657.521   -871.73425    229.56315    39.424637    39.286966    23.590729 
   39200    235.80534   -381.30429    216156.16   -20265.806    1493.6432   -21759.449   -966.94584    230.54672    39.425787    39.286747    23.601346 
   39400    240.59212   -313.12961    216156.16   -20244.991    1523.9638   -21768.955   -649.80203    232.42352      39.4235    39.285233    23.607812 
   39600    243.31805   -430.57338    216156.16   -20198.507    1541.2304   -21739.737    -1193.437    232.09583     39.42396    39.284407    23.624129 
   39800    224.98526   -371.58262    216156.16   -20270.528    1425.1064   -21695.634   -934.61783    231.49118    39.420308    39.284139    23.613629 
   40000    236.95204   -328.33725    216156.16   -20203.909    1500.9067   -21704.816    -748.5059    231.73125    39.420222    39.286252    23.632687 
   40200    238.38478   -472.15989    216156.16   -20224.774     1509.982   -21734.756   -1326.8592    233.82889    39.419421    39.283841    23.640803 
   40400    231.46379   -419.00766    216156.16   -20242.151    1466.1429   -21708.294   -1120.8293     234.4173    39.420205    39.284401    23.629332 
   40600    241.03732   -366.08621    216156.16   -20159.472    1526.7837   -21686.256   -880.75439    234.43151     39.42162    39.282422    23.628568 
   40800    234.10115   -274.40667    216156.16   -20234.087    1482.8485   -21716.935   -521.15068    236.64118    39.420693    39.283773    23.632168 
   41000    230.70734   -551.63572    216156.16    -20241.99    1461.3514   -21703.342    -1691.249    236.98154    39.419954    39.283113    23.629076 
   41200    233.79428   -444.13475    216156.16   -20162.186    1480.9047    -21643.09   -1194.3856    237.47476    39.417794    39.286766    23.654943 
   41400    235.35212    -466.7341    216156.16   -20187.998    1490.7725    -21678.77   -1311.2478    238.54435    39.420084    39.291068    23.646624 
   41600    238.16994   -372.01066    216156.16   -20202.157    1508.6211   -21710.778   -919.34117    238.42443    39.423029    39.289901    23.641355 
   41800    233.48806   -542.21594    216156.16   -20219.909    1478.9651   -21698.874     -1666.28    239.68262    39.425907     39.28836     23.66413 
   42000    236.10255   -421.24556    216156.16   -20246.046    1495.5258   -21741.572   -1120.4588    240.27555    39.424811    39.287955    23.658601 
   42200    234.21965   -416.70145    216156.16   -20272.095    1483.5991   -21755.694   -1112.4986    240.78639    39.426334    39.285515    23.647998 
   42400    233.14527   -547.34606    216156.16   -20221.566    1476.7937   -21698.359   -1665.5811    242.68537     39.42678     39.28255    23.664798 
   42600    232.51392   -435.37704    216156.16   -20261.226    1472.7946    -21734.02   -1237.0925    243.38867    39.426445    39.278878    23.673228 
   42800    237.64932   -336.48937    216156.16   -20193.943    1505.3234   -21699.267   -786.39553     244.0776    39.426227    39.277719    23.697401 
   43000     236.3161   -285.70476    216156.16   -20192.735    1496.8785   -21689.614   -636.75696      245.041    39.428201    39.275676    23.693457 
   43200    231.92492   -278.60362    216156.16   -20203.628    1469.0638   -21672.691   -517.56793    248.06711     39.43033    39.275485    23.725646 
   43400    235.03035   -302.08094    216156.16   -20205.415    1488.7343    -21694.15   -629.02534    248.37693    39.429915    39.276085    23.747248 
   43600    239.35811   -300.20451    216156.16   -20246.271    1516.1473   -21762.419   -685.96067    248.50915    39.430088    39.275578    23.741117 
   43800    233.96928   -524.86224    216156.16    -20267.02    1482.0132   -21749.033   -1564.9373    248.99284    39.428854    39.277028    23.735833 
   44000    227.37733   -172.78351    216156.16    -20288.57    1440.2583   -21728.828   -1.6150789       250.53    39.429187     39.27824    23.734581 
   44200    235.09256   -422.17503    216156.16   -20267.071    1489.1283   -21756.199   -1147.5051    250.16702    39.429614    39.278588    23.712101 
   44400    234.16219   -534.29551    216156.16   -20317.149    1483.2351   -21800.384   -1579.4616    250.63411    39.430395    39.279284    23.729989 
   44600    234.57934   -378.49431    216156.16   -20318.362    1485.8774    -21804.24   -951.89474     251.0927    39.429807    39.279986    23.724052 
   44800    228.23764   -294.31358    216156.16   -20292.612    1445.7077    -21738.32   -625.24075    251.45809    39.429956    39.281273    23.712285 
   45000    243.16945   -344.52351    216156.16    -20253.31    1540.2892     -21793.6   -797.14498    254.10442    39.431764    39.282965    23.720262 
   45200    236.71955   -358.65609    216156.16   -20215.635     1499.434   -21715.069   -819.99524    254.36278    39.432636    39.282487     23.72604 
   45400    228.30963   -453.25916    216156.16   -20279.707    1446.1637   -21725.871   -1281.9714    254.31383    39.432108    39.283215    23.732527 
   45600    243.52257    -341.8767    216156.16   -20216.399    1542.5258   -21758.925   -787.69598    256.96124    39.433281    39.284317    23.734655 
   45800    237.25352    -399.0989    216156.16   -20272.759    1502.8163   -21775.576   -1034.6875    256.00078    39.431778    39.285808    23.731489 
   46000    238.50393   -412.33024    216156.16   -20158.221    1510.7367   -21668.958   -1072.2363    256.11916    39.430865    39.284307    23.752291 
   46200    235.87094   -395.00302    216156.16    -20128.97    1494.0587   -21623.029   -1045.3181     256.0743    39.432277    39.285777     23.77399 
   46400    234.83204   -550.55139    216156.16   -20213.564    1487.4781   -21701.042   -1661.1275     257.8507    39.432037    39.285992    23.788633 
   46600     231.9042   -443.75004    216156.16   -20216.326    1468.9325   -21685.258   -1237.7924    258.38306    39.433337    39.289149    23.769665 
   46800    240.24207   -403.20783    216156.16   -20193.002    1521.7464   -21714.748   -1027.3765    260.61757     39.43576    39.289123    23.745708 
   47000    234.68932   -357.56165    216156.16   -20166.504    1486.5741   -21653.078   -873.79724    261.77505    39.437553    39.290151    23.762583 
   47200     233.4482   -512.40645    216156.16   -20261.873    1478.7126   -21740.585   -1544.0143    262.22008    39.439154    39.292263    23.748405 
   47400    239.23353    -478.4915    216156.16   -20191.903    1515.3581   -21707.261   -1370.9174    263.58951    39.438643    39.295209     23.74525 
   47600    238.06398    -295.5228    216156.16   -20222.952    1507.9499   -21730.902   -559.66857    263.52328    39.438023    39.298881    23.756612 
   47800    230.85309   -482.40331    216156.16   -20239.117    1462.2746   -21701.392   -1392.9203    264.55738     39.44025    39.299306    23.768026 
   48000    235.81499   -282.50557    216156.16   -20213.307    1493.7043   -21707.012   -522.51704    266.46301    39.438906    39.298201    23.747409 
   48200    237.24237   -375.70545    216156.16   -20243.706    1502.7457   -21746.452   -904.46943    266.64044    39.441177    39.295756    23.759846 
   48400    231.54113   -461.24474    216156.16   -20234.526    1466.6328   -21701.159   -1327.8668    265.59846     39.43947    39.296191    23.772788 
   48600     233.1532   -387.66408    216156.16   -20293.744     1476.844   -21770.588   -969.86786    266.93422    39.438674    39.294618    23.757417 
   48800    237.06455   -431.89949    216156.16   -20250.861    1501.6193    -21752.48   -1166.5666    268.52968    39.438801     39.29508    23.758974 
   49000    225.74132   -392.16883    216156.16   -20204.184    1429.8955   -21634.079    -973.9787    269.59279    39.438904    39.293285    23.762048 
   49200    232.69648   -400.54583    216156.16   -20139.119     1473.951    -21613.07   -1034.9527    271.08681    39.443017    39.291623    23.740771 
   49400    230.57577   -519.53259    216156.16   -20199.408     1460.518   -21659.925   -1521.3128    272.28419    39.446186    39.292063    23.699505 
   49600    234.21301   -274.96608    216156.16   -20189.729     1483.557   -21673.286   -505.67841    272.22883    39.446274    39.293085    23.689572 
   49800    238.47157   -532.00389    216156.16   -20170.695    1510.5317   -21681.227   -1595.4338    273.20198    39.447122    39.293218    23.688042 
   50000    233.47588   -335.16068    216156.16   -20171.925    1478.8879   -21650.813   -753.64896    273.67028    39.447528     39.29223    23.692521 
   50200    242.29082   -254.38017    216156.16   -20092.355    1534.7237   -21627.079   -414.28011    274.00647    39.444208    39.294356     23.69715 
   50400    233.45162   -448.99662    216156.16   -20150.554    1478.7342   -21629.289   -1229.6461    274.57161    39.444773    39.295962    23.700441 
   50600    233.73249   -539.75795    216156.16   -20046.235    1480.5133   -21526.748   -1661.7749    276.94219     39.44577    39.297885    23.698734 
   50800    230.34494   -393.96935    216156.16   -20188.767    1459.0558   -21647.823   -1003.7317    276.39394    39.444785    39.299355    23.696064 
   51000    230.84906   -439.12418    216156.16    -20128.17     1462.249   -21590.419   -1249.5271    276.30645    39.446509    39.299904     23.67489 
   51200    236.24721     -308.128    216156.16   -20143.944    1496.4422   -21640.386   -660.91764    277.44084    39.447415    39.299863    23.691156 
   51400    238.86738   -401.06461    216156.16   -20148.064    1513.0389   -21661.102   -1039.7855    277.36629    39.446198    39.301644    23.690695 
   51600    234.39753   -303.02506    216156.16   -20183.364    1484.7259   -21668.089     -615.482    279.45677     39.44724    39.303218      23.6782 
   51800    237.25058   -294.16019    216156.16   -20164.716    1502.7977   -21667.514   -575.56168     279.0027    39.448702    39.303891    23.664835 
   52000    231.31174   -486.97957    216156.16   -20218.265    1465.1797   -21683.445   -1418.4234    281.83148    39.448129    39.304268    23.660067 
   52200    232.87001     -280.849    216156.16    -20240.76    1475.0502    -21715.81   -513.63933    282.92555    39.449065    39.303957    23.643694 
   52400    229.03026   -373.49455    216156.16   -20288.623    1450.7284   -21739.352   -947.40029    284.14081    39.447181    39.305487    23.627192 
   52600    233.09382    -272.8072    216156.16   -20207.361    1476.4678   -21683.829   -484.59583    285.15032    39.446363    39.306171    23.615947 
   52800     236.3134   -288.94588    216156.16   -20127.324    1496.8614   -21624.186   -582.76733       284.63    39.445138    39.304581    23.621964 
   53000    241.63823   -264.80655    216156.16   -20109.825      1530.59   -21640.415   -445.15622    284.87824     39.44209     39.30564    23.654728 
   53200    231.05754   -399.11039    216156.16    -20200.32    1463.5696   -21663.889   -1048.1567    285.26799    39.442348    39.306917    23.662181 
   53400    237.79407   -427.49362    216156.16   -20191.883    1506.2403   -21698.123   -1142.6247    286.42343    39.443509    39.305991    23.648734 
   53600    229.29525   -521.04602    216156.16   -20250.151    1452.4069   -21702.558   -1546.1512    287.24705    39.442982     39.30939    23.617119 
   53800    231.66884   -378.01776    216156.16   -20224.131    1467.4417   -21691.573   -902.58709    289.45229    39.441977    39.309443    23.622311 
   54000    234.44155   -441.83132    216156.16   -20232.393    1485.0047   -21717.398   -1222.6106     290.5844     39.43807    39.311392    23.590035 
   54200    235.72414   -467.24171    216156.16   -20208.372    1493.1289     -21701.5   -1345.4401      290.405    39.434855    39.310618    23.609105 
   54400    236.13718   -425.87249    216156.16   -20136.755    1495.7451     -21632.5   -1159.4528    289.34929    39.435556    39.309865    23.621354 
   54600    239.98241   -320.32692    216156.16   -20186.027    1520.1017   -21706.129   -729.10107    290.01083     39.43799    39.309691    23.601355 
   54800    236.47541   -419.33434    216156.16   -20167.647    1497.8876   -21665.535   -1145.7232    290.84689    39.436412    39.311312    23.622101 
   55000    239.70121   -522.77181    216156.16   -20132.511    1518.3205   -21650.832   -1561.7594    291.61334    39.436521    39.313365      23.6273 
   55200     225.3621    -611.9686    216156.16   -20256.741    1427.4934   -21684.235   -1932.0187    291.28998     39.43595     39.31189    23.631054 
   55400    236.28719    -136.6952    216156.16   -20174.953    1496.6954   -21671.649    99.664507    290.70118    39.437278    39.310755    23.635866 
   55600    232.82023   -357.68094    216156.16    -20149.54    1474.7349   -21624.275   -891.04785    292.33543    39.436144    39.310841    23.655374 
   55800    245.71733     -246.885    216156.16   -20048.874    1556.4279   -21605.301   -354.91378    292.98206    39.436865    39.310844    23.629627 
   56000    236.46103   -359.86513    216156.16   -20099.369    1497.7965   -21597.166   -879.83428    293.71464    39.436755    39.311148    23.649085 
   56200    233.27088   -390.60804    216156.16   -20089.993    1477.5894   -21567.583   -994.71416    294.91965    39.437484    39.312467    23.655023 
   56400    228.38189   -510.84706    216156.16     -20168.5    1446.6214   -21615.121   -1505.0593    296.04603    39.437389    39.311514    23.677642 
   56600    228.84491   -503.84509    216156.16   -20242.156    1449.5543    -21691.71   -1510.1224    295.93258      39.4357    39.311151    23.679458 
   56800    240.75099   -346.38792    216156.16   -20157.439      1524.97   -21682.409   -850.19272    297.24874    39.433381    39.311489    23.673908 
   57000    232.41142   -422.11344    216156.16   -20240.409    1472.1454   -21712.555   -1190.1874    297.39328    39.432302    39.312394    23.642128 
   57200    240.09639   -296.28231    216156.16   -20155.588    1520.8237   -21676.412     -600.057    299.53619     39.43175      39.3139    23.647572 
   57400    234.15803   -370.74862    216156.16   -20202.705    1483.2088   -21685.914   -917.59355    299.43507    39.432668    39.314669    23.627741 
   57600    226.09331   -405.63334    216156.16   -20255.582     1432.125   -21687.708   -1067.4982    299.43224    39.430974     39.31306    23.639171 
   57800     234.1802    -300.9069    216156.16   -20155.175    1483.3492   -21638.524   -675.53818    299.51457     39.43161    39.310766    23.640497 
   58000    238.51737   -458.79776    216156.16   -20162.632    1510.8218   -21673.453   -1311.6517    301.81046    39.429745    39.311524    23.627729 
   58200    237.82793    -411.1874    216156.16   -20155.231    1506.4548   -21661.685    -1046.255    302.00683    39.428363    39.311699    23.648836 
   58400    239.41404   -441.38738    216156.16   -20182.379    1516.5015    -21698.88   -1277.8671    304.16057    39.429391    39.311147     23.64914 
   58600    227.77253   -301.20788    216156.16   -20214.492    1442.7616   -21657.254    -615.0124     304.9309    39.428041    39.311917    23.665234 
   58800    231.42491   -297.08659    216156.16   -20205.502    1465.8966   -21671.399   -617.69932    307.46741    39.429365    39.310783     23.66638 
   59000    237.10139    -268.2879    216156.16   -20147.893    1501.8527   -21649.746   -493.73403     308.0621    39.428411     39.31086    23.681594 
   59200    230.24026   -456.97718    216156.16   -20192.196    1458.3928   -21650.589   -1295.0805     310.0677    39.431836    39.312423    23.689072 
   59400    231.56235    -404.0346    216156.16   -20202.529    1466.7672   -21669.296   -1091.6594    310.49485    39.431934    39.312008    23.679815 
   59600    227.09677   -340.36634    216156.16   -20263.612    1438.4812   -21702.093   -795.56202    309.79676    39.433883    39.311301     23.67873 
   59800    240.74178   -252.84067    216156.16   -20184.735    1524.9118   -21709.647   -398.93135    309.86576    39.435434    39.312679    23.695464 
   60000    241.33893   -334.71132    216156.16   -20160.424    1528.6942   -21689.118   -787.71507    311.43378    39.436527    39.312818    23.694976 
   60200    232.31483   -420.48349    216156.16   -20206.441    1471.5336   -21677.974   -1154.0971    311.88041    39.439718    39.312002    23.685071 
   60400    237.49496   -393.99602    216156.16   -20139.308    1504.3457   -21643.654   -1042.2233    312.23907     39.44391    39.309755    23.685045 
   60600    239.35043   -356.02036    216156.16   -20124.507    1516.0986   -21640.606   -829.51391    313.73322    39.445204    39.309053    23.683746 
   60800    237.47014   -343.56472    216156.16   -20089.363    1504.1884   -21593.552   -811.39623    313.34259    39.444153    39.310564    23.694577 
   61000    235.15013   -392.54247    216156.16   -20167.778     1489.493   -21657.271   -992.55086    315.22029    39.443128     39.31071    23.727158 
   61200    237.19862   -499.89333    216156.16   -20132.024    1502.4686   -21634.493   -1481.1949    315.56641    39.442905    39.313655    23.750981 
   61400    238.52338   -300.84227    216156.16   -20179.901    1510.8599   -21690.761    -625.4193    316.54792    39.442782    39.315319    23.750083 
   61600    237.22159   -566.96698    216156.16   -20192.423     1502.614   -21695.037   -1794.9786    318.17399    39.442583    39.316998     23.74629 
   61800    229.82031   -299.16087    216156.16   -20274.021    1455.7327   -21729.753   -585.23261    318.36539    39.443197      39.3176    23.770323 
   62000    235.21686   -373.41732    216156.16   -20245.246    1489.9157   -21735.162   -934.38185    319.45025    39.444356    39.318074    23.771215 
   62200     236.4003   -386.67142    216156.16    -20226.48    1497.4118   -21723.891   -937.60386      319.012    39.447096    39.319628    23.766077 
   62400    236.39612   -662.38252    216156.16   -20200.567    1497.3854   -21697.952   -2094.8163    320.78966    39.448616    39.317125    23.763738 
   62600     234.1555   -467.76065    216156.16   -20247.875    1483.1928   -21731.068   -1361.8648    322.42905    39.447695    39.316522    23.770364 
   62800    231.04286   -375.93761    216156.16   -20295.994    1463.4766   -21759.471   -938.14814    323.92323    39.449365     39.31588    23.777279 
   63000    233.87924   -410.60384    216156.16   -20152.497    1481.4429    -21633.94   -1097.9783    323.69592    39.450202    39.313838    23.798019 
   63200    240.62592   -375.00571    216156.16    -20167.37    1524.1778   -21691.548   -980.05949    323.99343    39.450081    39.315928    23.801925 
   63400    233.62051   -328.05122    216156.16   -20239.354     1479.804   -21719.158   -733.78162    324.90602    39.450948    39.317147    23.804336 
   63600    233.60406   -404.90663    216156.16   -20225.266    1479.6998   -21704.966   -1070.6831    326.22541    39.448238    39.315661    23.805701 
   63800    230.14266    -348.7344    216156.16   -20292.521    1457.7746   -21750.295   -828.56206    326.17385    39.447378    39.317256    23.808178 
   64000    241.04963   -303.24626    216156.16   -20172.691    1526.8617   -21699.553   -670.99077    327.56297    39.447459     39.31708    23.801572 
   64200    240.95553   -491.10873    216156.16   -20171.838    1526.2656   -21698.103    -1407.811    327.52502    39.449015    39.315639    23.796905 
   64400    240.60754   -413.75145    216156.16   -20187.312    1524.0614   -21711.373   -1064.8175    326.77736    39.448222    39.315233    23.762849 
   64600    228.96778   -345.47527    216156.16   -20254.757    1450.3326   -21705.089   -847.15875    326.52265    39.445062    39.315941     23.73913 
   64800    235.40615   -480.00743    216156.16   -20261.408    1491.1147   -21752.522   -1423.5105    328.04017    39.445084    39.316888    23.716539 
   65000    239.42865   -344.59696    216156.16   -20148.565     1516.594   -21665.159   -851.47598    326.46098    39.445099    39.317281    23.744551 
   65200    240.03043   -409.44215    216156.16   -20202.126    1520.4059   -21722.532   -1063.2156    327.31732    39.442639    39.316701    23.767073 
   65400    240.90136   -248.56444    216156.16   -20213.701    1525.9226   -21739.623   -343.67997    328.11908    39.444602     39.31478    23.778992 
   65600    237.44572   -417.43588    216156.16   -20185.925    1504.0337   -21689.959   -1115.0538     329.5822    39.444553    39.314625    23.801312 
   65800    235.87232   -443.57525    216156.16    -20215.72    1494.0675   -21709.788   -1205.4717    330.85823    39.443405    39.316562    23.769402 
   66000    233.31046   -248.28073    216156.16   -20237.838    1477.8401   -21715.679   -410.67352    330.30055     39.44421    39.317508    23.759116 
   66200    230.52718   -373.47556    216156.16    -20275.93    1460.2102    -21736.14   -920.78502     329.6762     39.44412    39.319225    23.752929 
   66400    231.28402   -483.09516    216156.16   -20228.954    1465.0042   -21693.958   -1394.4671    330.35268    39.445159    39.320478     23.74865 
   66600    225.69376   -393.79785    216156.16   -20261.107    1429.5943   -21690.701   -1013.3615    331.25515    39.446928    39.322101    23.752283 
   66800    232.32897   -323.94798    216156.16   -20235.471    1471.6231   -21707.095   -782.72942    330.86025    39.444686     39.32293    23.721971 
   67000     231.8823   -474.24586    216156.16   -20292.465    1468.7938   -21761.259   -1322.3326    332.51562    39.442335    39.327654     23.68922 
   67200     235.9657    -257.8906    216156.16   -20236.466    1494.6589   -21731.125   -474.94149    332.17475    39.445455    39.330025    23.666105 
   67400    237.63405   -317.60186    216156.16   -20208.664    1505.2267    -21713.89   -725.43614    332.23981    39.446631    39.331801    23.658114 
   67600    241.77881   -468.73838    216156.16   -20158.068    1531.4805   -21689.549   -1336.5438     333.5351    39.446678    39.332365    23.677765 
   67800    235.80968   -324.16461    216156.16   -20175.884    1493.6707   -21669.555   -708.79781    334.37011    39.446514    39.334982    23.695587 
   68000     238.7484    -442.7565    216156.16   -20232.564    1512.2852    -21744.85   -1228.7046    336.60396    39.448045    39.334319    23.703588 
   68200    228.97461   -388.20133    216156.16   -20234.321    1450.3759   -21684.697   -982.89334    336.77508    39.448372    39.336235    23.730096 
   68400    237.40796   -252.81629    216156.16   -20210.377    1503.7946   -21714.172   -429.33645    336.46646    39.444912    39.336453    23.737229 
   68600    235.16692   -424.34662    216156.16   -20230.424    1489.5993   -21720.023   -1132.3737    335.35933    39.443693    39.338899    23.720629 
   68800    229.89904   -384.85807    216156.16    -20174.54    1456.2314   -21630.772   -992.27935    336.79806    39.440898    39.340481    23.708201 
   69000    235.34196    -439.7576    216156.16   -20189.541    1490.7081   -21680.249   -1244.4973    336.46475    39.440826    39.342121    23.691343 
   69200    232.06594   -432.22389    216156.16   -20253.944     1469.957   -21723.901   -1175.7931    335.49805     39.43943    39.344011    23.725958 
   69400    227.74273    -364.6544    216156.16   -20287.876    1442.5729   -21730.448   -904.58828    337.93877    39.437756    39.345887    23.739727 
   69600    237.60957   -358.48117    216156.16   -20120.282    1505.0716   -21625.353   -900.37451    338.43462    39.438733    39.345171    23.730658 
   69800    233.01175   -337.34663    216156.16   -20239.895     1475.948   -21715.843   -775.93624    338.40601    39.441448    39.346397    23.740517 
   70000    236.04047   -399.18212    216156.16    -20251.28    1495.1326   -21746.412   -1048.1401    339.62072    39.442297    39.347847    23.742093 
   70200    233.77208   -364.94833    216156.16   -20259.959    1480.7641   -21740.723   -876.22234    341.03094    39.441807    39.349253     23.73466 
   70400    237.48568   -227.50448    216156.16   -20205.266    1504.2869   -21709.553   -315.14271    341.41569    39.444008    39.350526    23.740014 
   70600    231.26388   -525.57505    216156.16   -20280.576    1464.8766   -21745.453   -1564.2707     340.9996    39.445653    39.351202     23.72551 
   70800    236.37355   -372.54407    216156.16   -20251.395    1497.2424   -21748.638   -961.13697     341.9606    39.446579    39.351376    23.715382 
   71000    228.19414   -365.61392    216156.16   -20255.311    1445.4322   -21700.744   -919.62024    341.74812    39.445742    39.350146    23.718124 
   71200    235.94862   -510.81805    216156.16   -20249.304    1494.5508   -21743.855   -1500.1979    342.60721    39.445526    39.348865    23.715897 
   71400    226.87445    -353.5399    216156.16    -20217.26     1437.073   -21654.333   -883.71651    343.07968    39.443466    39.348841    23.708289 
   71600     238.5866   -391.74935    216156.16    -20168.43    1511.2603    -21679.69   -982.89388    344.34942    39.442999    39.349374    23.734056 
   71800    236.09032   -498.85866    216156.16   -20266.433    1495.4483   -21761.882   -1489.3042    344.79599    39.443686    39.349275    23.757493 
   72000    227.01992   -436.08941    216156.16   -20261.817    1437.9944   -21699.812   -1156.4889    346.66107    39.445632    39.349948    23.735803 
   72200    243.71581   -374.99584    216156.16    -20118.23    1543.7499    -21661.98   -977.21245    346.53088    39.444133    39.351405    23.758064 
   72400    232.56041   -686.90599    216156.16    -20184.26    1473.0891   -21657.349     -2298.68    346.28816    39.445127    39.352109     23.78656 
   72600    235.91813   -415.00498    216156.16   -20147.077    1494.3577   -21641.434    -1172.691    348.47769    39.447213    39.351118    23.786658 
   72800    240.56076   -464.34921    216156.16   -20163.061    1523.7651   -21686.826   -1378.5544    348.54483    39.444301    39.349586    23.775554 
   73000    234.27333   -422.23664    216156.16    -20207.13    1483.9392   -21691.069   -1152.4982    348.57294    39.443553    39.348027    23.776417 
   73200     241.1852   -479.74369    216156.16   -20115.199    1527.7204   -21642.919   -1385.9672    348.80608    39.443403    39.346841    23.786868 
   73400     235.4825   -471.19167    216156.16   -20114.524    1491.5983   -21606.122   -1358.1095    350.06336    39.444193    39.346448    23.793204 
   73600    237.23014   -319.12148    216156.16   -20141.658    1502.6682   -21644.326   -664.07058    349.92215    39.442697    39.348107    23.777452 
   73800    231.02611   -398.29581    216156.16   -20256.754    1463.3705   -21720.124   -1067.2968     349.1859    39.442984    39.348097    23.766062 
   74000    226.46627   -317.19566    216156.16   -20244.264    1434.4875   -21678.752   -749.06618    350.24469    39.441426    39.345917    23.778875 
   74200    233.51364   -333.17734    216156.16   -20158.363    1479.1271    -21637.49   -790.29428    351.83885    39.441168    39.345798    23.780076 
   74400    235.03163   -333.03064    216156.16    -20133.58    1488.7424   -21622.322   -843.73911    351.73526    39.439974     39.34753    23.779171 
   74600    236.49595   -328.24196    216156.16   -20213.746    1498.0177   -21711.764   -796.23835    350.70971    39.440008    39.347549    23.776446 
   74800    236.13818   -406.18488    216156.16   -20204.421    1495.7515   -21700.172   -1116.5725    350.24199    39.438567    39.345009    23.754118 
   75000    232.31794   -313.88766    216156.16   -20196.704    1471.5533   -21668.257   -676.17891    352.25419    39.437136    39.342581    23.733137 
   75200    234.55383   -433.55636    216156.16   -20105.011    1485.7159   -21590.726   -1203.4566    355.43303    39.438137     39.34142    23.733134 
   75400    232.22506   -474.64394    216156.16   -20221.557     1470.965   -21692.522   -1360.2009     354.4353     39.43836    39.339627    23.721236 
   75600    233.89576   -371.56475    216156.16   -20170.374    1481.5475   -21651.922   -967.90159    355.78483    39.437916    39.341199    23.727855 
   75800    235.00917   -281.21011    216156.16   -20126.154    1488.6001   -21614.754   -559.41021    355.91776    39.439263    39.341854    23.745681 
   76000    233.61731   -316.81097    216156.16    -20163.04    1479.7838   -21642.824   -696.24389    357.64079    39.443301    39.341373    23.770681 
   76200     224.8087   -401.81108    216156.16   -20245.544    1423.9881   -21669.532   -1055.8302    358.82762    39.443554    39.339849    23.766852 
   76400    236.72377   -298.95038    216156.16    -20222.47    1499.4607   -21721.931   -602.34431    357.95282    39.444321    39.340017    23.784723 
   76600    232.15943   -350.52982    216156.16   -20205.084    1470.5492   -21675.634   -821.75391    359.37471    39.445016    39.340439    23.787062 
   76800    227.48853   -416.00281    216156.16   -20218.358    1440.9627    -21659.32   -1146.7611    360.22233    39.444834      39.3408    23.778319 
   77000    240.24152   -341.72062    216156.16   -20207.978     1521.743   -21729.721   -814.95478    362.10757    39.444694    39.340777    23.769889 
   77200    234.88055   -491.97925    216156.16    -20157.54    1487.7854   -21645.326   -1486.4324    360.69269    39.445354     39.34129    23.758937 
   77400    234.81597   -364.56566    216156.16   -20177.729    1487.3763   -21665.105   -921.00741    362.58225    39.446324    39.341273    23.768971 
   77600    237.84217   -302.67207    216156.16   -20215.099    1506.5449   -21721.644   -649.27113    362.57045    39.447683    39.339414    23.766049 
   77800    237.94388    -406.6313    216156.16   -20153.217    1507.1892   -21660.406   -1124.8407     364.1922     39.44873    39.339677    23.751636 
   78000    236.56539   -307.74435    216156.16   -20219.269    1498.4576   -21717.726   -680.59466    364.06788    39.447939    39.339315    23.766232 
   78200    239.50735   -328.11901    216156.16   -20123.402    1517.0926   -21640.495   -780.64619    364.55837    39.446239    39.339469    23.798686 
   78400    238.56398   -318.39324    216156.16   -20138.288     1511.117   -21649.405   -728.24456    365.20854    39.443801    39.338549    23.796741 
   78600    241.28839   -396.17394    216156.16   -20161.385    1528.3741   -21689.759   -1058.8845    368.30367    39.443029     39.33789    23.793615 
   78800    237.00659   -304.25664    216156.16   -20157.017    1501.2522    -21658.27   -652.05287    368.55708    39.443412    39.335444    23.783069 
   79000     235.9099   -434.29179    216156.16   -20133.347    1494.3055   -21627.653   -1206.8629    369.66583    39.444538    39.333328    23.760288 
   79200    235.64723   -307.59615    216156.16   -20103.392    1492.6417   -21596.033   -673.81165    370.89328    39.441681    39.332094    23.743317 
   79400     238.6811   -370.63473    216156.16   -20070.528    1511.8589   -21582.387   -926.01896    372.70082    39.443215    39.331589    23.742144 
   79600    230.78495   -514.71181    216156.16   -20232.246     1461.843   -21694.089   -1539.1453    371.87421    39.443113    39.330545    23.727298 
   79800    234.03858   -401.17505    216156.16    -20213.45    1482.4522   -21695.902   -1024.7174    371.12286    39.444032    39.328813    23.725464 
   80000    226.70294   -319.69226    216156.16   -20221.699    1435.9866   -21657.686    -719.2333    370.92794    39.447068    39.330277     23.72017 
   80200     232.5753    -345.3903    216156.16   -20248.595    1473.1835   -21721.778   -824.18708    372.72737    39.446753    39.330857     23.71317 
   80400     231.4998    -242.9072    216156.16   -20240.662     1466.371   -21707.033   -377.68985    373.49578    39.445721    39.332893    23.694811 
   80600    233.65582   -304.12813    216156.16   -20234.587    1480.0277   -21714.614   -674.04626    374.47271    39.443387    39.332349    23.693716 
   80800    236.05327   -418.06613    216156.16   -20223.062    1495.2136   -21718.276   -1121.0583    375.31766     39.44421    39.332169     23.69945 
   81000    236.30665   -305.29554    216156.16   -20241.827    1496.8187   -21738.646    -623.7663    375.63729    39.444967    39.331268    23.706098 
   81200    231.84784   -564.49754    216156.16   -20236.548    1468.5755   -21705.124   -1757.9276    378.53145    39.445328    39.330667     23.70199 
   81400    226.18527   -416.54591    216156.16   -20178.261    1432.7076   -21610.969   -1132.4315    379.90525    39.446813    39.330955    23.698732 
   81600    232.20147   -477.78991    216156.16   -20230.141    1470.8155   -21700.956   -1409.1549    380.21173    39.445067    39.330801    23.692415 
   81800    230.74085   -444.36945    216156.16   -20284.264    1461.5636   -21745.827   -1220.4281    378.51623    39.444375    39.328797    23.699268 
   82000    236.20104   -366.84818    216156.16   -20203.668    1496.1497   -21699.818   -881.83199    378.75447    39.444666    39.327013    23.692171 
   82200    241.65519    -158.4151    216156.16   -20163.568    1530.6974   -21694.265 -0.074549511    379.60656    39.444904    39.325949    23.711652 
   82400    237.78374   -379.73137    216156.16   -20238.659    1506.1748   -21744.834   -921.14615    381.35993    39.443125    39.326954    23.717044 
   82600    235.36608   -205.47571    216156.16   -20150.175    1490.8609   -21641.036   -210.78179    381.65883    39.441462    39.326518    23.727912 
   82800     237.4539   -356.06393    216156.16   -20195.028    1504.0856   -21699.113   -864.61045    381.19441     39.44165    39.324761    23.760686 
   83000    243.79932   -385.71309    216156.16   -20132.844    1544.2789   -21677.123   -985.60389    382.62693    39.441219    39.325828    23.762999 
   83200    232.42694   -288.62516    216156.16   -20197.641    1472.2437   -21669.885   -557.15526    384.83846    39.442368    39.326684    23.768826 
   83400     229.6149   -474.32313    216156.16   -20217.803    1454.4316   -21672.235   -1377.2582    385.73608    39.444241    39.326264    23.774239 
   83600    232.15209    -372.4831    216156.16    -20270.69    1470.5027   -21741.193   -955.41592    385.51515    39.447539    39.328485    23.767004 
   83800    226.64392   -493.65383    216156.16   -20260.187    1435.6128     -21695.8   -1478.6597     385.7894    39.450227    39.327904    23.769616 
   84000    229.03786   -273.08944    216156.16   -20244.452    1450.7765   -21695.228   -491.96233    384.74615    39.449376    39.329117    23.768568 
   84200    232.23201   -283.77691    216156.16   -20212.023     1471.009   -21683.032   -600.58183    385.00049    39.450841    39.330243    23.778587 
   84400    234.91121   -408.84503    216156.16    -20252.76    1487.9796    -21740.74   -1079.1511    387.73446    39.450082    39.330391    23.787199 
   84600    237.99754   -418.92565    216156.16   -20186.385    1507.5291   -21693.914   -1144.2702    388.17529     39.44929    39.332621    23.780991 
   84800    236.41813   -323.86769    216156.16    -20234.29    1497.5248   -21731.815   -753.15302    389.11333    39.449717    39.332111    23.778159 
   85000    238.44689   -393.64945    216156.16   -20219.613    1510.3754   -21729.988   -1044.1493    388.91334    39.452292    39.332089    23.779896 
   85200    226.57558   -282.40297    216156.16   -20253.658    1435.1799   -21688.838    -529.8956    389.61021    39.454692    39.332173    23.769495 
   85400    231.55466   -388.10451    216156.16   -20290.972    1466.7185   -21757.691   -980.99177    391.49333    39.457024    39.334674    23.765564 
   85600    232.88356   -523.09934    216156.16   -20257.987     1475.136   -21733.123   -1568.8661    392.09431    39.456117    39.339402    23.762167 
   85800    238.72382    -445.8246    216156.16   -20183.329    1512.1295   -21695.458   -1264.0859    392.05914    39.456148    39.340921    23.757769 
   86000    236.64691   -294.28193    216156.16   -20200.463    1498.9739   -21699.437   -642.88563     390.6383    39.454822    39.342531    23.752743 
   86200    233.54543   -258.38307    216156.16   -20183.063    1479.3284   -21662.392    -475.7611    392.19448    39.452539    39.343979    23.744693 
   86400    231.22759   -328.25392    216156.16   -20234.556    1464.6468   -21699.203   -729.99804    392.82626    39.452741    39.345062    23.723496 
   86600    240.72111   -338.30338    216156.16   -20190.746    1524.7808   -21715.527    -839.0227    393.69359    39.453527    39.344039    23.727671 
   86800    223.83517   -522.15415    216156.16   -20253.928    1417.8215   -21671.749   -1565.8075    395.40771    39.453785    39.343899    23.741885 
   87000    239.89159   -435.25122    216156.16   -20179.212    1519.5265   -21698.738   -1185.6999    396.18007    39.452755    39.345764    23.719274 
   87200    233.72085    -446.4235    216156.16   -20137.613    1480.4396   -21618.053   -1232.2739    398.41523    39.451085    39.345268    23.741279 
   87400    233.48611   -295.34968    216156.16   -20243.148    1478.9527   -21722.101   -613.40878    398.43577    39.450955    39.344077     23.75575 
   87600    235.01279   -403.08394    216156.16   -20176.083     1488.623   -21664.706   -1067.3465    400.15463     39.44983    39.343243    23.763895 
   87800    237.23553    -456.7752    216156.16   -20217.106    1502.7023   -21719.809   -1281.3044    399.14799    39.451787    39.342832    23.773679 
   88000    242.41205   -263.76586    216156.16   -20184.319    1535.4916    -21719.81   -489.14072    399.79442    39.449715    39.341039    23.781372 
   88200    229.23895   -333.92396    216156.16   -20212.779    1452.0503   -21664.829   -751.75022    400.78815    39.448749    39.340322    23.790715 
   88400    238.98962   -446.99035    216156.16   -20171.854    1513.8132   -21685.667   -1270.7656    400.92098    39.449255    39.340945    23.801052 
   88600      233.846   -308.03463    216156.16   -20212.276    1481.2323   -21693.508   -682.45952    401.92788    39.447868    39.343627    23.810331 
   88800    234.23041   -600.52359    216156.16   -20221.585    1483.6673   -21705.253    -1921.406    402.87159    39.447337    39.348091    23.802528 
   89000    237.52959    -225.0786    216156.16   -20212.285     1504.565    -21716.85   -306.84701     405.1229    39.446419    39.350299    23.804091 
   89200     238.8347   -381.38311    216156.16   -20189.875    1512.8318   -21702.707   -994.56931    405.72426    39.448568    39.350719    23.799166 
   89400    240.24186   -324.74758    216156.16   -20184.262    1521.7451   -21706.008   -734.56791    405.14842    39.448243     39.35092    23.794731 
   89600    233.03367   -311.55638    216156.16   -20327.522    1476.0868   -21803.609   -667.95664    405.99802    39.447432    39.354104    23.789992 
   89800    234.22172   -479.66013    216156.16   -20248.683    1483.6122   -21732.295   -1380.7251    408.80154    39.449582    39.356722    23.800495 
   90000    229.18761   -344.18783    216156.16   -20268.149     1451.725   -21719.874   -784.20329    408.59077    39.450831    39.355489    23.810913 
   90200    235.85193   -351.81183    216156.16   -20273.356    1493.9384   -21767.294   -842.63893    409.52452    39.450488    39.355613    23.832406 
   90400    228.91924    -587.0934    216156.16   -20195.586    1450.0251   -21645.612    -1928.153    408.89938     39.44671    39.356927     23.83689 
   90600    234.16574   -234.11883    216156.16   -20205.299    1483.2577   -21688.556   -349.11745     409.4359    39.446255    39.356316    23.828969 
   90800    232.56917   -358.15071    216156.16   -20201.327    1473.1446   -21674.472   -873.08143    408.37981    39.442708    39.357543     23.82954 
   91000    229.21007   -324.69551    216156.16    -20214.72    1451.8673   -21666.587    -734.8584    408.03113    39.442605    39.358559    23.821939 
   91200    225.75148   -577.12063    216156.16   -20285.769    1429.9599   -21715.729   -1793.5142    410.29954    39.440618    39.358313    23.823144 
   91400    233.64772   -308.89925    216156.16   -20222.856    1479.9764   -21702.833   -686.62789    409.94713    39.442289    39.360826    23.810581 
   91600    233.50312   -367.41964    216156.16   -20128.776    1479.0605   -21607.836   -894.23294     410.7949    39.443169    39.360046    23.798398 
   91800    236.95182   -402.88926    216156.16   -20145.228    1500.9053   -21646.134   -1065.0661    413.68902    39.442966    39.360813    23.816825 
   92000    234.14468   -296.94482    216156.16   -20147.395    1483.1243   -21630.519    -645.5088    412.82702    39.442298    39.364061     23.83437 
   92200    228.90341     -445.895    216156.16   -20145.919    1449.9249   -21595.844   -1288.1036    413.46503    39.442188    39.363331    23.829868 
   92400    231.95046    -425.0787    216156.16   -20112.484    1469.2255   -21581.709   -1187.7446    415.95903    39.444507    39.362684     23.82169 
   92600    237.53005   -376.40947    216156.16   -20091.797    1504.5679   -21596.365   -974.19737    416.79873    39.444541    39.360978    23.809315 
   92800     232.5292   -435.03466    216156.16    -20240.66    1472.8914   -21713.552   -1179.6396    419.53495    39.444179    39.359378    23.803051 
   93000    231.72799     -417.978    216156.16   -20232.287    1467.8164   -21700.104   -1109.4002    420.25202    39.441608    39.360126    23.785998 
   93200    235.99293   -291.48792    216156.16   -20202.705    1494.8315   -21697.536   -621.77818    420.82061    39.444703    39.359182    23.776196 
   93400    230.08471   -296.03883    216156.16   -20278.003    1457.4075    -21735.41   -658.82591    421.79935     39.44688    39.360444     23.78574 
   93600    235.13343   -363.39944    216156.16   -20227.634    1489.3872   -21717.021   -923.07362    421.20919    39.449738    39.357571    23.775727 
   93800    231.15181   -425.60936    216156.16   -20286.027    1464.1667   -21750.194   -1162.8806    421.97833    39.449837    39.356667    23.794987 
   94000    226.98347   -256.50995    216156.16   -20269.644    1437.7635   -21707.408   -474.46558     423.1668    39.449117     39.35614    23.799195 
   94200     234.4994   -276.09661    216156.16   -20156.789    1485.3711    -21642.16   -581.17036    425.22528    39.448741    39.355503    23.817048 
   94400    232.61138   -344.04758    216156.16   -20208.093    1473.4119   -21681.505   -797.44073    425.88759     39.44884    39.353909    23.802013 
   94600    237.34976   -372.08062    216156.16   -20195.913    1503.4259   -21699.339   -952.37011    426.98983    39.450772    39.354131    23.808323 
   94800    240.93306   -306.56717    216156.16   -20186.813    1526.1233   -21712.936   -665.73665    425.98083    39.447747     39.35471    23.800056 
   95000     232.4854   -433.08372    216156.16   -20265.239     1472.614   -21737.853   -1187.7703    425.83261    39.447949    39.357746    23.802962 
   95200    235.77787   -355.31012    216156.16   -20225.176    1493.4692   -21718.645   -828.47311     425.4517    39.449695    39.358646    23.790278 
   95400    234.71814   -329.35541    216156.16   -20195.491    1486.7567   -21682.247   -733.07614    426.87209    39.447707    39.358181    23.771268 
   95600    234.08453   -414.78186    216156.16    -20183.74    1482.7432   -21666.483   -1033.4511     428.0684    39.447893    39.357527    23.774676 
   95800    234.20666   -386.42068    216156.16   -20160.285    1483.5168   -21643.802   -973.62972    428.98988    39.447088    39.358803    23.765287 
   96000    236.33377   -468.00382    216156.16   -20144.759    1496.9904    -21641.75   -1320.3732    430.78269    39.446769    39.360228    23.765793 
   96200    234.54079   -467.67985    216156.16   -20113.353    1485.6333   -21598.986   -1328.4206    430.05879    39.447836    39.359793    23.748159 
   96400    238.89727   -458.26632    216156.16     -20212.7    1513.2282   -21725.928   -1284.0667    431.54679    39.451086    39.359015    23.738565 
   96600    232.56093   -366.45008    216156.16   -20239.635    1473.0924   -21712.728   -944.51899    433.00357    39.453665    39.358851    23.705302 
   96800    234.61099    -557.1949    216156.16   -20161.989    1486.0779   -21648.067   -1756.5318    433.49102    39.454985    39.360481    23.701368 
   97000    229.41412   -352.05518    216156.16   -20196.999    1453.1598   -21650.159   -865.07627    433.89507    39.454832    39.361259    23.702128 
   97200    231.61652   -331.27464    216156.16   -20193.103    1467.1103   -21660.214   -728.25342    433.08483    39.454626    39.360329    23.693859 
   97400    236.08291   -423.39902    216156.16   -20121.618    1495.4014    -21617.02   -1075.0008    432.57242     39.45515    39.360067    23.678355 
   97600    236.64991   -325.63395    216156.16   -20104.309    1498.9929   -21603.302   -773.61422      432.325     39.45465    39.359285    23.680682 
   97800    232.38864    -325.3623    216156.16   -20150.093    1472.0011   -21622.095   -706.22896    434.21962    39.452955     39.35852      23.6905 
   98000    227.13381    -474.0937    216156.16   -20195.809    1438.7158   -21634.525   -1376.9531    435.78754    39.451019    39.357205    23.677694 
   98200    236.35728   -309.94925    216156.16   -20206.506    1497.1393   -21703.645   -655.18211    435.79071    39.451839    39.355358    23.681304 
   98400    235.07178   -510.90596    216156.16   -20176.916    1488.9967   -21665.913   -1555.2616    437.54347    39.451893    39.356401    23.678391 
   98600    230.68702   -293.62702    216156.16   -20192.712    1461.2227   -21653.934   -566.16138    436.80377    39.452484    39.356182    23.673723 
   98800    239.35146   -365.71797    216156.16   -20142.785    1516.1051    -21658.89      -845.74    437.80738    39.455378    39.355249    23.703499 
   99000     234.2267   -326.78476    216156.16   -20219.319    1483.6438   -21702.963   -724.91978    439.10755    39.456816    39.356158    23.700979 
   99200    235.33841   -400.85145    216156.16   -20198.196    1490.6856   -21688.882   -1046.9871    439.81291    39.456042    39.355162    23.715291 
   99400    234.86879   -464.14588    216156.16   -20202.525    1487.7109   -21690.236   -1287.1099    438.92595     39.45586    39.355242    23.714371 
   99600     229.8253   -264.03981    216156.16    -20186.86    1455.7644   -21642.625   -532.90192    438.85035    39.457012    39.355746    23.693508 
   99800    233.03182   -511.41882    216156.16   -20197.056    1476.0752   -21673.131   -1496.4431    438.95802    39.457001    39.356149    23.695008 
  100000    234.58799   -240.72125    216156.16   -20214.608    1485.9323   -21700.541    -390.8779    440.52639    39.456919    39.356498    23.695906 
  100200      231.747   -390.18581    216156.16   -20287.377    1467.9368   -21755.314   -975.74822    440.91644    39.458374    39.355137    23.684019 
  100400    239.59026   -274.78223    216156.16   -20185.607    1517.6177   -21703.225   -555.81031    441.86449    39.456683    39.354746    23.667572 
  100600    243.59791   -348.93056    216156.16   -20204.599    1543.0031   -21747.602   -843.71617    444.12096    39.457492    39.357973    23.615545 
  100800    237.20209   -467.52859    216156.16   -20256.501    1502.4906   -21758.991   -1284.0595    443.28112    39.458395    39.361252    23.614335 
[...]
 3975800    229.65839   -596.67378    216156.16   -22162.741    1454.7071   -23617.448    -1837.931    4445.3336     39.93365    38.690276    23.958978 
 3976000    223.71672    -589.2172    216156.16   -22193.663    1417.0713   -23610.734   -1808.3712    4444.5857     39.93428    38.689779    23.951349 
 3976200     217.6629   -650.02634    216156.16   -22205.072     1378.725   -23583.797   -2027.3147    4445.1093    39.934599    38.689354    23.952472 
 3976400    223.49167   -690.81786    216156.16   -22207.307    1415.6457   -23622.953   -2205.7366    4444.7974    39.934294    38.689505    23.954505 
 3976600    225.22944   -672.96022    216156.16   -22205.987    1426.6531    -23632.64   -2111.6648    4446.0276    39.935279    38.690159    23.951605 
 3976800    229.45012   -669.34416    216156.16   -22151.371    1453.3878   -23604.759   -2110.1508    4445.0258    39.935838    38.689579    23.950211 
 3977000    222.27554   -639.06876    216156.16   -22246.821    1407.9425   -23654.763   -2001.5948    4444.3413    39.936084    38.689735    23.947265 
 3977200    230.53267   -604.89303    216156.16   -22153.537     1460.245   -23613.782   -1820.5649     4444.361    39.936852    38.689887    23.946521 
 3977400    224.65152   -715.76478    216156.16   -22172.115    1422.9925   -23595.108   -2342.4651    4446.9363    39.936636    38.690739    23.951612 
 3977600     219.7854   -669.42735    216156.16   -22195.419    1392.1693   -23587.588   -2126.5826    4444.0201    39.936163    38.690561    23.954613 
 3977800    224.22799    -602.6721    216156.16   -22200.797    1420.3097   -23621.107   -1802.0432    4444.4113     39.93627    38.690765    23.959281 
 3978000      222.575   -583.32606    216156.16   -22229.957    1409.8393   -23639.796   -1777.1357     4445.047    39.936185    38.691756    23.957865 
 3978200    231.67721   -590.56479    216156.16   -22164.554    1467.4947   -23632.048   -1780.9518    4444.9902    39.935728    38.691451    23.948084 
 3978400    220.65433   -671.68106    216156.16   -22216.985    1397.6734   -23614.659   -2122.6919    4445.2233    39.935328    38.692382    23.946963 
 3978600    226.47366    -743.9945    216156.16   -22177.852    1434.5343   -23612.386   -2415.5906    4447.1412    39.935888     38.69309    23.944952 
 3978800     227.3225    -694.7236    216156.16   -22153.051     1439.911   -23592.962   -2186.2872     4445.595     39.93529    38.693275    23.947681 
 3979000    227.79707   -741.05356    216156.16    -22184.13    1442.9171   -23627.047   -2428.6147    4445.7307    39.935459    38.692312    23.950939 
 3979200    223.10309   -692.23022    216156.16   -22216.684    1413.1843   -23629.868   -2236.8834    4445.7629    39.937119    38.691983    23.948762 
 3979400    226.07443   -592.85321    216156.16   -22173.016    1432.0055   -23605.022     -1769.88     4445.259     39.93808     38.69187    23.948292 
 3979600    225.23463   -692.76429    216156.16   -22186.123     1426.686   -23612.809   -2242.6835    4445.8161     39.93849    38.692072    23.942089 
 3979800    228.43586   -640.61193    216156.16   -22173.967    1446.9633    -23620.93   -2010.9796    4444.9066    39.939296    38.691773    23.938839 
 3980000    224.00399   -667.92218    216156.16    -22190.07    1418.8909   -23608.961   -2118.1699    4445.9841    39.940194    38.692806    23.942466 
 3980200    227.89125   -652.49286    216156.16   -22189.938    1443.5136   -23633.452    -2071.581    4445.4112    39.940458     38.69269    23.949361 
 3980400    223.59825   -591.74521    216156.16    -22152.58    1416.3208     -23568.9    -1797.786    4446.5168    39.940869    38.692616    23.952277 
 3980600    225.79162   -633.05178    216156.16   -22107.247    1430.2141   -23537.461   -2000.8419    4444.9852    39.941256    38.692875    23.954218 
 3980800     224.2878   -629.84933    216156.16   -22135.854    1420.6885   -23556.543   -1967.0798    4447.2955    39.941802    38.693657    23.940529 
 3981000    228.44725   -734.44629    216156.16    -22163.68    1447.0355   -23610.716   -2417.0513    4447.2742    39.942358    38.693404    23.951012 
 3981200    223.67006   -791.91153    216156.16   -22156.948    1416.7756   -23573.724   -2658.6258    4447.3722    39.942054    38.693315    23.951646 
 3981400    223.27939   -690.16098    216156.16   -22139.222    1414.3011   -23553.523   -2242.3333    4445.8926    39.941912    38.692164    23.950484 
 3981600    220.87253   -639.12922    216156.16   -22192.986    1399.0555   -23592.041   -1999.3076    4444.8818    39.942697    38.692237    23.954257 
 3981800    223.68773   -533.85085    216156.16   -22180.209    1416.8876   -23597.096    -1574.568    4445.5438    39.943586    38.692239    23.953606 
 3982000    221.11043   -632.40796    216156.16   -22227.793    1400.5624   -23628.356   -2020.3557    4445.5508    39.943907    38.692794    23.948699 
 3982200    217.59266   -647.50844    216156.16   -22277.044    1378.2801   -23655.324    -2031.698    4445.7768    39.943987    38.693031    23.952481 
 3982400    222.08423   -655.44979    216156.16   -22183.964    1406.7307   -23590.695   -2055.8287      4446.28     39.94414    38.692493    23.953365 
 3982600    224.30004   -586.12714    216156.16   -22207.871    1420.7661   -23628.637   -1768.6562     4446.441    39.943846    38.692242    23.948148 
 3982800    225.82979   -646.26291    216156.16   -22142.055    1430.4559   -23572.511   -2041.1811    4447.2405    39.944555    38.691923    23.948084 
 3983000    231.04851   -602.00495    216156.16   -22122.941    1463.5124   -23586.453   -1860.9188    4445.0452    39.943591    38.690929    23.951957 
 3983200    226.87729   -596.88547    216156.16   -22152.742     1437.091   -23589.833   -1874.6652    4447.0397    39.944163    38.691444    23.947347 
 3983400    231.38927   -742.56408    216156.16   -22114.665    1465.6708   -23580.336   -2483.6123    4446.9511    39.944923    38.690882    23.950717 
 3983600    228.24301   -685.69714    216156.16   -22183.384    1445.7417   -23629.125   -2162.9933    4445.9581    39.945134     38.69033    23.955081 
 3983800    225.99812   -664.60995    216156.16   -22173.346    1431.5221   -23604.868   -2108.3962    4448.6015    39.945027    38.690322    23.950534 
 3984000     229.3768   -533.52384    216156.16   -22169.673    1452.9234   -23622.596   -1584.1503     4445.204    39.945901    38.689301    23.952505 
 3984200    227.06608   -525.79069    216156.16   -22147.756    1438.2868   -23586.043   -1516.7538    4446.0181    39.946029      38.6897    23.944954 
 3984400    216.57416   -661.69357    216156.16   -22189.644    1371.8287   -23561.472   -2103.9865    4446.7469    39.946918     38.68951    23.950256 
 3984600     219.3044   -806.62491    216156.16   -22198.945    1389.1226   -23588.067   -2732.1611    4446.3715    39.947185    38.689404    23.953289 
 3984800    221.15458   -741.06019    216156.16    -22163.61    1400.8421   -23564.452   -2390.9441    4448.0708    39.947561    38.689234    23.947926 
 3985000    219.43882   -626.95317    216156.16   -22201.693     1389.974   -23591.667   -1931.7754    4447.5377    39.947494    38.688817     23.94169 
 3985200    225.90469   -563.06317    216156.16   -22157.154    1430.9303   -23588.084   -1659.9068    4446.3022     39.94818     38.68922    23.948696 
 3985400    226.38279    -524.7997    216156.16   -22179.173    1433.9587   -23613.132   -1484.8956    4446.4077     39.94798    38.689466      23.9544 
 3985600    221.57163   -707.76957    216156.16   -22141.605    1403.4838   -23545.089   -2283.0071    4446.9168    39.947444    38.689343    23.954006 
 3985800    221.49087   -706.13274    216156.16   -22158.686    1402.9722   -23561.659   -2280.1149    4447.7064    39.947606    38.688093    23.949224 
 3986000    232.52776   -655.31113    216156.16   -22082.949    1472.8823   -23555.831   -2064.4476    4446.3965    39.947659    38.688295    23.945875 
 3986200    232.68848   -577.75774    216156.16   -22121.236    1473.9004   -23595.137   -1760.0055    4445.4806    39.948359    38.688387    23.947861 
 3986400    219.28581   -630.62445    216156.16   -22214.732    1389.0048   -23603.737   -1978.2806    4445.9372    39.949591    38.688635     23.94743 
 3986600     228.3687   -655.99391    216156.16    -22179.57    1446.5379   -23626.107   -2058.2378    4446.1562    39.949932      38.6894    23.948877 
 3986800    225.71195   -686.87092    216156.16   -22176.794    1429.7094   -23606.503   -2169.5977    4446.2002    39.950912    38.688465    23.946154 
 3987000    224.56594   -697.18498    216156.16   -22156.598    1422.4504   -23579.049   -2228.7722    4445.4512    39.950851    38.687429    23.942584 
 3987200    215.93986   -655.94667    216156.16   -22249.659    1367.8109   -23617.469   -2083.8828    4446.3044    39.951625     38.68672    23.947164 
 3987400    220.19744   -519.74735    216156.16   -22207.076    1394.7794   -23601.855   -1483.9838    4444.4022    39.951808    38.686389    23.946932 
 3987600    228.84435   -597.87974    216156.16   -22148.678    1449.5508   -23598.228   -1829.1436    4445.6156    39.952165    38.686391    23.942516 
 3987800    221.53102   -762.91113    216156.16   -22189.065    1403.2265   -23592.291   -2490.4506    4446.3172    39.952806    38.686193    23.944645 
 3988000    229.81593   -720.43067    216156.16   -22139.856     1455.705   -23595.561   -2345.3904    4446.8355    39.954284    38.686559    23.951897 
 3988200    226.83253   -652.11741    216156.16   -22173.957    1436.8074   -23610.765   -2079.5992    4446.7207     39.95522     38.68676    23.947848 
 3988400     226.9342   -576.27266    216156.16    -22155.67    1437.4515   -23593.122    -1746.618    4447.0967    39.955938    38.685792    23.946058 
 3988600    220.47555   -576.98737    216156.16    -22214.91    1396.5409   -23611.451   -1716.8044    4446.5246    39.956005    38.684592    23.953078 
 3988800    223.34891    -600.2247    216156.16   -22219.047    1414.7414   -23633.789    -1823.247    4446.2045    39.955358    38.685488    23.944799 
 3989000    234.26567   -638.16282    216156.16   -22142.068    1483.8906   -23625.959   -1998.4424    4447.3749    39.956338    38.685584     23.94467 
 3989200    223.62157   -729.13314    216156.16   -22165.819    1416.4685   -23582.287   -2367.6367    4446.6206    39.957367    38.685146    23.951148 
 3989400    222.84919   -610.66781    216156.16   -22205.667    1411.5761   -23617.243   -1882.9199    4447.6099    39.957164    38.684047    23.951354 
 3989600    230.38699   -656.22318    216156.16   -22115.823    1459.3222   -23575.145   -2100.0684    4447.2155    39.957488    38.684232    23.949964 
 3989800    230.75226   -619.94314    216156.16   -22149.103    1461.6359   -23610.739   -1864.2545    4445.9515    39.958898    38.683466    23.951571 
 3990000    225.11562   -624.05291    216156.16   -22200.217    1425.9322   -23626.149   -1959.5048    4446.5629    39.959659    38.683367    23.953495 
 3990200    221.00069   -665.02999    216156.16   -22190.604    1399.8673   -23590.472   -2105.2185    4447.2081    39.959458    38.682528    23.954693 
 3990400    229.23835   -691.81897    216156.16   -22161.985    1452.0465   -23614.031   -2227.7936    4447.6876    39.960484    38.681516    23.949026 
 3990600    220.19155   -641.22774    216156.16   -22185.134     1394.742   -23579.876   -2022.2845    4446.7248     39.96186    38.680808     23.95057 
 3990800    226.67642   -606.99154    216156.16   -22154.833    1435.8186   -23590.652   -1879.4399    4445.4524    39.963025    38.679776    23.950172 
 3991000    227.82174   -652.13573    216156.16   -22129.664    1443.0734   -23572.738   -2052.6369     4446.209    39.964309    38.680592    23.954715 
 3991200    226.95402   -659.56822    216156.16   -22117.928     1437.577   -23555.505   -2072.9944    4447.4053    39.964367    38.682225    23.953087 
 3991400    227.68422   -686.79983    216156.16   -22113.634    1442.2022   -23555.836   -2214.7508    4447.9598    39.964947    38.683479    23.952522 
 3991600    227.77699   -583.15225    216156.16   -22158.719    1442.7899   -23601.508   -1723.9155    4446.1321    39.964809    38.683335    23.954225 
 3991800    220.79116   -560.56072    216156.16   -22227.811    1398.5401   -23626.351   -1655.1368    4446.2664    39.965442    38.682733     23.95765 
 3992000    219.59563   -633.99407    216156.16   -22171.265    1390.9673   -23562.232   -1976.9629     4446.687     39.96639    38.683247    23.955959 
 3992200    225.50886   -626.27258    216156.16   -22153.236     1428.423   -23581.659   -1904.2568    4446.6406     39.96671     38.68398    23.957284 
 3992400    228.28778   -540.87445    216156.16   -22165.987    1446.0253   -23612.013   -1567.0836    4446.9731    39.966818    38.683633    23.952724 
 3992600    217.94491   -584.92994    216156.16   -22162.559    1380.5113    -23543.07   -1775.3799    4447.1299    39.967204    38.683943    23.954012 
 3992800     230.4724   -656.39447    216156.16   -22157.578    1459.8632   -23617.441   -2129.4248    4448.9441    39.967862    38.683363    23.950773 
 3993000    218.61877   -620.46526    216156.16   -22244.918    1384.7797   -23629.698   -1955.7069    4446.4988    39.968701    38.683226    23.951842 
 3993200    227.68225   -587.71408    216156.16   -22156.883    1442.1897   -23599.072    -1793.566    4447.6255    39.970154     38.68425    23.951079 
 3993400    229.15089   -695.85609    216156.16   -22119.615    1451.4925   -23571.108   -2259.8125    4446.8808    39.971222    38.683972    23.953329 
 3993600    224.95964   -660.56258    216156.16   -22139.072    1424.9441   -23564.016   -2072.9997    4448.0901    39.972034    38.684103    23.949218 
 3993800    224.08911   -576.47179    216156.16   -22151.007      1419.43   -23570.437   -1761.4998    4447.0044    39.973033    38.684567    23.948943 
 3994000    223.66886   -568.39876    216156.16   -22167.896    1416.7681   -23584.664    -1674.022    4446.9911    39.973045    38.683919    23.943187 
 3994200     227.5897   -675.52749    216156.16   -22190.134    1441.6036   -23631.738   -2138.6499      4446.47    39.973811    38.683726    23.950277 
 3994400    223.33654   -711.13388    216156.16   -22160.592    1414.6631   -23575.255   -2285.4793    4446.1698    39.974423    38.682706    23.949195 
 3994600    221.39659   -707.88288    216156.16   -22227.446     1402.375   -23629.821    -2300.028    4446.8201    39.974902    38.682097    23.943354 
 3994800    226.51656       -703.2    216156.16   -22127.405    1434.8061   -23562.211   -2281.0781    4447.9248    39.976153    38.681713    23.944316 
 3995000    225.69918    -707.5322    216156.16   -22144.541    1429.6286   -23574.169    -2298.378    4448.4461    39.976511    38.680814    23.947589 
 3995200    217.48301   -654.30665    216156.16   -22192.696    1377.5855   -23570.282   -2051.1206    4446.2366    39.977098    38.681359     23.95361 
 3995400    223.30651   -594.84894    216156.16   -22139.624    1414.4729   -23554.097   -1833.9563    4447.7696    39.976522    38.681327    23.947356 
 3995600    230.92684   -650.58567    216156.16   -22086.804    1462.7417   -23549.546   -2043.9752    4447.3153    39.977079    38.680846    23.947009 
 3995800    227.65551   -670.08248    216156.16   -22112.216    1442.0204   -23554.237   -2142.3548    4448.5603    39.978303    38.680974    23.947246 
 3996000    237.38086   -674.98791    216156.16   -22057.686    1503.6229   -23561.309   -2126.8243    4447.5671    39.979439    38.679822    23.946932 
 3996200    227.37076   -589.16224    216156.16   -22138.285    1440.2167   -23578.502   -1770.0202    4446.9937    39.979564    38.679975    23.947388 
 3996400    227.62296   -600.61906    216156.16   -22173.915    1441.8142   -23615.729   -1838.9979    4446.2204    39.979292    38.680662    23.949342 
 3996600    229.09353   -644.07299    216156.16   -22154.032    1451.1291   -23605.161   -2031.3467    4448.3064    39.979271    38.681446    23.948907 
 3996800    225.58747   -698.04663    216156.16   -22191.289     1428.921    -23620.21   -2233.6738    4446.2891     39.97944     38.68115    23.951224 
 3997000    231.33822   -763.21741    216156.16   -22085.863    1465.3475    -23551.21   -2564.4308    4447.7966    39.979871     38.68181    23.949836 
 3997200    225.05584   -629.88863    216156.16    -22143.54    1425.5535   -23569.093   -1942.1736    4446.4302    39.980561     38.68148    23.947095 
 3997400    221.02362   -609.59494    216156.16   -22205.321    1400.0125   -23605.333   -1863.0692    4446.6004    39.981132    38.681738    23.951741 
 3997600    227.27036   -658.05857    216156.16   -22129.167    1439.5808   -23568.747   -2071.2108    4446.9991     39.98151    38.681584    23.947146 
 3997800    223.16083   -753.69851    216156.16   -22248.895    1413.5501   -23662.445   -2502.4084    4448.1331    39.981279    38.680287    23.950516 
 3998000    227.16623   -717.39777    216156.16   -22181.439    1438.9212    -23620.36   -2356.6839    4447.9621    39.981147    38.680465    23.942779 
 3998200    223.46859   -635.80916    216156.16   -22230.402    1415.4995   -23645.902     -1989.52     4446.094    39.981211    38.679829    23.940751 
 3998400    231.09475   -540.73374    216156.16   -22101.664    1463.8053   -23565.469   -1577.0483    4445.8187     39.98239     38.67934    23.950144 
 3998600    223.86965   -555.62096    216156.16   -22194.134    1418.0399   -23612.174   -1642.4365    4447.2356    39.982394    38.678795    23.956054 
 3998800    223.65284   -731.11532    216156.16   -22183.868    1416.6666   -23600.534   -2387.0007    4447.6303    39.982918    38.677562    23.958886 
 3999000    226.88615   -735.59773    216156.16   -22131.926    1437.1471   -23569.073   -2401.0879    4446.6378    39.982943    38.677587    23.949198 
 3999200    229.05075   -564.59346    216156.16   -22176.198    1450.8582   -23627.056     -1660.99    4446.6196    39.983274    38.676964    23.954216 
 3999400    221.12971    -470.2843    216156.16   -22218.175    1400.6845   -23618.859   -1277.0344    4445.9987    39.981599    38.676753    23.948846 
 3999600    215.15229   -633.44475    216156.16   -22229.561    1362.8223   -23592.383   -1946.5595    4446.6772     39.98089    38.676539     23.94575 
 3999800    223.55282   -766.53572    216156.16   -22135.595     1416.033   -23551.628   -2535.0915    4448.2418    39.981048    38.676456      23.9478 
 4000000    228.43514    -738.3235    216156.16   -22142.296    1446.9587   -23589.255   -2419.8914    4448.0057    39.981071    38.676555    23.947185 
Loop time of 6014.77 on 120 procs for 4000000 steps with 9422 atoms

Performance: 574.585 ns/day, 0.042 hours/ns, 665.029 timesteps/s
98.1% CPU use with 120 MPI tasks x no OpenMP threads

MPI task timing breakdown:
Section |  min time  |  avg time  |  max time  |%varavg| %total
---------------------------------------------------------------
Pair    | 0.31218    | 1579.4     | 4721.5     |3782.7 | 26.26
Neigh   | 2.7913     | 96.606     | 311.76     |1039.2 |  1.61
Comm    | 286.1      | 2274.2     | 4711.4     |2969.3 | 37.81
Output  | 70.443     | 70.517     | 72.245     |   1.9 |  1.17
Modify  | 294.11     | 1953.1     | 5609.6     |4797.7 | 32.47
Other   |            | 41         |            |       |  0.68

Nlocal:    78.5167 ave 206 max 0 min
Histogram: 32 30 15 3 0 0 0 2 15 23
Nghost:    690.883 ave 904 max 528 min
Histogram: 32 1 11 4 26 6 12 6 14 8
Neighs:    0 ave 0 max 0 min
Histogram: 120 0 0 0 0 0 0 0 0 0
FullNghs:  7934.9 ave 24931 max 0 min
Histogram: 69 11 0 0 0 0 0 8 17 15

Total # of neighbors = 952188
Ave neighs/atom = 101.06
Neighbor list builds = 420669
Dangerous builds = 0
write_data 		${DIR}/data.${NAME}_run
write_data 		run_15/data.${NAME}_run
write_data 		run_15/data.ibeam_cooling_15_run
Total wall time: 1:40:31
