
### Dimensions ###
variable Z_G equal 10.062000000000001
variable Z_W equal 23.803019087

variable	XDIM string 78.752
variable 	YDIM string 80.86108639999017


### IMPORT ATOMS ###
read_data ../Box_Setup/data.Ibeam_240K
  orthogonal box = (0 0 0) to (78.752 80.8611 33.9443)
  5 by 8 by 3 MPI processor grid
  reading atoms ...
  9422 atoms
  reading velocities ...
  9422 velocities
group water type 2
2126 atoms in group water
group graphite type 1
7296 atoms in group graphite


# Define potential
#
pair_style          sw
pair_coeff * * MLC_e.sw C mW

# Add velocity/set timestep
#

fix		1 graphite setforce 0.0 0.0 0.0
velocity 	graphite set 0.0 0.0 0.0
velocity            water create ${START_TEMP} ${SEED} rot yes dist gaussian
velocity            water create 235 ${SEED} rot yes dist gaussian
velocity            water create 235 16538 rot yes dist gaussian
timestep            5.0

# Define output
#
compute 1 water msd
compute 2 water temp


thermo	            100
thermo_style custom step c_2 press vol etotal ke pe c_1[4] density

# Neighbor lists
#
neigh_modify        delay 0 every 1 check yes


# Set fixes
#
fix                 2 water momentum 10 linear 1 1 1 rescale
fix                 3 all nve
fix                 4 water temp/csvr ${START_TEMP} ${START_TEMP} 500.0 928347
fix                 4 water temp/csvr 235 ${START_TEMP} 500.0 928347
fix                 4 water temp/csvr 235 235 500.0 928347

# Run 0.05 ns equilibration
#
dump                1 all custom 100 ${DIR}/eq.${NAME}.dump id type x y z vx vy vz
dump                1 all custom 100 run_15/eq.${NAME}.dump id type x y z vx vy vz
dump                1 all custom 100 run_15/eq.ibeam_cooling_15.dump id type x y z vx vy vz
run                 10000
Neighbor list info ...
  update every 1 steps, delay 0 steps, check yes
  max neighbors/atom: 2000, page size: 100000
  master list distance cutoff = 6.67472
  ghost atom cutoff = 6.67472
  binsize = 3.33736, bins = 24 25 11
  1 neighbor lists, perpetual/occasional/extra = 1 0 0
  (1) pair sw, perpetual
      attributes: full, newton on
      pair build: full/bin/atomonly
      stencil: full/bin/3d
      bin: standard
Per MPI rank memory allocation (min/avg/max) = 3.374 | 4.228 | 4.744 Mbytes
Step c_2 Press Volume TotEng KinEng PotEng c_1[4] Density 
       0          235   -349.74665    216156.16   -20108.674     1488.542   -21597.216            0   0.96737059 
     100    234.13437   -577.69649    216156.16   -20122.424    1483.0589   -21605.483   0.87421056   0.96737059 
     200    234.92173   -342.80712    216156.16    -20157.94    1488.0462   -21645.987    1.2935392   0.96737059 
     300    230.42256   -468.68026    216156.16   -20165.584    1459.5475   -21625.132    1.7917431   0.96737059 
     400    233.98345   -281.36479    216156.16   -20173.032     1482.103   -21655.135    2.3138396   0.96737059 
     500    236.92198   -321.05598    216156.16    -20167.51    1500.7163   -21668.226    2.6644327   0.96737059 
     600    242.25414   -365.39883    216156.16   -20121.831    1534.4913   -21656.322    3.0719563   0.96737059 
     700    234.59451   -320.64062    216156.16   -20140.924    1485.9736   -21626.898     3.630781   0.96737059 
     800    239.70703   -332.77496    216156.16   -20124.913    1518.3574   -21643.271    4.1005228   0.96737059 
     900    238.94295   -351.29465    216156.16   -20159.586    1513.5175   -21673.104    4.3240214   0.96737059 
    1000    234.48583   -268.52463    216156.16   -20204.846    1485.2851   -21690.131    4.6300135   0.96737059 
    1100    232.75234   -438.88557    216156.16    -20171.27    1474.3048   -21645.575    5.1947906   0.96737059 
    1200    231.34646   -359.34145    216156.16   -20175.299    1465.3997   -21640.699    5.6136489   0.96737059 
    1300    243.92807   -418.91452    216156.16   -20131.673    1545.0944   -21676.767    5.9254369   0.96737059 
    1400    233.19431   -404.00971    216156.16   -20166.902    1477.1044   -21644.006    6.1075312   0.96737059 
    1500    234.39799   -279.42432    216156.16   -20203.757    1484.7287   -21688.486    6.3789081   0.96737059 
    1600    235.01555   -518.30947    216156.16    -20177.96    1488.6405   -21666.601    6.7850581   0.96737059 
    1700    234.24323   -396.22637    216156.16   -20178.646    1483.7485   -21662.394    7.1092953   0.96737059 
    1800     235.8291   -370.39238    216156.16   -20155.706    1493.7937     -21649.5    7.4934576   0.96737059 
    1900    237.29621   -305.05912    216156.16   -20128.851    1503.0867   -21631.938    7.7967025   0.96737059 
    2000    240.00096   -436.82661    216156.16   -20103.101    1520.2192    -21623.32    7.9602295   0.96737059 
    2100    233.48781   -196.99036    216156.16   -20212.005    1478.9634   -21690.968    8.2549467   0.96737059 
    2200    241.12477   -394.12584    216156.16   -20191.574    1527.3376   -21718.912    8.5845749   0.96737059 
    2300    237.46236   -444.30735    216156.16   -20177.039    1504.1391   -21681.178    9.0818035   0.96737059 
    2400    237.08582   -339.98623    216156.16   -20190.847    1501.7541   -21692.601    9.4385216   0.96737059 
    2500    239.07901   -363.69732    216156.16   -20213.028    1514.3794   -21727.408    9.9681499   0.96737059 
    2600    233.17023   -370.78295    216156.16   -20230.087    1476.9518   -21707.039    10.309469   0.96737059 
    2700    235.14205   -285.61069    216156.16   -20214.112    1489.4418   -21703.553    10.374872   0.96737059 
    2800      239.471    -430.0156    216156.16   -20148.781    1516.8623   -21665.643    10.681451   0.96737059 
    2900    238.14053   -498.16746    216156.16   -20144.479    1508.4348   -21652.914      11.0234   0.96737059 
    3000    239.08823   -317.95276    216156.16   -20140.783    1514.4378   -21655.221    11.447081   0.96737059 
    3100    238.87625   -258.31236    216156.16   -20146.127     1513.095   -21659.222    11.833104   0.96737059 
    3200    243.00053   -268.46624    216156.16   -20215.892    1539.2192   -21755.111    12.335572   0.96737059 
    3300    228.79822   -304.91027    216156.16   -20287.871    1449.2586    -21737.13    12.908921   0.96737059 
    3400    236.67085   -630.03088    216156.16   -20230.358    1499.1255   -21729.483     13.17148   0.96737059 
    3500    232.36837   -348.96866    216156.16   -20232.034    1471.8727   -21703.907    13.299739   0.96737059 
    3600    234.46033   -302.87859    216156.16   -20231.085    1485.1236   -21716.209    13.444389   0.96737059 
    3700    238.18275   -318.12939    216156.16   -20212.512    1508.7022   -21721.215    13.778209   0.96737059 
    3800    239.66863   -263.36895    216156.16    -20211.27    1518.1142   -21729.385     14.18768   0.96737059 
    3900    232.75051   -240.57891    216156.16   -20207.424    1474.2933   -21681.717    14.642215   0.96737059 
    4000    234.28941   -334.03936    216156.16   -20224.474     1484.041   -21708.515    14.722182   0.96737059 
    4100    241.04588   -285.63064    216156.16   -20209.119    1526.8379   -21735.956    14.940151   0.96737059 
    4200    233.44954   -416.55736    216156.16   -20196.701    1478.7211   -21675.422    15.215209   0.96737059 
    4300    230.47181    -434.4787    216156.16   -20254.527    1459.8594   -21714.386    15.382573   0.96737059 
    4400    232.23232   -437.61118    216156.16   -20201.008    1471.0109   -21672.019    15.744516   0.96737059 
    4500    230.80499   -487.92302    216156.16   -20229.253    1461.9699   -21691.223    16.370899   0.96737059 
    4600    237.73177   -428.02275    216156.16   -20276.634    1505.8456    -21782.48    16.597183   0.96737059 
    4700    240.51374    -407.8198    216156.16   -20236.553    1523.4673    -21760.02    16.826823   0.96737059 
    4800    245.12418   -391.01075    216156.16   -20222.304    1552.6708   -21774.974    17.357357   0.96737059 
    4900    243.80201   -520.63469    216156.16   -20193.721    1544.2959   -21738.017    17.462026   0.96737059 
    5000    237.51683   -345.06367    216156.16   -20244.487    1504.4842   -21748.971    17.510429   0.96737059 
    5100    238.39842   -284.55546    216156.16    -20233.04    1510.0684   -21743.108    17.393556   0.96737059 
    5200    242.80348   -347.55057    216156.16   -20255.597     1537.971   -21793.568    17.490999   0.96737059 
    5300    226.52421   -460.16938    216156.16   -20318.848    1434.8545   -21753.703    17.454991   0.96737059 
    5400    236.08121   -346.11638    216156.16   -20301.154    1495.3906   -21796.545    17.693907   0.96737059 
    5500    238.00964   -365.03865    216156.16   -20301.074    1507.6057    -21808.68    17.882674   0.96737059 
    5600    230.15208    -400.8299    216156.16   -20317.382    1457.8342   -21775.216    18.195801   0.96737059 
    5700    228.27804   -303.95328    216156.16   -20292.049    1445.9636   -21738.012    18.520817   0.96737059 
    5800    233.94936   -414.71281    216156.16    -20264.55    1481.8871   -21746.437     18.53931   0.96737059 
    5900    233.68403   -342.36993    216156.16   -20293.272    1480.2064   -21773.478    18.775713   0.96737059 
    6000    233.08513   -411.47725    216156.16   -20301.537    1476.4128   -21777.949    19.015921   0.96737059 
    6100     236.7005   -332.96914    216156.16   -20316.476    1499.3133   -21815.789    19.298177   0.96737059 
    6200    232.00337   -364.55955    216156.16   -20311.988    1469.5607   -21781.549     19.81521   0.96737059 
    6300    236.96314   -536.79951    216156.16   -20245.344     1500.977   -21746.321    20.318064   0.96737059 
    6400    236.46573   -334.60253    216156.16   -20286.372    1497.8262   -21784.198    20.660275   0.96737059 
    6500    230.70474   -488.09271    216156.16   -20287.848    1461.3349   -21749.183     21.27077   0.96737059 
    6600    237.93858   -435.63233    216156.16   -20301.314    1507.1557   -21808.469      21.4385   0.96737059 
    6700    234.75635   -176.09231    216156.16   -20333.357    1486.9987   -21820.355    21.613073   0.96737059 
    6800    232.00322   -270.99412    216156.16   -20318.507    1469.5597   -21788.066    21.598875   0.96737059 
    6900    244.44941   -332.60954    216156.16   -20286.384    1548.3967    -21834.78    21.757303   0.96737059 
    7000    236.77304   -364.98103    216156.16   -20286.811    1499.7729   -21786.584    22.174705   0.96737059 
    7100    230.44028   -409.30895    216156.16   -20289.786    1459.6597   -21749.445    22.253733   0.96737059 
    7200    226.74444   -355.99918    216156.16   -20327.213    1436.2495   -21763.463    22.065108   0.96737059 
    7300    227.29637   -312.79885    216156.16   -20356.238    1439.7455   -21795.984    22.407962   0.96737059 
    7400    232.96347   -401.46427    216156.16   -20319.089    1475.6422   -21794.731    22.508915   0.96737059 
    7500    237.71788   -416.27249    216156.16   -20280.386    1505.7577   -21786.144    22.848579   0.96737059 
    7600    239.58627   -415.44853    216156.16   -20234.026    1517.5925   -21751.619    23.099535   0.96737059 
    7700    234.67561   -568.52767    216156.16   -20252.788    1486.4873   -21739.276    23.514646   0.96737059 
    7800    234.08887   -413.93742    216156.16   -20305.387    1482.7707   -21788.158    23.587573   0.96737059 
    7900    234.88787   -419.47616    216156.16   -20269.856    1487.8318   -21757.687    23.927436   0.96737059 
    8000    229.62268   -366.24024    216156.16   -20221.568    1454.4809   -21676.049    23.985284   0.96737059 
    8100    239.81727   -318.19065    216156.16   -20202.357    1519.0557   -21721.412    24.488913   0.96737059 
    8200    237.82277   -415.62906    216156.16   -20209.923    1506.4221   -21716.345    24.949762   0.96737059 
    8300    235.25723   -377.25408    216156.16    -20175.49    1490.1714   -21665.662    25.214629   0.96737059 
    8400    241.93186   -346.20856    216156.16   -20176.174      1532.45   -21708.624     25.77653   0.96737059 
    8500    232.91081   -369.43574    216156.16   -20221.703    1475.3087   -21697.012    26.229199   0.96737059 
    8600    237.92038   -304.10723    216156.16   -20231.561    1507.0404   -21738.601    26.457224   0.96737059 
    8700    230.28443   -344.37937    216156.16   -20266.021    1458.6725   -21724.694    26.524639   0.96737059 
    8800    235.16243   -401.66974    216156.16   -20263.274    1489.5709   -21752.844    26.918516   0.96737059 
    8900    233.81566   -331.55454    216156.16   -20287.481    1481.0401   -21768.521    27.403967   0.96737059 
    9000    236.54969   -339.02855    216156.16   -20249.651    1498.3581   -21748.009     27.85425   0.96737059 
    9100    235.00618    -430.5188    216156.16   -20258.168    1488.5812   -21746.749    28.296716   0.96737059 
    9200    239.64787   -406.09804    216156.16   -20205.666    1517.9827   -21723.649    28.405234   0.96737059 
    9300    231.65982    -285.2336    216156.16   -20261.314    1467.3846   -21728.698    28.507009   0.96737059 
    9400    231.79078   -296.80854    216156.16   -20257.993    1468.2141   -21726.207    28.455332   0.96737059 
    9500    227.48566   -412.94267    216156.16   -20285.461    1440.9445   -21726.405    28.836571   0.96737059 
    9600     230.0691   -160.94461    216156.16    -20271.53    1457.3086   -21728.838    29.170052   0.96737059 
    9700    237.32763   -427.97537    216156.16   -20225.609    1503.2857   -21728.895    29.271571   0.96737059 
    9800    242.24959   -364.53475    216156.16   -20195.328    1534.4626   -21729.791    29.639782   0.96737059 
    9900     233.6252   -502.80214    216156.16   -20213.166    1479.8338   -21692.999    29.557716   0.96737059 
   10000    227.44935   -378.36345    216156.16    -20226.23    1440.7145   -21666.945    29.714549   0.96737059 
Loop time of 16.2311 on 120 procs for 10000 steps with 9422 atoms

Performance: 266.156 ns/day, 0.090 hours/ns, 616.101 timesteps/s
98.0% CPU use with 120 MPI tasks x no OpenMP threads

MPI task timing breakdown:
Section |  min time  |  avg time  |  max time  |%varavg| %total
---------------------------------------------------------------
Pair    | 0.00079989 | 4.2895     | 13.218     | 201.8 | 26.43
Neigh   | 0.0037937  | 0.13414    | 0.43163    |  38.2 |  0.83
Comm    | 0.28652    | 6.093      | 12.978     | 162.7 | 37.54
Output  | 0.16568    | 0.16582    | 0.17262    |   0.2 |  1.02
Modify  | 0.76388    | 5.4212     | 15.646     | 253.4 | 33.40
Other   |            | 0.1275     |            |       |  0.79

Nlocal:    78.5167 ave 211 max 0 min
Histogram: 34 30 15 1 0 0 0 4 18 18
Nghost:    695.7 ave 938 max 528 min
Histogram: 32 3 13 0 32 2 14 1 14 9
Neighs:    0 ave 0 max 0 min
Histogram: 120 0 0 0 0 0 0 0 0 0
FullNghs:  7999.42 ave 25660 max 0 min
Histogram: 68 12 0 0 0 0 0 11 19 10

Total # of neighbors = 959930
Ave neighs/atom = 101.882
Neighbor list builds = 570
Dangerous builds = 0
write_data 	    ${DIR}/data.${NAME}_eq
write_data 	    run_15/data.${NAME}_eq
write_data 	    run_15/data.ibeam_cooling_15_eq

undump              1
unfix               4



################################################
#######         Run Simulation         #########
################################################

reset_timestep      0
timestep	    10.0
log                 ${DIR}/log.run_${NAME}
log                 run_15/log.run_${NAME}
log                 run_15/log.run_ibeam_cooling_15
