LAMMPS data file via write_data, version 29 Oct 2020, timestep = 50683

4199 atoms
1 atom types

8.52879664365041 261.47120335634435 xlo xhi
8.52879664365041 261.47120335634435 ylo yhi
0.6317627143442834 19.36823728565583 zlo zhi

Masses

1 18.015

Atoms # atomic

1281 1 120.76404222231454 90.00495983463463 19.20990723521997 0 0 -1
610 1 121.98381990593191 90.98604834197614 2.6564551456111896 0 0 0
1807 1 128.4374211577133 90.39899206679948 2.5997024901541192 0 0 1
365 1 130.91795388483706 91.25483211861068 2.893280621663628 0 0 1
681 1 134.66311459421303 92.13492572091141 2.6163841129561964 0 0 1
236 1 127.98980701782251 88.53050510613343 4.705068015035947 0 0 0
671 1 130.31472339758375 87.96678313553697 5.88780012197602 0 0 0
2049 1 132.1447687209245 89.65125995949228 4.841803373443319 0 0 1
1573 1 129.03418546018816 90.74925063140104 16.61888693830509 0 0 -1
179 1 116.93104717958603 91.88948190506984 5.3202663152432494 0 0 1
1352 1 134.14578957613128 90.3399424012678 8.362645860933252 0 0 0
968 1 126.52290658351376 90.09387027059226 6.372880918042094 0 0 0
1969 1 122.4918799496848 92.46889744464704 9.523794828524608 0 0 1
1512 1 131.83094859973943 91.19953197478453 7.0698923293398535 0 0 1
1474 1 124.63860923941586 89.62262774365719 8.739573377482943 0 0 0
1172 1 129.95612594904995 89.13905688048362 8.330480108791681 0 0 1
172 1 134.984695794591 92.35800582615718 5.6848091458931185 0 0 0
3452 1 123.4264950650869 91.51759171858437 7.072782674617162 0 0 0
1091 1 125.90748768019635 92.08232925099676 18.59660564331737 0 0 0
1510 1 119.6178303857581 92.39599728399887 4.735733903129175 0 0 1
1168 1 128.30013855793982 91.21199927880191 8.353603106076182 0 0 1
377 1 134.37350040128547 90.94951394904203 12.119972743460037 0 0 1
1799 1 130.63729591911206 88.35979531303552 10.828454278202079 0 0 0
3432 1 133.23236017558955 89.02131017989642 10.5142510940796 0 0 0
2042 1 132.66299772765922 90.9837083093042 19.252140373916692 0 0 0
791 1 121.3312726800764 90.35046544969977 5.228221239254502 0 0 1
1420 1 125.98503290621562 91.39989446836793 10.379059887084445 0 0 1
661 1 129.71465847948085 90.34122263355802 12.487833932713917 0 0 0
1052 1 127.60406734272043 89.58288155091101 18.845860912755015 0 0 0
429 1 120.90582168496601 92.54529251811333 18.05390238387011 0 0 -1
390 1 122.39634164308609 91.72336522910871 15.077900638689442 0 0 0
1308 1 126.37269741012412 91.86246781106111 13.112699537853029 0 0 0
1020 1 134.78833717081108 89.53026545331109 4.424139762372359 0 0 0
607 1 127.81440991386924 89.72886101740559 14.41179704316311 0 0 0
891 1 131.88538941966544 91.29233420241817 13.7628450588912 0 0 0
955 1 125.41215822412498 92.04720534235089 4.644341668756554 0 0 -1
1747 1 116.02111291786902 92.63352574152258 18.975482849436137 0 0 0
3395 1 131.87478945031245 90.19315721810517 16.205759239176096 0 0 0
3351 1 133.955694052968 87.55871198694906 16.889339346327883 0 0 0
581 1 124.45289495378192 91.86810381396461 2.0149289588812085 0 0 1
3366 1 128.97227357332198 92.45372621978419 11.090456407061467 0 0 0
2262 1 133.6702605397063 92.76257713388404 16.33462369229004 0 0 -1
70 1 124.38717055296812 92.72386801288319 16.471333303342334 0 0 0
1555 1 113.4140235008586 96.12455374322955 1.787633572882922 0 0 -1
1549 1 132.28114508798694 155.3841510768479 14.413498925871492 0 0 0
1234 1 114.37502198539683 94.80082256418221 4.1566331121251725 0 0 0
629 1 118.47795337237386 95.52486206079882 2.676618149901582 0 0 0
1280 1 114.69831230594863 93.7529587750065 14.953794970172694 0 0 -1
1479 1 123.06068560859161 94.0658549400864 1.6060289094399522 0 0 2
1730 1 134.7933299499902 102.0571410179746 2.3232572411026924 0 0 1
1421 1 129.69897051891144 93.40230347669748 17.44619344769292 0 0 -1
219 1 129.33710737641616 94.09143280840809 4.452538415303922 0 0 0
1740 1 125.10709752327485 93.86925490584174 9.459567741494622 0 0 1
3383 1 132.73590018378434 94.1391537290642 5.8665548194487736 0 0 0
894 1 108.25004195726927 97.7261303316484 4.361394041529792 0 0 0
1868 1 118.71075398333855 98.66762204038932 2.408769129356493 0 0 1
468 1 120.71143696276789 97.23352329852992 3.816217765040032 0 0 1
191 1 125.8651934023178 95.83286668111171 2.3768690899592215 0 0 0
1101 1 127.9317151931295 101.7608835942471 1.5528801392010245 0 0 0
508 1 133.3665760821387 97.55892390579348 2.2221869328406516 0 0 1
109 1 106.91578349358208 101.37492181974558 2.3640273862278596 0 0 1
1575 1 109.59875988650641 101.156156417123 2.232604552127487 0 0 0
1487 1 110.63618711634139 98.40436382824987 3.10808735825997 0 0 0
709 1 112.1529721739347 102.11450020700708 5.12921275825184 0 0 1
1582 1 114.57225664760801 102.87567407180691 4.648479995723535 0 0 0
297 1 118.62833446017211 101.16428402357064 3.9985668503008256 0 0 0
1688 1 122.87487569258937 95.58796165276755 6.562157474960631 0 0 1
1442 1 124.0340866209582 100.88014501122292 2.4328946567088137 0 0 0
665 1 126.44840137524955 101.01789066625491 3.883797596316267 0 0 1
1132 1 132.37958568412455 102.0192124294679 3.229268522408898 0 0 0
1744 1 102.28675283853678 103.54816952156881 2.771920797037609 0 0 0
685 1 114.27269062084773 105.21995830969095 6.118732586255744 0 0 1
578 1 118.64226976923533 103.54926773825666 2.628851307706669 0 0 1
976 1 119.22939457197242 105.73242503606134 4.354435006949432 0 0 0
1965 1 122.51688196662258 102.93560523294909 3.2380855612791244 0 0 0
428 1 124.26712146596411 104.9147470715025 3.178529387071104 0 0 1
2966 1 125.89807012948292 103.7561860676083 1.3993000502676953 0 0 2
1798 1 129.6541661683101 105.05699944250033 4.257858692958742 0 0 0
953 1 130.06976555223474 103.39875490027809 2.153806888705809 0 0 0
404 1 134.45464425117257 170.14115809969644 13.272755794957249 0 0 0
226 1 100.24513648646118 105.36576660692724 3.7709629397237547 0 0 1
584 1 102.70475505916981 107.56869748209171 19.170122005731123 0 0 -1
1992 1 106.6578697232322 106.50968962769124 3.2283782879428324 0 0 -1
218 1 108.84616280558386 107.64376835512729 1.9342068453264443 0 0 0
1455 1 111.4848603973968 106.47351649418309 1.6296373449285873 0 0 1
2012 1 112.92819928690446 106.79077658510505 4.323396491218443 0 0 1
1003 1 115.53988954622396 106.91000027806597 3.4339144529954018 0 0 -1
88 1 119.58019714692341 108.0336645335336 3.139213837914136 0 0 1
1317 1 123.3115639335713 106.63188702151108 1.1593579713446491 0 0 0
801 1 123.58061089953158 109.37636714854672 4.857278894931256 0 0 0
1181 1 129.7783672736565 107.66724762619798 3.2939785298256266 0 0 1
4037 1 130.75425174000827 106.7988891822955 18.147660052583095 0 0 0
1862 1 133.68286554805115 106.48008393361222 3.8351748065843205 0 0 1
2616 1 133.62680476595145 106.24899446980092 0.85940420135794 0 0 1
1397 1 96.70284880661498 108.647234326122 3.5499495651514423 0 0 0
1908 1 98.32991438511361 106.08741458128192 1.99659653654821 0 0 1
1260 1 101.64696452794605 107.74042494547916 3.0462877339761296 0 0 -1
895 1 104.49137328126683 109.75680106601888 18.432485377938516 0 0 -1
1149 1 108.62818663621702 110.17986703104317 2.942754431581501 0 0 0
267 1 110.97149938472286 110.63496691653918 1.490847794619408 0 0 0
1709 1 116.1649808778037 110.56018003896641 4.98369901118755 0 0 1
212 1 116.92725566860737 109.19666656285847 2.674532148831062 0 0 0
121 1 120.72343336772155 109.33080946927856 5.2707107009703495 0 0 1
466 1 125.14490147295696 108.32282604610383 2.5637455047288906 0 0 1
293 1 128.23308615392554 110.67838369678609 1.7239306106114998 0 0 1
4119 1 132.02200487585952 111.29004110622444 3.570315826127173 0 0 0
769 1 96.22291912630182 110.66035006676898 2.028493862556314 0 0 0
1228 1 99.47255703045523 109.52091869525303 3.717037765506761 0 0 0
1128 1 101.00644152142121 111.09876711770549 1.9772120204581884 0 0 0
100 1 103.22143653258178 112.3364737830741 3.580744803250008 0 0 0
464 1 104.92718073827379 111.884261547584 1.4094116685180165 0 0 1
893 1 106.91534852191677 114.00644115108895 0.8823386270105718 0 0 0
1400 1 109.56846829290092 114.42833126517777 1.701746413022296 0 0 1
200 1 112.64133375115594 112.4738050599043 3.0768547599581466 0 0 0
860 1 113.82346599797589 114.16991178309154 1.1873292595088563 0 0 0
3614 1 116.11641858238285 115.0611951822795 3.2861211416456557 0 0 0
973 1 121.6910602916808 113.19635036874361 1.9461820396943972 0 0 0
1116 1 128.2412683621131 113.07000402846413 3.4723189977740274 0 0 1
2035 1 131.89296001818963 114.70297876066743 4.311523246179846 0 0 1
3140 1 130.50556066037717 114.20515390485636 2.0716456329090294 0 0 1
728 1 133.3010797007208 153.4167566295804 12.443982155378809 0 0 0
730 1 95.55959086468184 115.05896236791106 1.794829979411073 0 0 1
352 1 94.18059830738164 112.75206636832199 2.571100684708936 0 0 0
777 1 102.12198926763396 114.80107545695695 3.03350056200179 0 0 0
1817 1 102.99112038806524 115.97574864664082 19.020375554183044 0 0 0
1021 1 105.68601427983872 116.18585187056298 1.6910436999174134 0 0 -1
1363 1 109.81742883823102 117.17190538950602 1.8115122651039821 0 0 0
341 1 117.31208175443366 117.75654173718706 19.043747365335612 0 0 -1
102 1 120.39390321779271 115.90717657200331 2.968847735226686 0 0 1
2197 1 122.10902754826303 118.10535159427188 4.213413253765448 0 0 1
1738 1 126.11622209481888 114.65015567922921 2.9481695113018374 0 0 1
1191 1 126.00145823737515 117.57788786884252 2.28907685428781 0 0 0
2214 1 130.1377816012908 118.07499431259797 2.387578026611621 0 0 2
1923 1 132.23389827848126 93.52148517904924 18.555553159886706 0 0 0
851 1 93.4642192725414 116.96878397443942 2.3068746740392263 0 0 0
951 1 94.56571322749855 118.97429422335144 3.4331953284761325 0 0 0
1211 1 97.97607954665189 115.95234176189729 3.3743782892316623 0 0 0
107 1 101.01413584350031 114.5659637276287 5.845392892241704 0 0 1
601 1 106.97746572459587 120.30987139580813 2.7494971863666335 0 0 0
1140 1 107.2912846796848 118.42049996057025 1.0060206718775753 0 0 -1
291 1 112.08792695149153 120.83963676465125 1.6623450542385898 0 0 0
1870 1 117.44818074180816 119.17081972849167 2.6047532953544703 0 0 1
793 1 118.50408761091687 117.44640447837334 4.6080544875210165 0 0 0
2602 1 123.48733436522474 118.45665647513142 1.8244129174982873 0 0 1
3065 1 126.2732580644846 118.71865780638764 5.135478212076898 0 0 1
475 1 128.02889892597946 119.30676020644648 19.191460763069934 0 0 1
2799 1 133.11305369902135 118.59574073569877 5.33952887619141 0 0 1
950 1 92.75904896761844 121.14677682746392 4.016150387605278 0 0 0
831 1 96.98179451295681 118.63380353214829 4.714744524479617 0 0 0
1557 1 98.38060251618909 119.95544480455926 2.608966221687559 0 0 -1
865 1 100.77771252800596 118.05233600368628 3.5804839077731203 0 0 1
2054 1 99.53243267022089 116.807324521184 5.861674539841312 0 0 1
285 1 104.17550366271061 121.02639879696096 2.564123104685616 0 0 0
158 1 108.20689642924303 122.68837157869456 2.441792553057507 0 0 0
1955 1 113.34397919198446 122.69741763055816 3.38765119297606 0 0 1
650 1 115.8666965918613 121.44855599729613 3.616663500838587 0 0 0
3624 1 122.71529812076429 122.56138236605538 4.135587835908906 0 0 0
2904 1 126.67494045791638 124.08534125767791 4.25717815734388 0 0 0
2028 1 129.59295329972178 120.89811642588079 3.3374628030124094 0 0 1
1199 1 131.91178273024633 120.81133830852089 4.954578507572255 0 0 1
1472 1 134.00914263835705 121.76087696000214 3.8578105217737435 0 0 1
286 1 91.24190024782348 122.61226006890286 2.3615522840282948 0 0 0
132 1 96.90459267937707 126.28456720120501 5.791924257119386 0 0 0
441 1 96.02416587700294 123.3916001879434 2.2973365817082714 0 0 0
395 1 98.86978693194655 122.567280096965 2.636684082736038 0 0 0
474 1 99.92571454578892 126.4365830825775 3.478150842094609 0 0 0
2001 1 102.80942294401383 126.50369327709465 3.404348643332432 0 0 0
1886 1 106.33031547191055 124.57806121540507 2.563365733590125 0 0 0
288 1 111.50488010499292 125.61596420484456 19.049324118154914 0 0 0
579 1 115.39004504107801 124.48007037334413 1.7896706550985158 0 0 1
64 1 118.07985836213972 125.08698458635969 0.920731040350496 0 0 0
781 1 118.05873652893932 123.08726917720011 3.055107624220187 0 0 0
1489 1 124.88918819494691 126.24325121480568 6.200363210906177 0 0 0
296 1 125.01940170057223 126.68908055341069 1.695122188048851 0 0 2
75 1 132.6810529787465 126.72618910710685 7.00416908424133 0 0 0
636 1 129.0251134135269 125.78304373150004 4.706244347077178 0 0 1
1970 1 131.21714891577165 124.75057368302757 5.813549717343564 0 0 1
2839 1 133.40382034303198 124.30075485110018 4.028278274262137 0 0 2
1457 1 88.76978511455897 127.20100868034088 3.5035087103834965 0 0 -1
846 1 90.98724225502895 125.45944156458481 3.2076807496161424 0 0 -1
225 1 93.03800043249822 127.00149638149351 2.251369287806792 0 0 -1
909 1 99.06539541401611 126.2275947832702 0.7155356791783976 0 0 0
478 1 98.8773051829469 128.98270861657957 4.311749436283554 0 0 1
913 1 104.72066975573163 129.62167216681664 18.999398920524516 0 0 -1
1611 1 104.71583633114577 127.8238199156592 4.646978261028265 0 0 0
1404 1 112.36781310295305 126.93193064417287 2.598744702378721 0 0 0
427 1 114.97666745416215 127.93848228916673 1.8876345804636536 0 0 0
6 1 122.99588621816117 124.87188598426273 2.6667217418209153 0 0 1
1193 1 120.59220181723111 131.1066706118173 1.560425061735807 0 0 0
76 1 125.41093930603597 128.67146541385438 3.7845440029931146 0 0 0
1117 1 127.64911585860592 129.92944607371805 2.2339791141424428 0 0 0
374 1 91.91731343285902 131.08090363969293 3.0130832733334345 0 0 0
456 1 89.75212644222164 129.35173490999918 1.9616174192271119 0 0 -1
1428 1 93.90768261281893 129.17603564319535 4.0328367581608076 0 0 0
711 1 96.49248854192652 129.77395445305572 2.591295587893677 0 0 0
454 1 101.09056627682449 130.42441241321413 0.8237652344364826 0 0 0
1796 1 105.09368733345738 130.1778274169214 3.0237381937171284 0 0 0
845 1 107.29486552071276 129.85293143556427 18.58709201815983 0 0 -1
783 1 108.45177302633098 128.8945190864851 2.3132476329480687 0 0 0
659 1 111.36094928778064 129.35176220526625 2.211050899292668 0 0 0
594 1 111.20498937399768 131.2768675277268 18.591101033721785 0 0 0
1130 1 113.28841084928042 133.27770768654682 0.8318348703271452 0 0 0
1055 1 114.36577609754742 130.43133528775846 0.804722883352607 0 0 0
898 1 117.99673906824346 132.87241718739114 1.354226707856336 0 0 0
1152 1 121.97930901125211 131.6974567248625 3.8942881079604708 0 0 0
1269 1 124.88844804882531 131.68618228514154 3.739514768385721 0 0 0
1995 1 124.94560562469205 132.43889856065118 19.254645300663682 0 0 -1
141 1 127.81720425621566 132.87748553121753 3.0816905769466745 0 0 1
448 1 130.03895864845333 129.27879759150449 3.2698903983931618 0 0 1
733 1 133.46631072542544 128.96203930223047 2.1905016525216006 0 0 0
1288 1 132.0414992489874 131.3584451625814 2.9614489823235255 0 0 0
1943 1 92.7178910295985 133.01466695194728 1.2641738030874894 0 0 1
477 1 96.40568287123182 132.45226655069865 3.948628061091368 0 0 1
723 1 99.26578271802698 131.99990975277188 18.079800099072653 0 0 -1
1551 1 102.906589593351 134.32905661059718 3.7151619963279523 0 0 0
1415 1 98.79180151807425 133.3185952433256 3.3856555967696464 0 0 -1
1070 1 102.36304706287225 134.31023219660008 0.6493161237342285 0 0 0
1681 1 107.81345998952642 131.02829015551356 3.774978786340945 0 0 0
1099 1 113.80858371790207 133.0412105211109 3.628822032682391 0 0 0
1511 1 120.1497261495642 134.2464789956951 2.5260211322820103 0 0 0
734 1 123.27157060396071 134.55447643595843 3.840193391612443 0 0 0
3742 1 125.81961620112936 134.6213198517624 2.322848467490217 0 0 0
1980 1 130.41247630247142 133.8155612899581 2.417278833497109 0 0 0
2004 1 90.26991226448853 134.08772920839064 19.24507933765619 0 0 -1
1444 1 94.63719883051876 134.35938248297964 2.924675024469346 0 0 1
1695 1 94.99979121206941 137.14160277984917 1.7960928705525219 0 0 0
1485 1 100.88698967063631 136.53585146023897 18.77675654576137 0 0 -1
554 1 105.5705741721612 134.84871500845486 3.0245697014609467 0 0 0
903 1 106.10395551898871 137.6848881290535 3.730060066007939 0 0 0
1742 1 111.57179981675226 135.2466361973118 19.367998205118127 0 0 0
2034 1 113.0772128127689 139.80385191462722 17.05969466092219 0 0 0
1177 1 116.519300759295 136.3607997723232 3.0221716308866093 0 0 1
877 1 114.02532560566229 137.18590965270317 2.367691050052548 0 0 0
1941 1 118.28476016268924 138.95163226615517 4.150966217737967 0 0 0
2188 1 119.72719169376643 138.7532618324292 1.5335099150967473 0 0 1
3619 1 122.91232126706493 137.0571440790511 18.648013804761657 0 0 0
905 1 122.40569171082385 138.7927589468702 2.298933653417338 0 0 0
1957 1 126.56374740285759 135.89663235696094 5.216813895339693 0 0 1
181 1 128.5546222784378 137.93399645822183 4.049771827760447 0 0 0
15 1 91.20148207714179 137.06036753646356 18.55485826138294 0 0 -1
1633 1 92.55792049190008 138.35551616614902 2.042738557725335 0 0 0
1 1 95.64651612225228 139.69185268837305 17.3706910105243 0 0 -1
524 1 105.10370155655825 138.57544801241266 1.3615190623861644 0 0 0
1262 1 102.174951624143 138.930729753364 0.8432766607586091 0 0 0
1188 1 105.05696970796318 140.9969857538253 2.857982428196339 0 0 1
945 1 110.05969100074016 140.35256531655932 17.529999516755012 0 0 -1
51 1 114.22392445334486 139.83240521502955 2.1846636691858006 0 0 0
432 1 121.72763275089072 141.67739595612483 2.2977546453281485 0 0 0
166 1 125.0152152777023 139.35573319012582 1.7017344714882678 0 0 0
1377 1 126.93368056321691 137.3286316220977 2.0839866624585968 0 0 0
3256 1 128.06502072886727 140.22450671404374 6.063696790430645 0 0 0
3756 1 130.96691737565772 139.71672222671452 1.0560340525291525 0 0 0
870 1 91.67715438603197 142.16418780006802 18.116935285834664 0 0 0
22 1 95.40796132406288 140.3462553760212 1.4130117018217059 0 0 1
1491 1 100.6340158962976 142.0771565807829 0.8105080394714521 0 0 0
1247 1 104.92714595642947 142.8762322658884 0.9242706188481009 0 0 1
620 1 111.50384840166416 143.35526298047597 2.818024474322774 0 0 1
290 1 116.1449527406996 144.05898940530926 1.681620669264815 0 0 -1
2020 1 119.85256575427717 141.69938793373973 4.225446398804293 0 0 0
2030 1 124.72619175678462 144.7436860156962 2.312735530692999 0 0 1
1875 1 127.6072762728324 142.92982444046788 3.370132412585798 0 0 1
599 1 129.31180001305458 140.75734970698255 3.1552968163101007 0 0 1
3175 1 132.32323364157526 144.78907542972956 4.2227117622303325 0 0 0
707 1 91.88274162415864 144.77080428952127 18.47097081567224 0 0 0
351 1 95.2239147377336 143.43134460864252 0.8852290808238854 0 0 0
1658 1 93.81362147717964 145.39452993272306 1.7869639672253703 0 0 1
690 1 98.2348781938053 143.387660487252 0.8872555604001058 0 0 1
780 1 103.03169245902599 145.60934632337762 3.0978078237720994 0 0 1
1644 1 106.5462809855722 144.7325615881055 2.1869230078576885 0 0 0
1643 1 112.28211999011474 147.27887135285624 18.71150179324063 0 0 0
549 1 113.92535659067349 145.04920993517254 3.4619443247263 0 0 0
1028 1 120.17439027583019 145.44527499485315 0.9888808425620764 0 0 0
882 1 124.16903709225663 147.16782139285152 1.332414666506888 0 0 0
1001 1 121.47642319825749 147.33760692855896 2.7464380872053695 0 0 0
748 1 127.23718543505365 147.9380075638099 4.008771594321419 0 0 1
2542 1 128.48757088430386 145.61629505459484 2.629152699345087 0 0 1
2789 1 130.2464387709789 146.5013250042768 4.256044393237811 0 0 0
1160 1 96.242853343007 146.96134005855782 1.528272136317959 0 0 0
1395 1 96.94830429921998 148.9483085356519 3.3567697535142575 0 0 0
1372 1 99.6310945960128 148.19215273485906 3.253274971909623 0 0 0
1592 1 104.63530364512482 151.21103879647012 15.727105377174412 0 0 -1
1665 1 107.17182985354303 150.85572776145727 0.9396497503235148 0 0 0
104 1 110.70524196127138 149.55889811088247 3.6845199127206496 0 0 0
2029 1 115.96619496261846 148.46185682938562 1.843987687523417 0 0 0
1394 1 113.19546122067331 147.6247808676822 2.7280619611631987 0 0 1
1953 1 118.15494363723181 148.23667241746438 3.171397109628489 0 0 1
14 1 122.94337809861665 150.072921099535 3.2084344883268283 0 0 0
314 1 120.26437445366396 150.02171882292328 2.0288210906439543 0 0 1
2194 1 125.15199165389367 151.77441247835606 1.0135891540784554 0 0 1
1112 1 125.4246393062448 149.17739890246742 2.3589499470789983 0 0 0
1546 1 131.28879488502702 149.06997264646424 3.4619523942088035 0 0 0
156 1 95.59067359745953 151.342281151318 2.4498061247141676 0 0 1
30 1 97.85358701534761 152.72132678740962 2.784822257194368 0 0 1
1978 1 100.26221724865702 151.83087971617664 3.8596959287975268 0 0 1
731 1 101.12900993630508 152.68825771877266 16.463342561440577 0 0 -1
1037 1 103.72064746805587 151.73097715913644 0.9986343469288944 0 0 1
203 1 108.82736805605921 149.5608474103396 18.012022094523687 0 0 -1
933 1 112.7644027739871 151.40286455621856 3.5558627585300346 0 0 1
989 1 112.66730723967892 153.8480867648019 5.588372107187394 0 0 0
1098 1 120.27268959291459 153.48674407708268 1.7979631904992683 0 0 1
262 1 122.86354665314506 152.8025147744837 2.8600657846997612 0 0 0
315 1 126.99365489079221 153.44894413365506 2.5699335626885853 0 0 1
101 1 132.19033913694676 153.6236261608476 17.193278653497252 0 0 -1
2380 1 129.42564199545956 152.23948002825472 2.9562487005174205 0 0 1
2774 1 133.7572356938623 118.39620534091465 7.8554487158951805 0 0 1
311 1 95.21652096898517 153.48065245479245 19.29119993328056 0 0 -1
1656 1 102.93510843066011 154.6848379813294 16.86778500006022 0 0 0
1617 1 107.9982066317442 153.6696156546809 4.896679156974852 0 0 0
807 1 106.34653439997149 156.13320419212772 1.0651405677652712 0 0 1
1989 1 109.98401305242112 153.94399809364495 1.1552422941961549 0 0 0
2011 1 112.42169081019402 154.50358773171644 2.4986401168355394 0 0 0
837 1 114.84071036094686 154.33539062425962 1.083664894759648 0 0 0
372 1 116.49454336959549 155.0724053837489 3.081423226064464 0 0 0
847 1 120.31463386494144 156.25704960317404 2.4693769984626863 0 0 0
1936 1 124.0195020051804 155.07039268100766 1.3382321111093844 0 0 1
1906 1 126.5049363467491 156.08853633739562 1.91538862567225 0 0 -1
515 1 130.47864939415075 156.5772794414887 1.285715025598288 0 0 -1
281 1 133.61930118406696 154.59485003388284 3.0950383425543326 0 0 0
66 1 95.87370250523573 156.1927355459776 1.6298886259990342 0 0 0
408 1 99.64324693062133 157.16665119766736 3.6465506955422007 0 0 1
1301 1 100.74887724138758 155.95324815692305 1.4873611450212765 0 0 1
805 1 103.84282606007595 159.41970640217397 3.0403035182235536 0 0 1
1453 1 104.52618986824582 158.22152162000367 19.130996554760845 0 0 -1
1896 1 109.0296879232879 156.31877834156597 19.16212153648198 0 0 0
434 1 110.21379235984557 158.49403853729916 1.866398621617207 0 0 0
1572 1 112.53881425203862 157.3361849525699 3.07378734225379 0 0 1
1184 1 115.00952672133307 158.1686292335698 1.8146474355151416 0 0 0
1715 1 117.82881979520498 158.02047047637944 2.902294273088813 0 0 1
948 1 122.86941807120384 157.40517636466757 2.294360453073776 0 0 1
624 1 126.27194375003737 159.0363207961404 18.8984163036296 0 0 0
1157 1 126.09210766898211 159.50837409584796 2.8718374757658878 0 0 0
1613 1 131.34635797680318 158.8886243239686 19.08757522445838 0 0 -1
1950 1 98.43127926013449 159.15519539796048 1.4190276434673574 0 0 1
1874 1 102.4120035822775 161.5819262496699 1.8968284401023154 0 0 1
550 1 107.11092757043922 161.4074474470646 1.1036501435997685 0 0 1
45 1 109.93096923266091 161.42787721182378 0.9086945325461591 0 0 0
411 1 117.8648792098598 162.40195710116973 4.054627205653425 0 0 1
716 1 115.23770759000246 160.9944640940842 1.7320926967444445 0 0 1
1391 1 118.89002226251858 159.390466466131 0.730343702465362 0 0 1
2061 1 120.96972446586862 161.04287649412396 1.4301255419830627 0 0 2
12 1 122.62146100062967 161.26028544540787 17.9314131589191 0 0 0
1792 1 127.43367743449286 161.22758676177654 17.963590428849706 0 0 0
1090 1 116.48793028012604 93.41097372543119 7.464908117069364 0 0 0
47 1 98.56129249393932 161.87096312496163 1.1487511691117398 0 0 1
301 1 104.37057064563196 163.67143790201692 2.724586100600865 0 0 1
772 1 112.41617345564441 162.74343683087346 19.14548819502487 0 0 0
1124 1 113.43499183412771 163.09497899786277 3.305063410649051 0 0 1
1979 1 114.88855023140253 165.45395361870487 3.2227173139777374 0 0 1
593 1 119.18691632865512 163.2776762692289 1.551130488077955 0 0 1
1822 1 120.16312800117561 165.2582127413051 18.67068170687046 0 0 0
2718 1 120.83540191353539 164.27350439569676 3.8723873056068334 0 0 0
114 1 125.88847130266598 163.80423718486674 3.152811360679488 0 0 1
1403 1 124.49820424590706 166.29922626073238 2.322174138444081 0 0 0
3313 1 127.90775087639025 162.93521732304947 1.4466847223626165 0 0 0
323 1 133.51230522503113 164.0759478708752 17.821484185874294 0 0 0
410 1 105.20659191246291 166.53355915039282 17.45016794444538 0 0 -1
473 1 106.10522693700857 163.7892991412665 19.357032889309583 0 0 0
522 1 110.3000448224238 166.36198597158727 2.5722335503275082 0 0 0
1279 1 115.67617003389795 166.40669379071682 19.27259741496315 0 0 -1
1304 1 118.44777031806956 167.12882306122532 0.8288919815997262 0 0 2
810 1 125.2492468814307 168.87349298700218 2.692043535795001 0 0 0
1447 1 128.66715919208997 167.8389768596229 19.221045788112708 0 0 -1
2048 1 130.171083439714 164.32654425408754 1.6536231653560383 0 0 0
2791 1 129.71911180239368 166.7658442310223 2.8039423657806024 0 0 1
2684 1 132.25199751208754 168.48330407344667 1.0821193954570667 0 0 1
407 1 106.58739088070152 168.49185936629084 19.313452315124753 0 0 0
588 1 107.35475283847566 169.66584485053306 2.7743155598038487 0 0 1
1904 1 111.20745857917463 170.97432781726116 3.575885253176318 0 0 1
1603 1 113.86578391340477 168.31403262917985 18.929582345468475 0 0 -1
2257 1 113.46569713267647 169.66987977777654 2.663025029902545 0 0 1
1212 1 118.5497904506493 168.53432171783965 3.177322881561081 0 0 1
576 1 121.49480837722089 168.87975631527308 3.69514580961631 0 0 0
1013 1 122.94220048669446 170.34940704896405 1.6207140202554524 0 0 0
3972 1 133.68486014218763 166.6515176249244 17.22950334068644 0 0 0
1161 1 107.91579344336338 172.0395582818461 1.2812691021693974 0 0 1
800 1 110.87710706365431 173.04092495857543 1.4773403351136298 0 0 0
529 1 115.1874667554906 171.54324248581702 4.213084658284662 0 0 1
645 1 113.75430013071177 173.65713834891375 3.1687249727801414 0 0 1
1253 1 117.4377722723201 171.1517538254654 2.623764805401481 0 0 0
842 1 121.40552844205173 174.62731703650604 2.4122014689356526 0 0 0
990 1 123.51011532102665 173.26811869568155 1.0376224640457627 0 0 0
1898 1 127.52714615049062 172.23349082771512 2.0298887915300643 0 0 0
643 1 129.24652207204662 173.1136636367629 18.824690864209938 0 0 0
929 1 130.24505594956202 175.52979213958548 19.227287755272318 0 0 -1
1931 1 133.54770617180318 172.54349325424596 2.6213485602121613 0 0 1
2726 1 133.85674943740142 140.5186788569278 4.564431223488219 0 0 0
975 1 116.52052388041122 174.89496306826106 3.849768432148177 0 0 0
2244 1 127.87876620785728 96.22162268351593 14.686636219446017 0 0 -1
1062 1 132.72815541153363 175.63227974662487 2.024027601496605 0 0 1
238 1 110.05877116686348 95.27882563940396 9.292073781335048 0 0 0
835 1 113.8670419280002 94.04315902992452 7.013340528000204 0 0 -1
1852 1 132.10105778355418 148.7652369561235 0.7039716712537263 0 0 1
3099 1 134.424698951043 127.44617399841742 15.858225934086413 0 0 0
2076 1 125.19037767649108 94.17205953612442 6.5334695099721785 0 0 0
1804 1 126.63571014370169 96.51289725276092 6.695148520403018 0 0 -1
421 1 124.96613524345699 98.30136188004673 4.521097810912321 0 0 0
426 1 134.61437851017607 119.95867036557026 17.963439768783243 0 0 0
245 1 106.57511963618599 99.86663615431947 4.7582430668586015 0 0 0
1450 1 108.58810286701389 97.1013701730463 7.101593990646949 0 0 0
1368 1 111.81647400465718 99.54457359573045 5.361910863602228 0 0 1
1895 1 116.37175821016675 96.81290637454939 4.236843379793518 0 0 -1
1764 1 120.7598866340061 99.01504425678965 5.876385591880487 0 0 1
355 1 122.9468303312793 95.82174936840245 3.771175969139707 0 0 0
2070 1 128.70957494359226 96.80574955549284 4.926453376427735 0 0 0
320 1 126.07927837120151 99.1105977855253 8.180583620963255 0 0 1
3015 1 130.87485949115114 97.6587016193293 6.154104372655167 0 0 1
4038 1 133.21755981165904 96.67845816048457 5.075372309828796 0 0 0
812 1 107.73353029929133 101.07570892847801 7.02787215457615 0 0 1
460 1 114.29773385059984 98.53107645575122 8.440229210538764 0 0 1
1080 1 114.5251757100061 98.77695752836615 5.738157291713834 0 0 0
412 1 120.97606069400665 101.6048852743109 5.559807613410559 0 0 0
11 1 123.3380709929943 101.76940163174218 7.615933270035778 0 0 0
1218 1 116.45080958068024 100.92301993509872 5.710531081493043 0 0 0
749 1 123.36276193970902 98.29867573932037 7.289611216714638 0 0 1
222 1 127.50117943252383 100.73934904133465 6.525514952684623 0 0 1
237 1 130.1771379102977 100.11412488311134 7.200066266580688 0 0 -1
2919 1 132.34669482904945 101.60397520361347 6.121428443152659 0 0 0
1150 1 134.8868853640829 134.10829885614848 12.860458941473306 0 0 0
1838 1 103.33251625561451 101.62393967149814 6.701640872972009 0 0 0
546 1 104.13648175980681 103.55831800862424 5.003298227712668 0 0 1
881 1 106.40591730047919 103.74341331217285 3.6506307933366444 0 0 0
1367 1 108.17430802454064 103.69996182946157 5.823214188908617 0 0 0
1151 1 110.56506185514873 103.5116269306027 3.494365431208503 0 0 0
677 1 110.09282063246262 106.03133378730132 5.630133038517801 0 0 0
416 1 116.98347587902497 106.4001554231661 6.005256021469942 0 0 0
1858 1 118.85122988607992 105.72958735368333 8.063026996325867 0 0 0
1947 1 120.77926527764794 104.70800473657 6.160298180021599 0 0 0
2033 1 125.06312568350417 105.25239589374316 5.9653634149624395 0 0 0
1008 1 127.22697009756985 103.61088340064879 4.536405219643791 0 0 0
1456 1 132.2562399752243 104.69223903774163 5.194637866906549 0 0 0
1821 1 101.08458080359036 105.24659980960563 6.524884242219135 0 0 0
424 1 104.03449638308824 107.98496594089904 4.271207885558815 0 0 1
34 1 103.99620421836089 105.92399806000746 6.262055921095522 0 0 -1
1778 1 106.95506175981944 106.60575435810613 6.032073722224467 0 0 0
145 1 107.4907601736414 108.81511804449157 7.4006769226694145 0 0 0