LAMMPS data file via write_data, version 29 Oct 2020, timestep = 50550

519 atoms
1 atom types

2.9875647273995583 267.01243527259624 xlo xhi
2.9875647273995583 267.01243527259624 ylo yhi
0.2213010909181783 19.778698909081807 zlo zhi

Masses

1 18.015

Atoms # atomic

215 1 133.80958561099527 121.78509851917353 2.4400886927353156 0 0 0
124 1 126.96754042489627 125.07195370424684 2.9840970385734855 0 0 0
16 1 131.00714262611214 122.35706036156392 1.7928131781628915 0 0 1
26 1 125.13465136189825 127.20885430458397 3.475647945155795 0 0 0
110 1 128.5535710758279 127.17620891650611 2.7253933344986283 0 0 1
399 1 132.8030725031278 126.83104980999713 2.249510187083505 0 0 1
453 1 134.54784956541602 139.2233045555839 19.324835497226367 0 0 -1
188 1 127.36547051014111 128.8394123297519 4.696905286134082 0 0 0
491 1 124.093536325079 129.46296870106875 2.1661269001062182 0 0 1
167 1 129.46912017651346 129.93947736787862 2.346072815311774 0 0 0
33 1 132.299253781681 128.83364801300513 4.2405211337270785 0 0 0
2 1 123.69923664654047 131.50246423242587 4.05084517212153 0 0 0
187 1 124.53353615085918 133.65515052513265 2.347651635803845 0 0 1
397 1 125.67589051458165 132.45339714753584 19.578124654084593 0 0 0
86 1 128.0170055913384 132.64770540522625 1.6167612981304584 0 0 0
172 1 130.58265489560577 132.88424006428892 4.536329707169375 0 0 0
225 1 131.4597871480584 130.36922001807312 19.697546721150044 0 0 -1
150 1 134.9679247333889 148.2522920044955 11.17113314842896 0 0 0
43 1 130.3852293642313 148.16236590661742 16.739200651244186 0 0 -1
82 1 121.3909868755966 132.40806718508438 5.583082377568393 0 0 0
58 1 123.07938879599531 136.16655249475298 1.9257221121676942 0 0 1
363 1 128.53447959932356 137.8854244656255 3.3883792093137024 0 0 1
304 1 131.34426399746192 135.30508287664088 0.7506680976458999 0 0 1
220 1 120.92318668328319 140.10930696360316 3.6955974636243436 0 0 1
230 1 125.82740290779698 138.1532649203747 2.3825395406724517 0 0 0
226 1 130.45386177271808 139.96385533137155 3.0372346722553853 0 0 1
365 1 132.75958932576341 134.28310768420462 18.116473652016147 0 0 -1
393 1 132.68702914140553 137.92693157966127 3.678823212941137 0 0 0
40 1 122.41946482506 140.8686809351978 1.5999465360682659 0 0 0
482 1 124.55412938351365 142.0621672569632 2.9771705981406558 0 0 1
493 1 127.24035314291952 142.7901873902415 2.3664489661416086 0 0 1
250 1 128.73380289559867 141.6419261233774 4.53965456541573 0 0 1
426 1 122.43777801600945 145.35196803763048 2.142872029189604 0 0 0
434 1 127.214204839918 145.42088698230913 1.9290762167914748 0 0 1
368 1 132.14277374964584 143.76497536343007 0.6527104835763945 0 0 0
313 1 134.90782534754007 132.39159091752728 4.512685333813073 0 0 0
478 1 126.26101072944674 148.5202557941602 0.4873680347775338 0 0 1
162 1 129.87810432136462 146.45487380239643 0.7725186035732905 0 0 0
174 1 132.11298792212682 146.9516897226251 18.83849449875795 0 0 0
504 1 134.8102297051261 146.8273717566078 16.843021411387046 0 0 0
507 1 128.72222944541548 148.67675055392772 1.7313285033373336 0 0 1
182 1 130.31124986120705 150.71562944198521 0.7049142728467532 0 0 0
350 1 132.78489213057563 149.2113972429084 0.5192059021048001 0 0 0
4 1 134.0418744962561 128.4919345810768 6.249110784317304 0 0 0
175 1 128.17483972237824 124.03594598934276 5.059624544833252 0 0 -1
300 1 127.15394736688356 123.79861613303143 7.669776335247426 0 0 0
264 1 129.83399334616877 122.08414103665275 4.23063774905115 0 0 0
180 1 132.1921474911688 121.77903276428792 6.287876796575919 0 0 0
44 1 131.27021134451365 124.55125302432432 5.591731453619819 0 0 0
106 1 124.72027247339177 124.49565786572059 7.204062546242496 0 0 0
125 1 129.53441913231228 126.16581360852376 7.225845328705042 0 0 0
237 1 130.7726439137461 125.26585610169079 2.9643922290266445 0 0 1
238 1 130.20866994184084 129.00014866737746 6.08845304933905 0 0 0
48 1 134.48656079695814 130.1912804179716 8.277128359832592 0 0 0
66 1 124.780676711622 126.95884456021876 6.254796109702231 0 0 -1
270 1 133.70266048838823 151.35059358949593 18.08366640170743 0 0 -1
515 1 133.5934468415681 147.3632855255768 14.403227588958867 0 0 0
19 1 127.24848986234116 133.13231350274262 7.685568761550187 0 0 0
145 1 125.51652632347705 130.96457923516067 6.128431987115449 0 0 0
122 1 128.12106369026225 131.7193581812635 4.725702874653597 0 0 0
126 1 121.00689950840396 135.24442042167422 6.330206030290565 0 0 0
212 1 126.84436123494585 134.31435862323204 3.99667546865005 0 0 1
91 1 127.55150316195747 136.008281551806 6.181931085654667 0 0 0
140 1 133.422079724735 134.9554988411459 5.1155000363081635 0 0 1
109 1 131.44606468563384 133.9714259344888 7.162274858031892 0 0 0
24 1 121.36303918348737 137.12049437636188 4.124141242485078 0 0 0
192 1 123.3664567373776 138.07060706241725 5.839642138076321 0 0 0
295 1 127.77565947159144 138.99684199486066 5.986793995225868 0 0 1
52 1 133.1576083554252 137.5804233174699 6.718613458930899 0 0 0
135 1 121.69108397149873 142.01316899667776 5.668309321397961 0 0 1
153 1 123.57737334602429 143.9899156077324 4.389936822132829 0 0 0
67 1 126.14233041317638 142.0003831843015 6.708514047601908 0 0 -1
173 1 125.25408466128971 139.77758696728182 4.700885102545947 0 0 -1
467 1 134.5845357498162 122.56689232644311 4.848639404637569 0 0 0
410 1 134.56064570928208 139.86346279517613 6.999115692072585 0 0 1
1 1 125.31382734342827 144.62886748207063 6.3366908759810725 0 0 0
31 1 129.57330219299797 144.2533356850734 5.167939415470019 0 0 1
485 1 133.8728960397553 144.2660080563492 3.999159339589438 0 0 0
431 1 127.35373296648754 145.9795886081306 4.818060360082158 0 0 -1
186 1 129.21698224576699 144.36126549582855 7.888979047808352 0 0 1
164 1 131.41529445647535 145.45437908797282 3.2736648823792835 0 0 0
217 1 132.7672348422775 151.7638953163763 14.85142207604842 0 0 0
486 1 129.17546795513363 148.09155575691676 4.666823600987288 0 0 0
132 1 131.82149855391248 147.74980498081368 4.613043668735241 0 0 0
213 1 127.09477100877908 121.56732316363916 9.02456028315666 0 0 0
499 1 129.67274185286936 122.77346894156538 10.376060953756552 0 0 -1
463 1 131.69541904349597 123.02574656223287 8.615613026368377 0 0 0
75 1 123.96677668464626 124.64500361230782 9.818468855366785 0 0 0
338 1 131.65276809352005 127.78167106828768 8.238806070132545 0 0 0
81 1 133.0351185503969 125.4447288248045 8.831521596533161 0 0 0
8 1 125.6079756009969 127.03044385399913 9.583374648119465 0 0 0
500 1 123.42213027242028 129.12033181400477 10.210270142794633 0 0 1
278 1 127.10360855445472 128.05866001817117 7.453968541333316 0 0 0
194 1 127.86670066803093 125.22207837350616 10.044984389637202 0 0 0
412 1 130.9615558461975 131.25521441795237 7.878750296980652 0 0 -1
163 1 122.76526619046693 131.1972240502087 7.745788483400581 0 0 -1
231 1 121.04609743941216 131.2056264352222 9.903271631090806 0 0 0
214 1 125.75918841866324 130.29823462280388 9.017943216496004 0 0 1
223 1 128.65679197720522 131.25403424576822 9.277073910681086 0 0 0
37 1 133.26918886248058 133.64532952690627 9.357478627972785 0 0 0
30 1 127.82880877826354 147.60107027652418 17.812479048974964 0 0 1
423 1 122.2404404118305 134.87230631737256 8.930269060626737 0 0 0
15 1 120.28951687744473 133.73036381473895 10.526093365561154 0 0 0
222 1 124.68828984917505 133.23419976271688 9.003660520959107 0 0 0
34 1 124.76235833314495 134.59793900790007 11.496032323045545 0 0 0
83 1 129.59993713850528 135.56206240421756 8.23128293049894 0 0 0
23 1 134.27183497022088 136.69993759194838 1.4478186881158355 0 0 1
137 1 122.75942345979355 137.67414923054 9.805356389982807 0 0 -1
133 1 124.84486409134674 136.3227866693121 7.341088582843589 0 0 1
3 1 122.05529359359633 139.73540076021936 7.793576855026679 0 0 0
147 1 123.54346947957517 142.1685126320994 7.886121741551845 0 0 0
160 1 126.79808357657197 139.48248650030223 8.613102377784056 0 0 0
216 1 132.24787831883498 140.85388276212996 5.398735902419639 0 0 0
120 1 130.34134576719157 140.2771612412446 7.265382899566961 0 0 0
112 1 133.93280123930174 128.20265108229842 14.584975727902123 0 0 -1
113 1 131.27343675818074 137.73932136012874 8.838062261258662 0 0 -1
21 1 122.88067616468182 144.41348177402188 9.655022268323481 0 0 0
92 1 124.36412085359271 146.68280014610036 8.274716974952288 0 0 -1
170 1 128.76047705611444 141.83842824253148 9.47390757895607 0 0 1
142 1 131.91659916874195 144.88859555413197 8.208421369060066 0 0 0
117 1 133.64068529877116 143.09319949485288 6.610387897880705 0 0 0
285 1 126.3307338116338 144.0286877167606 9.512558868878356 0 0 0
198 1 130.91579468846368 150.76927560633763 17.409844162033206 0 0 -2
72 1 132.68568625792162 147.42675637409477 7.179817419570944 0 0 0
275 1 127.2085408009417 146.96855746140346 8.014442949148357 0 0 0
407 1 128.60583845258526 149.17502010978052 7.103626516063759 0 0 0
146 1 131.50318245243034 120.74927620547662 14.982059959527906 0 0 0
141 1 129.8235376847817 123.07582870809573 13.650834611110373 0 0 0
380 1 133.1197320682358 122.05733348582957 12.960523183051672 0 0 0
93 1 125.6357646677555 122.80738910911015 11.138902470560543 0 0 0
165 1 134.14122640453968 124.58495532371737 11.410291430153071 0 0 0
178 1 131.54239162469764 125.0787887718658 12.719335843680009 0 0 0
116 1 127.39844387023061 124.49022103824912 12.720071011262752 0 0 0
271 1 132.22198637614792 130.04150401625503 9.963228549419169 0 0 0
50 1 130.48932112956703 126.45452624131762 10.474521765413042 0 0 0
144 1 134.01795993308042 149.1883714508356 3.1646301011971283 0 0 1
7 1 122.33467819606967 131.32451021787676 12.360481791916648 0 0 1
189 1 126.9516296385153 128.5338162101708 11.696878891074805 0 0 0
128 1 129.58296689109102 128.96297069237346 11.356289826363039 0 0 0
70 1 134.52055681527403 125.3090546983105 6.065262491977598 0 0 0
77 1 122.34090610628853 134.2242799914089 12.693663066518448 0 0 0
98 1 121.54754491940167 137.33255439431986 16.196542297900052 0 0 0
292 1 126.43706823931073 132.8791284376862 12.821951440468085 0 0 0
102 1 128.94448170459486 133.02686363364208 11.519136306541478 0 0 0
251 1 131.16762788553947 133.49281401147582 13.266723897906802 0 0 0
509 1 122.77047342064418 137.29339525305792 12.637967676254723 0 0 1
227 1 125.60419954494202 137.33517261738083 12.898949530152574 0 0 0
49 1 125.76509532651711 137.32796288215127 10.05143277816566 0 0 0
25 1 127.89242310918799 135.33886450658562 10.346726589186234 0 0 0
334 1 132.89007775151364 131.26707496398356 3.111049219691956 0 0 1
96 1 132.84549185098282 136.33691752256368 10.532456097238091 0 0 1
54 1 122.4006903669154 139.65754792971504 14.191803883335334 0 0 0
432 1 124.50773750102348 140.47783040308903 10.225859783861685 0 0 -1
57 1 124.14908981566741 141.68350652519544 12.55078165647861 0 0 0
6 1 130.74248995712534 139.0905220883912 11.137040577000967 0 0 -1
104 1 134.38547760767844 140.83395206772008 9.722157329211413 0 0 0
440 1 134.6228202864498 123.41246585615443 0.3456515502742544 0 0 0
176 1 123.18730265519538 144.57503666872807 12.531353266789289 0 0 0
69 1 128.595965586926 140.30262921319186 13.095405358604165 0 0 0
95 1 131.61420882955431 141.44262821213744 10.0498077693101 0 0 1
351 1 125.41176991876641 146.26063510633514 12.839838085852676 0 0 0
134 1 127.0132816176819 144.45072886806102 13.899227358098289 0 0 0
512 1 129.4270156956807 146.1399219960669 10.571513095234138 0 0 -1
136 1 126.9219473377603 146.6062158738706 10.723015397634864 0 0 0
42 1 130.78545038182102 148.22811629437058 9.095556275176525 0 0 -1
447 1 131.64831193788302 144.08250875344498 11.249132547683809 0 0 0
185 1 132.54769886193583 149.7117245269375 10.892032405178258 0 0 0
243 1 132.02884210385847 149.46330402630076 13.462379571998834 0 0 1
468 1 134.38736037051302 118.61737738280375 18.92801977743851 0 0 -1
61 1 129.90098410455394 123.48817214968547 16.781212491914236 0 0 0
401 1 132.58557938493465 120.5313956255489 17.954032674553186 0 0 -1
62 1 126.27664282356004 126.91702258933933 14.014835676770407 0 0 0
501 1 127.3342785992549 124.62878339658826 16.19532456178838 0 0 0
218 1 123.88039272876782 127.60144397034053 15.422033855048431 0 0 0
309 1 126.73255514750107 130.486324962532 17.22326445560054 0 0 0
11 1 127.96762317666679 128.58219055762862 15.302195561741721 0 0 -1
252 1 131.65488509083133 126.79260696754109 14.884826441060806 0 0 0
473 1 134.4379357674101 145.42705022905412 10.034539714981076 0 0 0
138 1 122.02861729235576 132.005387187315 15.395564606912144 0 0 1
229 1 125.09145063433009 130.41444352440044 12.708365604929261 0 0 0
374 1 124.43747110075083 130.46825070846575 15.549162835076794 0 0 0
202 1 130.32640584294973 129.2196250986588 14.050806205492373 0 0 -1
97 1 131.71923488316656 131.6218595634133 15.100838259318934 0 0 -1
17 1 122.44970519593917 134.68541920452435 15.743532113446243 0 0 0
71 1 125.120575865545 135.78041375642715 15.392934845060628 0 0 0
129 1 128.02712320075148 133.04841777966843 17.583645356602084 0 0 0
465 1 127.42362324534538 134.26362003394783 15.008518063074098 0 0 -1
471 1 132.43854385587693 136.11380724695957 13.62273762503467 0 0 0
282 1 131.94160298066876 136.72213776872164 16.70903787537226 0 0 -1
158 1 125.88883689471533 138.118546718202 16.764148652689975 0 0 0
461 1 125.8585110478639 139.83634114114236 14.208224810819594 0 0 1
89 1 128.55184771330477 137.07384728601494 12.300395691126875 0 0 0
305 1 129.37865923475573 136.26856067251282 14.639853683451756 0 0 0
510 1 133.0221305371592 139.0547882339568 13.228331447385253 0 0 -1
322 1 133.88450586106248 138.8543155818167 16.600609282573913 0 0 0
151 1 123.79469318783433 140.87527663634413 16.7717723824631 0 0 -1
171 1 126.59857862122496 141.499213303988 16.98130316233079 0 0 -1
370 1 129.00076782249317 140.55709656554814 15.871116974012994 0 0 0
118 1 133.58361378941092 141.36643606277582 14.895629973525981 0 0 -1
79 1 122.08489689353138 142.99964009932208 14.838173616752783 0 0 0
131 1 126.81735071130998 142.33499885525032 11.849261319955241 0 0 -1
143 1 126.3582245386939 144.09720164481823 16.466994799691406 0 0 0
433 1 129.74058285359456 143.31407112135227 13.085041680992337 0 0 0
161 1 133.3950032438769 143.90083987297442 13.483836458991394 0 0 0
290 1 126.37299590138366 147.5599969274834 15.284395122394084 0 0 0
518 1 129.6341806081436 149.1256877777506 14.398536968396042 0 0 1
101 1 129.02803622901826 146.48444639562777 13.48929885843434 0 0 0
258 1 130.07418090778117 121.42590651523975 18.919876478249602 0 0 -1
375 1 132.9284612220902 132.125273282572 11.456545274724132 0 0 0
320 1 130.01062403440864 124.74352452109666 19.687852727901042 0 0 -1
13 1 133.44302955981507 123.17400896523698 17.435200841330595 0 0 -1
381 1 134.63431355183573 128.85115952692666 11.377762788069123 0 0 0
219 1 127.40451363493423 123.89256980369383 0.6262017688563104 0 0 0
64 1 126.02099877592343 125.5692629018364 18.611980803842023 0 0 -1
148 1 131.93824959454935 125.86984613396848 17.429077980160383 0 0 0
155 1 123.89360014407478 127.5044396733984 18.18952584995634 0 0 0
121 1 121.75902774869708 128.93665875627224 19.754911762166312 0 0 0
190 1 125.70880693681366 129.22214281297204 19.478542108253173 0 0 -1
88 1 127.67997360211841 127.54904448144033 19.392712721538153 0 0 0
184 1 128.9486186735112 126.74082176540027 17.25242994513038 0 0 -1
208 1 124.8719819291412 146.17587772736894 0.5384001594908923 0 0 0
103 1 121.71718187360587 131.59243114050616 18.230400576760562 0 0 0
20 1 123.11077994803 133.94818616832865 18.696755282546352 0 0 -1
177 1 130.6672300993827 132.49304724939344 17.676155477278318 0 0 0
328 1 132.71611975530888 127.89337678963187 19.28888504181121 0 0 -1
390 1 125.37767009333695 135.94890120173812 19.340587389828112 0 0 0
183 1 121.80287084939 136.7382112115598 19.025393881375827 0 0 0
345 1 128.2964181582382 134.99157395841198 19.676915651616923 0 0 0
107 1 129.58506534959713 135.16671155701087 3.2061242062737314 0 0 1
452 1 130.25451473598014 137.55283823626922 18.967138206675486 0 0 0
203 1 125.53494028564978 139.07166756950014 19.302321258557477 0 0 -1
68 1 122.96719226134235 139.46839593168977 18.984677067529923 0 0 0
51 1 128.77998085047085 138.0562773519194 16.63722589327647 0 0 -1
32 1 121.79793766556276 143.31727379689673 0.3784521334867357 0 0 0
156 1 127.52672290968049 141.00119988112394 19.46656709912722 0 0 0
498 1 129.95794436621776 140.01463021228946 0.4348515132475299 0 0 1
28 1 132.70488676673364 141.23755870581255 1.0846083286706385 0 0 1
55 1 123.32008602608433 143.7877412166403 17.174113315647496 0 0 0
149 1 124.74766283360381 146.3806210333588 17.424569028270444 0 0 0
495 1 128.25618498946028 144.80551159515164 18.55582717340692 0 0 1
105 1 131.04470393735198 142.29052525825054 15.236110675543442 0 0 0
115 1 130.78401456293744 144.42605812254445 17.54574520428364 0 0 0
241 1 131.3946003738333 145.71364297331544 14.773226510459251 0 0 -1
47 1 133.38637701378767 121.19041794381748 10.196559558839876 0 0 0
63 1 134.44581603584535 145.373437279285 0.3241264268234758 0 0 1
429 1 134.39291675290792 131.37442181679117 0.37158795886981977 0 0 1
211 1 134.89682394697564 142.1688241082154 2.668947765623858 0 0 0
389 1 134.89213891624854 132.03335265208042 15.170795267945058 0 0 -1
324 1 134.94505423598693 150.2037398397552 15.367906825293081 0 0 -1
239 1 134.94110330361306 132.85919605439224 7.380667359402225 0 0 0
253 1 136.95949687169136 121.34556270914435 5.768681995837688 0 0 0
53 1 136.46674942251113 143.5836328425896 1.0347151574203464 0 0 0
87 1 139.26490211874363 122.63442029123962 4.221012914649364 0 0 0
80 1 141.48837788982758 120.75431325136809 3.7476488975914135 0 0 0
293 1 136.35748562882029 124.39446558482842 3.4339398534982872 0 0 0
74 1 138.676818910732 123.50766753425614 1.5956017565311693 0 0 -1
76 1 143.81552121810623 121.6567742751196 4.940692976221223 0 0 0
439 1 144.32284354424024 124.11811190150244 3.725083430866841 0 0 0
179 1 141.7321456184204 126.89232714195782 2.3957610384143897 0 0 1
335 1 139.15635279891524 126.3344611512668 1.832967482128296 0 0 1
446 1 141.67500918399045 129.54886089548802 2.682308234955276 0 0 1
318 1 143.68496253780893 124.05595832392638 0.9358188636312464 0 0 1
470 1 135.0266975891791 136.01029855782426 7.908754883214461 0 0 0
506 1 136.74132328010134 130.25109414538403 1.1086210804487848 0 0 0
289 1 139.67874572073003 131.32576691804263 4.040261827114922 0 0 1
332 1 147.06761136724043 131.16000826881796 2.3077394225436234 0 0 1
287 1 147.39648292858195 127.2417067991184 3.874714983397841 0 0 1
249 1 138.0303383662759 134.06982404349284 18.495099372623855 0 0 0
411 1 142.39256251539553 133.1351264946536 0.7000987841899636 0 0 0
317 1 145.25603274193014 133.06297121887064 0.755289109212509 0 0 0
302 1 147.9783317307884 128.66387546380668 1.495289391828672 0 0 1
514 1 149.53705275950097 134.8995700241507 3.689367523882515 0 0 0
369 1 135.4451691356399 147.19475481855687 8.014040587330403 0 0 1
286 1 140.76548952711644 135.5032300335842 19.676756583590464 0 0 -1
257 1 145.29252626370456 135.42576585982934 2.7844621599481916 0 0 0
496 1 147.8041028754009 136.66042029034244 2.2256979651103497 0 0 0
73 1 141.2538872251613 137.67187443625357 2.0465722849299754 0 0 0
261 1 143.95469393934027 138.94996767255657 0.8670763971357871 0 0 0
327 1 141.81330355657448 140.65141626553446 2.0423561089460596 0 0 1
445 1 145.21494818001017 137.73635730707002 18.442927976103093 0 0 -1
428 1 147.6472293141104 139.26827485964813 18.105420332333036 0 0 -1
517 1 149.15520847267905 138.9081604928384 1.0691794740728136 0 0 1
406 1 138.2699794882659 137.67794288802548 3.0054954880451734 0 0 -1
419 1 136.94760013518047 129.99208634060187 9.605731985538718 0 0 0
267 1 137.1754154069421 141.57426821888745 18.725875064148152 0 0 0
308 1 139.76129997245283 140.18343593043727 3.848954885008533 0 0 0
277 1 136.18033569179983 134.54088103136473 15.980486618588369 0 0 0
427 1 141.5324630619921 143.44523936982446 1.624150233923178 0 0 0
283 1 142.14970336007622 142.895974278931 18.565997245889317 0 0 0
339 1 146.76046626777884 143.68054634327333 0.39471427012932014 0 0 0
288 1 137.63952967037915 149.92266811886182 19.704419794835747 0 0 0
36 1 137.0826625248212 146.958816518746 0.6462620916172512 0 0 0
56 1 140.31832023038203 148.5964901267261 19.662712687434855 0 0 0
416 1 144.90915470475227 145.81658511571067 0.34326716194979096 0 0 0
41 1 135.5304578722674 149.27678892454503 18.157925654519143 0 0 -1
123 1 140.93987747658514 123.78862359178623 5.948653550288418 0 0 -1
352 1 144.22144960440414 122.75290984769505 7.443071320385808 0 0 0
10 1 137.8831974962689 126.40561802711652 4.4344100293199835 0 0 1
255 1 142.53014952690168 125.69296717535393 4.777986313645582 0 0 0
376 1 141.50347492563253 122.02562306153817 8.587199951736956 0 0 0
405 1 146.39884870691913 122.78763365727312 9.807684063578819 0 0 1
422 1 147.0846405441187 124.35202666891647 4.246143784258447 0 0 1
9 1 136.68748280244776 128.68473143769168 5.38885340299714 0 0 1
377 1 143.97449942603606 127.48289257820221 6.1831253704403455 0 0 -1
408 1 145.95676978705998 129.24762209990917 5.2300417994757575 0 0 0
479 1 147.12494251539871 124.36764400176331 7.149233893427503 0 0 0
301 1 148.0501653647559 127.06404718548654 7.575712112183834 0 0 1
159 1 138.34668595659767 129.76792406089035 7.501510965829324 0 0 0
387 1 142.40912794749798 129.97747051879236 5.869329290786782 0 0 0
298 1 144.38756588317372 130.370808522329 3.405365096672513 0 0 0
420 1 143.9942390615177 129.25994017001653 8.967635683257406 0 0 0
462 1 146.83086184513706 129.8032437141031 7.957126574013833 0 0 0
38 1 149.66123004342393 127.6298352858908 5.303065367165801 0 0 1
437 1 136.99719765381388 130.8693633907659 3.8575985053990425 0 0 1
100 1 135.1792373144096 128.67376045610322 17.937948619900652 0 0 0
323 1 138.78310101044005 134.84571608336256 1.9586104432185023 0 0 0
349 1 140.51382824195773 134.26213519424925 3.732615204423106 0 0 1
315 1 144.24719242411777 133.70749798540268 7.364455685711641 0 0 0
404 1 142.97137447186014 132.75675818025758 3.4953154376515894 0 0 0
417 1 148.73284276976955 132.2898127166088 4.213167281861272 0 0 0
513 1 142.92605566698515 136.052436956638 3.7156270103765308 0 0 0
341 1 145.60528423812053 133.20168801745456 4.746397636484355 0 0 0
210 1 136.01302765403992 134.57889553901126 2.8622756344388143 0 0 0
254 1 136.40899529037094 136.30630640127532 5.255403095930509 0 0 1
201 1 136.96354129749983 139.0654907292995 5.818332699094956 0 0 0
464 1 143.09787375423792 137.46239115112417 6.027401122354114 0 0 0
12 1 141.31650917714794 139.76287279534554 6.016306961635473 0 0 0
342 1 146.0305283873973 139.0145659342015 3.2204640350046376 0 0 0
246 1 149.23385905469559 135.01267485018914 6.469937999899568 0 0 0
108 1 148.49013374478264 140.71134847056763 3.2576056911529965 0 0 1
331 1 137.26535929462744 141.7025457329008 4.006546487586659 0 0 0
235 1 144.0930101505871 141.32128601096883 3.755428896463631 0 0 1
316 1 146.39084197317237 142.7813273584284 3.2544193197475337 0 0 0
402 1 138.96160970893501 144.11461319203278 4.448061735713567 0 0 0
343 1 143.81098908114808 145.01371321024257 15.013414596735183 0 0 -1
458 1 139.1092769285877 144.489392739548 1.8263906695918186 0 0 0
139 1 143.87625956012792 144.4829819495749 2.715520934484932 0 0 0
265 1 139.66020045723388 147.00987388617966 2.4722834465568906 0 0 1
466 1 138.14417279990585 148.08755404049901 4.721328259902309 0 0 0
306 1 142.5443463858805 147.18751201844788 3.227733981921976 0 0 0
232 1 136.6497212454968 149.81714793082597 2.7795586776652614 0 0 0
207 1 137.13525632515052 120.58705647183882 8.448337484977996 0 0 -1
221 1 135.54349626890593 119.10324674475098 10.314530122931089 0 0 0
307 1 139.77969883382784 120.02038385416907 9.29004125858933 0 0 0
248 1 135.7295897541033 122.91817934124957 9.517745553327297 0 0 0
168 1 135.38385757586306 146.57450950499444 3.456201122599524 0 0 0
353 1 139.95876002291496 124.21004427426793 9.379518718907004 0 0 0
284 1 145.74738507713687 124.38611062010898 11.900149788377343 0 0 0
200 1 135.30502038708966 125.93531578770964 1.4705962942681599 0 0 1
157 1 137.02391113863547 127.1299265265035 9.996101462449792 0 0 -1
29 1 139.26890668279324 125.79619621696865 6.871259762742357 0 0 -1
477 1 142.43615344526665 125.2534363666093 10.013604710956237 0 0 1
274 1 144.72768497421666 125.46795985329162 8.036748743558778 0 0 0
154 1 145.68339298085604 126.9040054995783 10.57145784796015 0 0 0
354 1 150.32355272856321 127.90496690101845 9.228195406265824 0 0 0
415 1 135.95529925747286 124.00014018666192 16.313904899631652 0 0 0
5 1 140.57250798445608 128.3174435416546 7.067136432189791 0 0 1
311 1 141.53874271590047 127.88238036231519 9.511516316595799 0 0 -1
383 1 148.50466071038187 130.93727621294033 10.475792679206672 0 0 0
197 1 137.43924594540937 133.26215743336485 8.326415502038193 0 0 0
204 1 139.71451592519594 132.1885418114313 6.787437327363382 0 0 0
242 1 142.45784061851967 131.6897968741004 8.283884533007358 0 0 0
312 1 146.25829859725513 133.8573994288041 9.661258164596513 0 0 0
492 1 150.70558554346445 130.60537084821993 4.880515943184366 0 0 0
280 1 149.80069861366317 130.10485864753645 7.411999235227652 0 0 0
193 1 138.76732870572425 135.11018329414074 6.071325151418366 0 0 0
199 1 137.88263292643367 135.51203750918458 10.037948917236085 0 0 0
481 1 144.1104157041151 136.37349924313622 8.339358196380134 0 0 0
391 1 147.45224177891555 132.6543473863471 6.9590931508072655 0 0 0
511 1 149.2653484511137 134.35489000217058 9.01454625363439 0 0 0
14 1 139.06091795818259 139.0860637096283 7.387470598388344 0 0 0
409 1 142.97278713988553 141.91911863375273 7.159194084070761 0 0 -1
166 1 145.6274582155258 138.3924438488658 6.0668479781637545 0 0 -1
505 1 148.21610150775905 137.73746750456885 7.148656980754774 0 0 1
480 1 149.1814402868416 140.09389686339972 5.978528879364293 0 0 0
359 1 145.34804019386704 140.7003248888075 7.645694882344241 0 0 0
371 1 147.69304349243765 142.0656600053852 7.367650054033156 0 0 0
18 1 138.1697083676969 143.04724969148782 8.658282479726822 0 0 1
130 1 136.67646111285143 145.8919695865599 5.845843747391217 0 0 0
319 1 140.79944646220343 145.27351233105628 6.072549408096448 0 0 0
245 1 143.5521093210075 144.18734389814352 5.553385952517899 0 0 1
59 1 145.28916287404178 146.20483440664106 6.797368565956772 0 0 0
196 1 146.83287224085836 143.89816713493673 5.63256875814203 0 0 1
314 1 136.12762906644775 142.96497151590316 10.35030641268196 0 0 0
450 1 140.78113606387737 148.0115857387863 6.1456946075931285 0 0 1
443 1 143.43439579090747 148.30043814940151 5.662723755788135 0 0 1
455 1 136.75667503524107 119.24362476791194 12.818015434665174 0 0 1
382 1 139.08825216857042 120.6418119410809 11.938078917141933 0 0 0
266 1 137.02557044056172 123.78941922264616 13.305218326480524 0 0 0
357 1 137.9937930393165 122.81888711597074 11.056363578528542 0 0 -1
233 1 143.0894794475774 124.27033323219422 12.477269038907059 0 0 0
358 1 147.36955828727264 124.28886692561726 14.162369815283236 0 0 -1
475 1 135.7652570176448 126.35134793049917 12.657777362282848 0 0 0
276 1 139.20151371835055 124.10288817771801 14.73634575304125 0 0 0
366 1 141.55033611048137 122.70748872977501 14.142103025817644 0 0 1
297 1 142.83376668266698 126.7651498369294 13.838944590697542 0 0 0
84 1 149.8532686908922 125.31115974297987 14.465743404668286 0 0 0
372 1 148.2512801739431 128.19090675548512 11.174327313572718 0 0 1
394 1 135.85163603773418 126.75689422174605 16.075092137081448 0 0 0
247 1 139.2173325966541 127.89917544060812 11.260029085216088 0 0 -1
474 1 143.83240068189207 130.68009083453126 12.696921027511035 0 0 0
360 1 144.9454100143662 128.33994259461167 13.136916789137572 0 0 0
228 1 151.09813611778904 131.78454058856926 9.353480363294018 0 0 0
296 1 149.0102792010642 127.9018106067109 13.792982568393597 0 0 1
195 1 139.46001756792504 130.78805433426302 12.084276067926764 0 0 0
119 1 141.83616003308137 131.38147266557027 10.938104839891944 0 0 1
418 1 145.81727507472266 132.38780192185922 12.082451633094493 0 0 0
472 1 147.26015875003893 131.86339874943204 14.51741891741001 0 0 1
152 1 149.34286849971238 132.08235938164782 12.90704833777014 0 0 0
348 1 137.32177372238084 132.4040818244481 11.165756054622454 0 0 0
256 1 141.8356843742613 134.2396378930429 11.353083473601412 0 0 1
379 1 142.07327332176516 136.48292568048646 10.081977075894313 0 0 -1
516 1 150.5716810914539 136.26463754164274 10.636611854680972 0 0 -1
325 1 149.64120443730232 135.0302254649251 12.968310241055777 0 0 1
209 1 137.58368552831172 138.0131121081625 13.611783013472394 0 0 0
403 1 139.70715305589968 136.36940253624059 8.479300669524614 0 0 0
454 1 146.17542690660144 136.59916611869843 10.627038200726266 0 0 0
487 1 141.81987959274153 138.57315803632355 11.983260084207421 0 0 -1
279 1 145.19878344242403 139.54676520451466 10.211476345018923 0 0 0
392 1 148.41430566717307 137.84515554325452 9.885791789893078 0 0 -1
508 1 137.66662545969476 140.61197641808047 12.170216600703702 0 0 0
94 1 139.04071405748076 140.75005892201332 9.729702315490535 0 0 1
476 1 141.09611095692188 141.08007966247703 11.364807157843163 0 0 1
236 1 142.51405862459296 143.31208396899044 9.539072529599146 0 0 0
438 1 147.76541258150792 140.18432742231968 11.044605629375328 0 0 0
396 1 148.26836185142912 142.63100847644688 10.053525227035571 0 0 0
364 1 140.008517048465 144.7673204174929 8.786369820460285 0 0 1
330 1 144.2821328267105 145.4720359818643 9.358720231037479 0 0 0
388 1 145.77033981797058 143.71561432245517 10.94548146823729 0 0 0
356 1 143.11941392647554 145.35242964616108 17.727306558615002 0 0 0
483 1 137.65679330318855 145.81687663155907 11.202989916988066 0 0 -1
269 1 140.7776508875538 148.58244748774337 8.682675338088773 0 0 -1
291 1 142.5171277390943 147.26207144720328 10.497495439503245 0 0 0
78 1 136.64570476722025 149.56528297797115 9.099106300031112 0 0 -1
489 1 138.97749536795286 148.6960123229896 10.953547824053041 0 0 0
385 1 137.82834606897896 117.55667226945384 14.9780876747752 0 0 0
469 1 140.6301731532063 117.96179356481476 14.907115076343429 0 0 1