LAMMPS data file via write_data, version 29 Oct 2020, timestep = 50546

670 atoms
1 atom types

2.9194517601254972 267.0805482398712 xlo xhi
2.9194517601254972 267.0805482398712 ylo yhi
0.3243835289028798 29.675616471097356 zlo zhi

Masses

1 18.015

Atoms # atomic

240 1 132.0911628685583 123.16606758193569 1.4926834026270253 0 0 0
213 1 127.66024253272074 124.28737279833024 1.6157355135142037 0 0 1
175 1 130.07879930899753 127.64442750825442 2.5982413886829936 0 0 0
30 1 129.27420143922967 127.21640057772629 29.173407041993542 0 0 0
593 1 132.56784720922366 127.28780214405681 4.945207855230565 0 0 0
418 1 133.75428382026365 125.12376147646803 0.4999580181198706 0 0 0
27 1 125.59657498153051 129.18441055236133 0.4855827273091222 0 0 0
180 1 129.93370448275064 130.58889380010913 29.44073993618013 0 0 -1
581 1 132.86686727552262 127.39960147069576 1.7229431892076155 0 0 0
292 1 121.1389519812672 131.85367891544723 0.7173072179730842 0 0 1
1 1 121.8497017121888 131.4514296141033 3.4165023916697157 0 0 0
12 1 123.08487479633509 135.535709580537 26.634664865700273 0 0 0
279 1 127.79346155750407 134.40765410221408 1.4071764070117636 0 0 0
183 1 124.63981152604663 134.0580750922853 1.1606048186146225 0 0 0
434 1 132.53587770109698 133.8998451775054 1.0756501982039608 0 0 0
420 1 132.444328601004 133.94433529843948 4.055395593677543 0 0 0
513 1 120.79928106007596 136.4786966767314 1.7780269207457915 0 0 0
65 1 119.3160458074185 135.4361763794647 3.88359857815804 0 0 0
84 1 124.28318971201564 136.31191008754476 28.899908275377932 0 0 0
105 1 131.14450951231046 137.47904982003945 2.0781021289259343 0 0 1
557 1 128.40140859832957 138.38090247685668 29.525731390341143 0 0 -1
265 1 133.02993936672627 136.94018296341855 24.1237927361079 0 0 0
533 1 122.75818717504626 138.36510931021343 2.7678650062435532 0 0 1
209 1 124.25576547749387 139.09874902048267 0.46041440174030573 0 0 1
499 1 125.74939979516466 140.94899189269807 2.036819618171756 0 0 1
117 1 131.7995884459068 140.04027471341794 3.0771732488736547 0 0 1
370 1 133.9476389572894 139.87158084394596 28.707564975996597 0 0 0
329 1 129.09321517818836 142.04243060284784 7.167672808389094 0 0 0
427 1 131.66517354734935 144.62537936194548 3.0376279999072517 0 0 1
595 1 133.1763929718651 147.71128346686282 24.851643956554256 0 0 0
263 1 133.62797536770603 143.40348604459783 1.064522605679775 0 0 1
62 1 133.6179629805076 146.67710747479634 2.7818059772012127 0 0 1
273 1 129.99047229338595 124.13985738164772 5.571133176587341 0 0 0
297 1 132.35111188092839 123.030655671058 4.291037636035007 0 0 0
500 1 133.2784709706713 121.28790199488226 6.082311500867728 0 0 0
74 1 128.6066812919487 125.68293890611136 3.809192472969715 0 0 0
68 1 126.88044206787072 127.13447324498013 4.944756918468823 0 0 0
137 1 130.68088669649018 126.51343612642023 6.7196923459285625 0 0 0
476 1 134.05279974639515 125.09981296074281 4.795335909689789 0 0 0
643 1 125.94042227910757 129.0716380853696 3.135290830531512 0 0 0
93 1 128.4737883435934 130.21213262709404 2.515340305172777 0 0 0
484 1 133.91719019158495 144.43215435801048 9.943399040366403 0 0 1
457 1 124.19817204618522 130.63102689685786 4.611512828420404 0 0 0
479 1 125.95903731647756 132.27713471721265 5.37539379860672 0 0 1
110 1 127.9142135061965 132.7436737798349 3.563526205827993 0 0 1
156 1 127.47870531325661 132.01485070713474 7.644139877745072 0 0 0
447 1 132.2162196448821 131.32054076885987 1.9955057169627128 0 0 0
66 1 121.49834032506729 133.9585727548257 4.833202472674267 0 0 0
162 1 124.90255217759041 134.65737825308457 6.068419067624737 0 0 1
215 1 128.57050466516736 136.83512354591798 2.6819798453389434 0 0 0
633 1 128.53280909898095 136.42852660151283 5.628481727519057 0 0 0
78 1 132.13806071436363 136.59791404571394 4.9697707787115855 0 0 0
39 1 123.27920653187746 135.37953588220734 3.4481700094682335 0 0 0
111 1 124.6300785518409 137.49897508992615 5.036128090595734 0 0 0
275 1 126.5637716301218 138.60381536034316 3.1566618309540737 0 0 0
158 1 126.9371508507061 140.17984247606762 5.46427665782152 0 0 1
333 1 134.03082804259535 138.19778772588063 4.039503480159922 0 0 0
225 1 122.6701060783381 140.2720945899614 4.757583304833087 0 0 0
107 1 123.19482264144968 138.98054651468334 7.103695293374006 0 0 1
171 1 129.96210357670307 140.41149838927623 5.364724486374335 0 0 0
584 1 130.54407383121014 138.15123378011077 6.552079661819868 0 0 1
149 1 125.28663798216401 143.32939464522656 8.217223917259666 0 0 1
126 1 124.38168190957073 142.20195874423763 4.047211655313042 0 0 0
253 1 126.3700893675567 142.98039044118642 5.83970677199526 0 0 1
54 1 132.83528465843443 142.33368934731482 8.795283040356955 0 0 0
374 1 132.83034983648156 141.8155216450279 5.2871708176429255 0 0 1
14 1 132.70581557391944 144.5333149545142 5.767145855356876 0 0 0
185 1 134.22057880536428 146.02112763865256 7.725941161907736 0 0 0
203 1 128.634175654813 123.12062629547721 7.837495757552997 0 0 0
381 1 133.60432968737092 122.34207488297545 8.651757476645905 0 0 0
251 1 125.6105952238245 126.35930534497541 7.343299862672173 0 0 0
139 1 126.32672623295959 124.28505369745317 8.907216269762321 0 0 0
210 1 128.20584975265683 126.53498355527704 10.575851904281839 0 0 0
70 1 130.63864723367942 125.6794334443262 9.323514313732668 0 0 0
23 1 134.94981491496335 128.4542376923369 20.89943366766974 0 0 0
325 1 134.46190804018565 129.92625318882864 2.785213314243703 0 0 0
113 1 123.42899315622456 128.04392082690254 8.395737091008435 0 0 0
9 1 131.82513414926214 128.17885192207865 10.096208143018407 0 0 0
258 1 128.82540221828594 128.46678802002896 6.581306899438004 0 0 0
75 1 121.49800284159004 132.1679502370073 8.948565394863055 0 0 0
161 1 123.5716107656749 130.53244811400418 7.363206853124655 0 0 0
191 1 125.60964978160965 130.37873384963885 9.159578981191215 0 0 0
284 1 130.7571767332068 132.821700599683 10.0562167367179 0 0 0
230 1 130.19552107760705 131.1429826888321 7.119119989638185 0 0 0
535 1 130.7032112886337 130.20409916760119 4.559739364060484 0 0 0
331 1 133.60689854284942 130.31153977640037 15.531422307210404 0 0 0
114 1 122.50551864600325 134.33845318798976 7.519683705674225 0 0 0
168 1 127.58060043318687 134.18271629137232 9.524025825643696 0 0 0
405 1 129.93207456873733 133.54802907725514 5.402907359463376 0 0 0
82 1 133.43138130488495 130.76157484460094 5.2158466824052505 0 0 0
76 1 122.11049736090878 137.10181488853894 8.51385528747031 0 0 0
341 1 126.58843031627084 136.0446031860523 7.707042202863726 0 0 0
599 1 130.4279819533707 135.14781149774217 8.057271702975388 0 0 0
138 1 133.40113477432433 135.03750609625564 7.212291989486426 0 0 0
451 1 124.33936760194143 140.8872049492992 9.118692723540487 0 0 1
159 1 126.26341425823303 138.98815443785327 7.879460034782236 0 0 0
638 1 133.78126475813366 137.94135342281885 9.604679781326881 0 0 0
665 1 133.42955695488678 126.00994476653544 17.896039107605972 0 0 0
92 1 126.66759370805845 145.21556427943094 9.819277251515 0 0 0
588 1 128.79477457400537 140.0328394093036 9.106765062461244 0 0 1
660 1 131.31448402288132 142.07405801891 11.376082616170894 0 0 0
142 1 134.7498375582894 140.4249278958661 8.671263009208625 0 0 0
428 1 129.57241744641254 146.09400102909464 9.092293692997202 0 0 1
395 1 130.94815828258172 143.90829490171436 7.850986698768292 0 0 0
597 1 134.0267178542234 148.61309077472507 8.710243692868827 0 0 1
287 1 130.8621561768324 122.7895416245081 9.737461570206193 0 0 0
425 1 131.06966829863134 123.61666069402254 12.791444939375666 0 0 -1
320 1 132.84269407679798 121.56801521550673 13.203263784264575 0 0 -1
176 1 134.95943182338027 145.02126180278154 13.973945448030792 0 0 0
549 1 126.15630646756256 124.89840410013095 11.946694604772041 0 0 -1
179 1 129.17829415351054 126.46228148839802 13.903313285375441 0 0 0
455 1 134.18167508254535 130.17154747375895 10.339680215550358 0 0 0
100 1 132.10993922429995 126.25077988452395 12.399921791343056 0 0 0
53 1 122.61387928062047 128.02904350433104 10.980991149527275 0 0 0
303 1 127.24261299158789 128.1781806679225 8.713236594253729 0 0 0
241 1 129.73239516019282 130.15196797910363 10.09056337851972 0 0 -1
248 1 132.55950354417763 131.42036584702612 12.114052979741965 0 0 0
72 1 122.02977240822133 130.62934076143847 11.039708756059897 0 0 0
226 1 124.65940396021104 133.65575361207385 9.545336399272703 0 0 1
24 1 124.69326369765105 131.11112694043206 11.77440015321691 0 0 0
132 1 132.83853660994262 132.09667512466774 7.974433048349936 0 0 0
359 1 134.09252168643235 133.63962454650903 12.94773060324352 0 0 0
21 1 123.86567395305268 135.0884854895065 11.71716529988293 0 0 0
199 1 129.07446943451055 135.83566573382006 12.922293754582107 0 0 0
375 1 128.38570379582148 137.20746416431328 15.580406787187169 0 0 0
288 1 131.8829704128974 135.54258816629175 13.39269399205048 0 0 1
563 1 132.0902272840449 135.4068355318778 10.457004967835724 0 0 0
646 1 134.51148945939352 144.4237264414292 24.137081912223273 0 0 0
15 1 133.5592112633439 136.75393073954768 21.225634439519794 0 0 0
131 1 123.83903368847409 137.8568876051053 10.70993663220387 0 0 0
266 1 126.38915420877314 138.4514983704014 11.774205360959428 0 0 0
59 1 128.33449684221875 136.89797737664696 10.427873270096281 0 0 0
187 1 131.53884078814716 140.60091311119947 13.913035569958481 0 0 1
147 1 130.8785529383145 138.09200489278322 9.147559019203177 0 0 1
271 1 132.65188369541778 137.99683005627455 13.99163373632002 0 0 0
389 1 125.24820225683536 141.49140974325798 11.651157918863117 0 0 0
127 1 123.42648786951294 141.86428279321768 13.625163946099951 0 0 0
211 1 128.48016554858106 141.13042222638347 11.768432646387897 0 0 0
57 1 129.8114346370005 144.8034769575887 11.680032221752604 0 0 0
63 1 133.8281153587996 142.15777327852294 13.514513845252077 0 0 0
50 1 132.12035519113076 135.72761762376928 26.44452698246986 0 0 0
47 1 127.4145108446122 143.7211739432736 12.024220158145788 0 0 1
380 1 133.73158934093334 133.24674315074066 18.805038513394777 0 0 0
298 1 124.86294630788963 143.5136711439045 26.149093496494658 0 0 0
355 1 133.38098118661992 149.60237388631649 13.476565152406444 0 0 0
404 1 132.53501208620418 145.42903288787545 12.253465741067807 0 0 0
569 1 133.64226785868112 147.82749851985682 11.418882897399795 0 0 0
10 1 134.7318180547048 132.8170737237692 29.329759684684497 0 0 0
283 1 129.31517453303485 122.95964584499167 14.61920888397541 0 0 0
572 1 131.61570013600138 145.10259377745575 28.04641707869643 0 0 0
398 1 123.42267687945345 126.13633251544579 14.263988860969175 0 0 0
45 1 120.93294576273232 127.10661953804755 13.427834453750387 0 0 0
46 1 123.80813927160345 123.65549262507591 13.003771094889473 0 0 0
416 1 127.15790936827122 124.48450274060937 14.48860614995922 0 0 0
134 1 120.12738820038834 129.50634640935704 14.655869271468331 0 0 0
96 1 124.9518203915915 127.48683710965038 12.304495005479795 0 0 0
181 1 126.17973160548829 129.4787858421318 13.783474347267045 0 0 0
249 1 127.51194720802931 126.68488720097774 16.52910524900797 0 0 0
85 1 128.85381663200025 128.84491318925228 12.705416356165427 0 0 0
163 1 134.7382493833703 142.55010175335283 27.899910463496617 0 0 0
508 1 132.38485407039954 127.659594383639 14.887680060473965 0 0 0
630 1 120.9771051534357 131.69900450410498 13.31111817723295 0 0 0
306 1 123.85562956339282 131.14575123213945 14.838729317029957 0 0 0
650 1 125.96695295662349 133.37288622135384 12.924411392882464 0 0 0
305 1 128.90355415671021 133.2371262166844 12.315111369594495 0 0 0
193 1 130.86880220574045 130.17714606256985 14.373633828972835 0 0 0
334 1 129.69091775657193 132.86814140288047 15.079120658231716 0 0 -1
270 1 121.12858697180775 134.4134866380087 12.949020456990072 0 0 1
89 1 125.85734928244158 136.48926861216546 13.941154219817207 0 0 0
648 1 131.5000986457329 134.82419887021558 16.409593614454636 0 0 0
81 1 134.41659835961636 134.19377866561132 15.950453351184857 0 0 0
51 1 122.48243197786887 139.1460629480897 12.892989241940095 0 0 0
177 1 123.63293447175195 137.35476616146119 14.897440097081903 0 0 0
531 1 127.71154170688213 140.86962954569464 18.448084781163217 0 0 0
196 1 129.42646063412246 140.53482846482666 16.09345405804791 0 0 0
544 1 133.69716982881116 138.91197899779004 17.474083204474525 0 0 0
25 1 134.15064512787987 150.53434342438584 17.6910808409759 0 0 0
307 1 127.314983903547 139.8777997079562 14.273326793756159 0 0 1
129 1 133.61883216497083 141.6276315279082 16.539626841017302 0 0 0
182 1 126.02530478133579 144.43475378343706 14.56362112499951 0 0 0
245 1 130.2676415984909 145.76011437619954 14.630788428958432 0 0 0
524 1 125.45287541635315 141.64367830129362 15.638445849487347 0 0 0
445 1 134.5959396516204 122.3760972616187 15.647034000222936 0 0 0
250 1 132.30046451096607 147.7472231635704 15.005307911354068 0 0 0
554 1 134.14537101225037 133.43767342822755 26.643625586069305 0 0 0
256 1 131.6097314471612 140.95743530641462 0.5134500559909179 0 0 1
121 1 127.8489640622385 124.51010134879698 18.66188874556542 0 0 0
299 1 130.16665378197462 123.51964245037682 17.14460883456725 0 0 0
206 1 132.93923206810734 123.19902378991257 17.734760270968444 0 0 0
184 1 125.11032973273471 122.73683586579297 15.596384323065713 0 0 0
491 1 130.71998148517426 126.45431363754132 16.92766938213815 0 0 0
493 1 133.94476683844908 124.85245409729708 26.880228054714344 0 0 0
384 1 121.78007976498799 129.8932522397629 16.6342263365174 0 0 -1
178 1 124.60010500697355 126.29094124159614 16.67451426230813 0 0 0
3 1 125.05764784945687 124.02488161807084 18.318762991686356 0 0 -1
313 1 128.31179060017212 128.8512473292751 18.321226428799577 0 0 -1
133 1 124.67803932183652 133.77759211272627 15.431253940945995 0 0 0
120 1 120.79989648744599 132.08008980928557 18.294702434498532 0 0 -1
97 1 125.68181793302091 132.8166420767695 18.071251297273584 0 0 -1
383 1 130.14013465314943 130.735249587797 17.29234496222928 0 0 0
146 1 132.918078494536 130.72079334567462 18.210697204024925 0 0 0
188 1 122.32195801864489 134.9758451926915 15.299089457019287 0 0 0
407 1 128.00233392348338 134.53637085515476 16.487034373472106 0 0 0
220 1 127.50159353613161 140.81419127176707 28.495595090321274 0 0 0
553 1 124.93766863972984 140.9195560685752 27.481013740341375 0 0 0
58 1 124.52478721838996 138.78767023224776 17.00607883650909 0 0 0
285 1 127.41397371714295 138.035523729415 18.22890886884108 0 0 0
573 1 130.08899641456674 137.7146629230721 19.123410948851266 0 0 0
160 1 130.98700183321296 137.67966578735206 16.293894430066167 0 0 0
658 1 132.5864328124062 138.8446224447021 20.03959251131196 0 0 0
8 1 122.9353082112319 140.36353899627375 18.672834025568484 0 0 0
318 1 125.0648380266412 141.9703221505429 18.43869913210635 0 0 0
145 1 129.77560226998338 142.73644030878307 18.445813308148765 0 0 0
632 1 131.363068443544 143.22235450084963 16.0348256003631 0 0 0
360 1 132.93646121531452 140.95606086607148 21.635564553776312 0 0 0
361 1 128.0868711026898 145.0469224586381 18.51297731373036 0 0 -1
229 1 127.62573116689084 145.941601440646 15.918231473772442 0 0 0
352 1 134.05135980466193 146.01147609770996 16.37161089599848 0 0 0
607 1 132.6319859502848 144.62572430854993 18.19187137711024 0 0 0
35 1 131.73255141032402 149.16603082752724 17.50032296396401 0 0 0
408 1 132.1934725515028 147.0230028375936 19.43801897644223 0 0 0
530 1 133.4729777513039 147.2490788555787 22.129694340660613 0 0 0
123 1 133.80804070865352 122.55880044371384 20.597113355250343 0 0 0
410 1 123.11156741971853 125.45653873198135 20.022594216878538 0 0 0
337 1 125.0993377211948 125.59605334562754 22.221407564436774 0 0 -1
88 1 127.68156354950371 125.27213804745824 21.368110056324397 0 0 0
609 1 129.94243027181494 124.26291060168036 22.600270987475568 0 0 -1
498 1 132.46607492535662 124.69706070813939 21.918109084686463 0 0 0
173 1 132.56307586485602 126.87564031852247 20.385977464964192 0 0 0
309 1 122.84209670074212 128.05702788478862 18.578581647387004 0 0 -1
295 1 123.32274116460471 132.4761412739574 19.75061827454806 0 0 0
190 1 123.45979567196014 129.77828840680127 20.70846945815046 0 0 0
218 1 129.48560755979793 126.99942003900452 20.131704112871425 0 0 0
461 1 130.1840304045965 129.10123098563162 21.860153047738578 0 0 -1
444 1 133.9155329930222 145.84808325913653 29.240964813871535 0 0 -1
22 1 126.17637488982135 130.20260101779127 19.63853454882276 0 0 -1
330 1 128.0430215137079 131.07777339818958 21.384174320288047 0 0 0
264 1 133.2527265076052 144.58069049324126 21.794219046339528 0 0 0
64 1 132.46559368629906 130.08176326940372 21.130381325892635 0 0 0
17 1 121.51657099595239 134.70763571684142 17.782959653190353 0 0 -1
551 1 123.89850845436024 136.4333419493837 18.60594219045238 0 0 0
267 1 126.4358812906136 135.37210480573233 19.120755295798467 0 0 0
532 1 128.59236130584733 132.8490255353718 18.803202621744873 0 0 0
167 1 129.26679389874846 135.2370441595597 20.408874342742564 0 0 -1
414 1 133.15668370057094 132.514955729899 22.49515337838846 0 0 0
247 1 123.90817857964798 139.62590950423 21.21564523336557 0 0 0
6 1 123.03591220084841 137.12078850889569 21.174371149977198 0 0 0
69 1 129.18539292598695 139.82673078228999 20.978873324848962 0 0 0
652 1 125.17584038011451 136.06633210013027 22.285299073101278 0 0 0
624 1 130.10064488278474 143.61535583638977 0.6606119661802503 0 0 1
327 1 126.53051207101984 140.76049016316324 21.433577267370424 0 0 -1
656 1 129.00278855190982 138.13454403759766 23.27608458644763 0 0 0
558 1 125.63308054474467 144.3728908842199 19.54545281024634 0 0 0
192 1 126.10330212599418 143.2364889126076 21.93530137146149 0 0 0
576 1 130.67565891890263 142.3890849302941 21.20867899903046 0 0 0
237 1 133.54773293010552 125.71043492718371 24.101961615391197 0 0 -1
235 1 129.60383890672807 146.57968806983794 20.387864792697023 0 0 0
304 1 130.25402118486105 144.70141568543332 22.37631974678323 0 0 -1
322 1 132.60744921304908 122.44633546267542 26.270591158932746 0 0 -1
538 1 130.0865279556548 122.56578939083172 24.91809018414137 0 0 -1
332 1 134.32886428698245 120.71811942846351 25.07000192765758 0 0 -1
222 1 131.92059210161284 134.48790562649845 20.900111362863342 0 0 0
13 1 124.57297425005277 126.71502290099224 24.713068273031688 0 0 -1
272 1 130.37805352695975 128.8419626109776 24.605628570526697 0 0 -1
219 1 130.64070615918763 126.20993720944853 24.61877032130608 0 0 -1
231 1 124.35618071862743 129.2797295576333 23.407156398247942 0 0 0
165 1 132.80477653981777 129.89510183149338 26.10001946533565 0 0 0
60 1 122.85257074367756 131.56153189085842 24.482443334976487 0 0 0
254 1 126.92394556463971 129.89794722351422 24.08829411327593 0 0 -1
233 1 132.23571510938405 129.22312062844645 29.06600285857057 0 0 0
261 1 123.99299881117918 133.33950273171754 22.359712622172374 0 0 0
371 1 126.78564594692446 132.99524977290426 23.218279966130062 0 0 -1
316 1 127.7536513280111 134.84140609440234 25.77439368315963 0 0 0
655 1 131.8700179321709 132.18549672913247 24.980291848844473 0 0 0
472 1 124.80585768982021 139.41396303416658 25.24112732052145 0 0 0
589 1 127.20649024553605 139.84650461468965 24.047996564518527 0 0 0
281 1 130.97727282828683 138.7525180032834 28.06814234994961 0 0 -1
582 1 127.71943924826934 135.5382796801528 22.880234925894015 0 0 0
125 1 124.00897603139143 143.08609192460636 23.621446944468893 0 0 0
276 1 122.71456253271539 140.55005016588416 23.60146465762685 0 0 0
522 1 128.65626503034866 141.29703021604584 25.83881243763517 0 0 0
336 1 132.1018296444094 139.83279641373068 23.961887881376505 0 0 -1
122 1 127.87285904990863 145.11375811875618 23.28883908293139 0 0 0
278 1 127.62669683794228 143.7194622581928 25.661773560420983 0 0 0
294 1 131.29789971381453 141.01963059103613 26.317866216142733 0 0 -1
514 1 131.52773531996968 145.53899583096822 24.70044739312447 0 0 0
391 1 129.94071127717666 146.75801348913438 26.797663163728934 0 0 0
200 1 132.800178697226 121.15582955517634 28.92848048021048 0 0 -1
268 1 130.0024823459041 124.27183181491662 29.28142545600619 0 0 0
5 1 129.2032743633686 124.46401418744361 26.690678165588935 0 0 -1
243 1 126.47208601905217 126.2614843637209 29.261582006559387 0 0 0
91 1 126.80919747173195 126.12988872221382 26.421512589076848 0 0 0
591 1 131.52832493098512 126.77459138957268 27.644428355126983 0 0 0
169 1 127.43743914736264 130.42560178406364 28.026074626269157 0 0 -1
436 1 127.9688376731858 128.57875854918143 26.227703106985977 0 0 -1
227 1 133.51343115257657 127.78866770307548 7.7228446755951055 0 0 0
71 1 123.80576557072196 131.57302350521223 29.485965495448852 0 0 -1
376 1 123.62220105211105 132.86233374554098 26.8779130971202 0 0 -1
223 1 126.54056128554112 132.1853265650322 26.22548583638948 0 0 -1
67 1 130.13815436965004 133.43282294089468 29.055123919131304 0 0 -1
31 1 127.44046252710477 145.7213825259055 27.849030534319688 0 0 0
301 1 130.13188644955346 133.78651332189568 26.32855660627881 0 0 0
18 1 121.50432183178042 134.47540728799808 29.337816155082173 0 0 -1
174 1 125.20042015934655 136.46872037450282 25.282390593758272 0 0 -1
302 1 126.99241552126416 136.54016647175789 28.373987808224157 0 0 -1
526 1 133.02680759410123 136.77150562269796 28.933848295339473 0 0 -1
537 1 129.7248662247938 137.37344844295552 26.03417806111333 0 0 0
653 1 127.18139300123745 143.24077996993125 0.5724892270631818 0 0 1
450 1 132.87059626280032 143.24204103443347 26.291045535986562 0 0 0
140 1 134.4663456823201 124.71629060783812 12.134729256301771 0 0 0
141 1 134.8675866817318 134.69645162024332 10.517657330518443 0 0 0
151 1 134.86738353760097 125.96159161665751 9.20564169959289 0 0 0
396 1 134.66939654471744 138.3665434680798 11.924018829934655 0 0 -1
377 1 134.6932469765085 122.24086896533564 11.312131423160482 0 0 0
421 1 135.5878823712566 132.2347261944593 24.308014935903493 0 0 -1
415 1 140.49662450980998 121.95291150358099 1.2635246295834248 0 0 1
339 1 137.54914862469477 121.70699951227525 0.9354102539308048 0 0 0
29 1 142.15533206472443 123.88781509169294 2.9532745249657277 0 0 0
452 1 144.18431063923825 124.19548516020055 4.978344157672665 0 0 0
492 1 137.38893108796805 129.21353213379206 3.357569980892512 0 0 0
41 1 145.01902406840446 141.67713190541843 27.808095184939283 0 0 0
411 1 140.1922986046724 129.86299859191365 1.9278598489791594 0 0 1
654 1 142.70383593520847 126.54230661799036 1.888867969819161 0 0 0
382 1 145.18385772007582 126.97758584258973 29.498107009310715 0 0 -1
592 1 147.7339672843818 126.66269042279747 28.23364391666204 0 0 -1
615 1 138.68043698687936 132.05469951947035 3.0876576946336898 0 0 1
505 1 142.52537380967772 131.02885196782913 0.8912495448110441 0 0 1
507 1 141.7531364790598 128.3916570431836 3.588682403845698 0 0 0
664 1 149.20346081438484 127.14949854354313 1.8233124027321739 0 0 0
373 1 136.24484321676266 148.9479275549336 18.629671552981883 0 0 0
562 1 139.31421081276224 134.47777275236092 1.8306485829761205 0 0 0
346 1 140.91461701327333 135.74288813878835 3.7296064561030167 0 0 0
596 1 143.45595532675074 135.22931825906713 2.1079084092812854 0 0 1
343 1 147.35701045151114 131.10607874003946 28.810684574594845 0 0 -1
103 1 135.67834136962063 135.9186668918638 3.3762245326987217 0 0 1
308 1 136.4147490568614 134.94766823794953 0.7087599800736789 0 0 1
224 1 142.52774513707064 138.00264050972277 3.4525012300567233 0 0 0
612 1 146.3833860263958 138.2250125162392 3.9834250987719715 0 0 0
625 1 143.1293345379587 139.23822025862796 1.079170736428934 0 0 0
353 1 145.2121663656721 140.399172420649 2.4413478503023 0 0 1
205 1 139.05156646024474 141.32000082175023 29.16140768647348 0 0 0
521 1 140.8816144882418 142.6450106592441 2.4853405860544564 0 0 0
481 1 141.70044921265506 141.48486882802 29.372189204498262 0 0 0
153 1 143.65958239322416 142.58575285823176 3.4226032848441394 0 0 1
228 1 138.1624026683705 146.0545019227581 2.3849563045985116 0 0 1
559 1 145.30659245394773 146.01293042412084 28.354785616845056 0 0 -1
634 1 140.59430508083278 145.38996841363652 3.3970335399337275 0 0 1
290 1 144.20925252295595 145.12530403287118 1.7878678843951874 0 0 0
26 1 135.94454732096978 145.93317127789064 4.021031839925933 0 0 1
112 1 142.10763114041745 146.85595052628636 1.8821471954105047 0 0 0
197 1 146.33100416783998 145.42195156337561 25.85964279073442 0 0 0
453 1 137.62104550719837 122.48702001895174 3.484224953151768 0 0 0
34 1 136.0166282529876 121.57954992016977 5.773982378081842 0 0 0
80 1 140.07517244778714 123.3464574095453 4.5985948958434655 0 0 0
259 1 136.52222254469308 124.95604149170231 3.354878532035604 0 0 0
464 1 142.03264990893595 125.15478916154166 6.591132829225642 0 0 0
515 1 140.54604005292842 126.5480321937805 5.0861357905188775 0 0 1
661 1 145.6835269954035 128.4171431852349 4.722911726807912 0 0 0
16 1 136.21801400650878 132.40803539815903 2.744531471475127 0 0 1
463 1 137.98443886393187 128.86497588468416 7.10825785419771 0 0 1
170 1 138.4104567776459 131.51906026080383 5.8360954468857305 0 0 1
406 1 143.61779472681454 130.25784568836968 4.622492841181229 0 0 1
43 1 148.1010946239245 128.9705477020421 3.7426419536898448 0 0 0
172 1 137.28286875800663 133.71602584194204 7.009104933854242 0 0 0
2 1 141.34872613066082 131.71550877051212 6.177989559649204 0 0 0
446 1 144.380186594988 132.17287906588206 2.8013656916444654 0 0 0
459 1 147.16053083814563 131.4481530723909 2.4881474231615743 0 0 1
490 1 148.65283994665324 133.28852182536139 4.084476288367006 0 0 0
348 1 149.82890073953843 133.4559081519536 7.129040302197714 0 0 0
502 1 135.6977360058949 142.32124116797672 2.1529647827849994 0 0 1
202 1 138.735970542718 138.3038724731424 5.926609004591634 0 0 0
619 1 141.14267369120293 134.65718030923682 6.206329271377067 0 0 0
443 1 145.17956822210652 133.99442033710426 4.8933643343500535 0 0 0
326 1 147.43000276927657 135.8208999515773 5.095209071894163 0 0 0
601 1 148.17837536417656 135.7019950480821 7.642834941094844 0 0 1
663 1 141.25363140495304 139.90682749164574 5.396041539121731 0 0 1
469 1 138.14998976424076 136.8666222011925 3.50374214309169 0 0 1
422 1 144.36990444259507 138.37082787114525 5.709284239515887 0 0 0
659 1 144.87393323255506 140.30944458743363 8.04226672884521 0 0 1
311 1 138.0912020861376 138.92876654110853 1.58248537094915 0 0 0
585 1 137.3463058507579 141.21729787011535 5.825257213078058 0 0 0
667 1 139.1322360242521 140.6946159056583 3.4628466729622893 0 0 1
400 1 143.19917494826183 142.0027910960393 6.343480296823831 0 0 0
435 1 135.5265591208048 142.95503720297228 4.8029297490844245 0 0 1
44 1 135.6765225203418 129.6947184577036 25.85195874504118 0 0 -1
42 1 136.92849320865173 146.99552890625083 6.166501642939467 0 0 1
647 1 139.5356503247049 147.06316091443418 5.500272182352621 0 0 0
598 1 137.90469688703953 121.49202871546791 7.794726726895659 0 0 0
86 1 137.9437978738312 125.2935143891139 7.231848333169817 0 0 0
475 1 139.98297214431895 123.343223495745 7.487830764141904 0 0 0
403 1 137.9155728405808 126.75578964661565 4.918345078549068 0 0 0
579 1 145.260455142603 126.18954551427936 3.3166473725912975 0 0 1
613 1 142.83237343384093 126.40184537600497 8.893416377264991 0 0 0
471 1 145.5505044514923 126.22580537617087 9.450605154260574 0 0 0
458 1 146.52765769460495 128.31732455096738 7.547606065506415 0 0 0
296 1 137.50576942095253 127.64835167282556 9.436374586901115 0 0 0
312 1 138.1444060475971 131.51744072514504 11.049369218621404 0 0 0
668 1 142.68248262931638 129.29522512805946 8.97322364351191 0 0 0
315 1 144.7939626276812 130.2968038750065 7.200440545044327 0 0 0
441 1 148.98630305717808 130.95605296508023 5.774790130295888 0 0 0
637 1 140.0330451861773 130.23052840667438 8.776890242403695 0 0 0
627 1 146.49564868422036 132.40841869900356 6.986816963107861 0 0 1
617 1 148.03418151031548 132.30047061857363 9.595101922869937 0 0 1
282 1 139.05926509417625 135.6589013708452 7.332964080429936 0 0 1
545 1 140.9500976631426 135.2479141796576 9.77351553323644 0 0 0
470 1 143.45475059440915 135.82239877095742 6.6027727615555065 0 0 0
631 1 143.1854271186998 136.53141939079563 9.357183776444622 0 0 0
20 1 135.73417016673972 136.43552120624523 7.941933778674294 0 0 0
106 1 135.9645858996688 132.50615018372892 9.132702702835687 0 0 0
232 1 140.3431394877424 139.43024129059552 8.361840954072306 0 0 0
40 1 142.91027449389114 139.27145976380424 9.705733237179754 0 0 0
669 1 147.6926965945678 139.89013888196325 8.102296506600883 0 0 0
614 1 149.04976482336187 137.90491330869364 9.21567210678962 0 0 0
349 1 139.9072442878815 141.96163920442396 9.500874024768361 0 0 0
314 1 141.36393033462903 143.38967681531201 7.9631940752054975 0 0 0
651 1 146.1601669078276 142.31032587923607 9.76705063263625 0 0 0
328 1 137.1798295626884 142.10521617375034 8.475086671562632 0 0 1
542 1 140.9679351988578 146.04886901611948 7.510825295240603 0 0 0
642 1 139.09762437962246 145.70162383799277 9.596855041225872 0 0 0
135 1 136.49438642040855 149.27140384899565 8.071243803679522 0 0 1
482 1 138.1889502676007 148.12668693559405 10.247739038340214 0 0 1
356 1 140.5327438282501 149.25948846691549 10.974476150397537 0 0 1
323 1 142.28693283421427 147.9852556174042 9.11314120413783 0 0 0
519 1 137.55594483586344 121.91295934559194 10.47071807553445 0 0 0
4 1 137.84341605145042 124.66327730913152 10.328206109005059 0 0 0
468 1 140.6176479109298 125.99399573899227 10.762253980467591 0 0 0
578 1 141.45154269861382 124.40072615563658 12.952493062375025 0 0 0
520 1 135.86204059121758 148.62604346525168 21.50198367390692 0 0 0
516 1 139.74090163249735 126.15164437887091 14.142343322766585 0 0 0
95 1 146.55744221128595 127.45288314582245 11.691271394818273 0 0 1
536 1 148.4368067109745 129.74949677251468 8.718553736989335 0 0 0
269 1 135.41632859761103 150.8972091689389 15.06214780360903 0 0 0
152 1 136.55893943917275 125.73845681475044 0.8149274540842173 0 0 1
616 1 139.60392516992937 130.33956936965097 13.397094713608238 0 0 0
401 1 139.82956103852993 128.49377600276637 11.079562261396187 0 0 0
363 1 143.9301761253495 129.2345315717148 11.833659728206891 0 0 0
390 1 148.60232977528625 129.16537509793704 11.567045840209547 0 0 -1
293 1 137.4280899669355 133.80588778400096 12.604106381231635 0 0 1