LAMMPS data file via write_data, version 29 Oct 2020, timestep = 100000

4199 atoms
1 atom types

8.52879664365041 261.47120335634435 xlo xhi
8.52879664365041 261.47120335634435 ylo yhi
0.6317627143442834 19.36823728565583 zlo zhi

Masses

1 18.015

Atoms # atomic

2581 1 131.77746744052757 92.67640541863798 18.1814711268378 0 0 1
2610 1 127.82267459388214 91.03088159808418 3.2001040072941644 0 0 1
396 1 131.02639159615214 91.37044245711142 1.694661553287688 0 0 1
6 1 133.2240019856105 89.57138205844932 2.8737531213610827 0 0 0
2280 1 125.53133263739183 90.15308490687326 15.298618386345023 0 0 1
2232 1 134.1463618633957 91.86169189148833 16.53092405923072 0 0 0
3046 1 129.08852693145056 89.74096463043315 6.013513149807695 0 0 1
2055 1 133.85500695675756 88.17136090015539 6.198129583345627 0 0 1
377 1 134.75313748803126 85.53170316092923 5.108342085410178 0 0 2
779 1 126.46756334906081 91.08535926360861 6.222343766623949 0 0 1
2102 1 134.93531693357554 90.80225641039367 9.15886693192226 0 0 -1
1420 1 125.34525664883047 92.10175100392755 1.9709398028383758 0 0 2
390 1 131.91766363576397 90.3101963558866 5.437486785062966 0 0 1
1222 1 133.87092173876525 88.26684869974152 9.250429721976639 0 0 1
1596 1 125.25047995800661 90.56105388272461 8.926333767988762 0 0 1
1285 1 127.42901144409059 90.75281072506908 13.2858059751694 0 0 1
4098 1 127.70000511419022 90.33746825655298 17.588768633665953 0 0 0
965 1 131.56954884944207 87.59047998021205 10.466056663786226 0 0 0
86 1 132.79928385181077 91.83483763164404 7.679175772029373 0 0 0
1868 1 129.9218458899946 89.3825491149099 8.966061214586087 0 0 1
2222 1 127.4840415807905 90.39500879743346 10.354988040195025 0 0 1
809 1 129.02415101630714 89.7198964669469 1.1537208144093896 0 0 1
1487 1 121.68102416318064 91.77302074135706 17.722457976198548 0 0 0
754 1 130.13066670242497 90.75769250524537 16.338204558890435 0 0 1
4174 1 132.68036893246378 87.43889938164334 14.859418660344552 0 0 2
854 1 131.74301199202372 88.92926487154426 12.788417535275626 0 0 1
11 1 121.80067818351976 92.73977775377912 4.161902409015348 0 0 1
1397 1 130.1747109222199 91.05357673955734 13.45458627319059 0 0 0
1494 1 134.88411273118038 92.3001159079662 13.884919833094251 0 0 3
466 1 131.76134168658487 88.36285828241063 19.243179722093775 0 0 0
1091 1 132.6694923837079 89.31558449132903 16.925062530718357 0 0 0
239 1 133.80300402549614 86.20514437290143 0.8622969482810514 0 0 1
2262 1 134.09680181549257 90.24807502202178 12.193388609445066 0 0 0
3041 1 130.07611946191403 92.40776089284745 4.395351577382505 0 0 2
2070 1 128.03360488463514 92.79321612269888 8.347145407197551 0 0 0
3188 1 130.68538152166423 92.39540412658191 9.344542642826317 0 0 0
1067 1 126.46248117701786 92.69822217719454 18.272555497300647 0 0 1
1903 1 123.4101589073323 92.82642954736015 9.715073888737209 0 0 1
1171 1 134.86609017878547 87.23157679216014 2.873737687701955 0 0 0
2525 1 124.1097778670892 92.74623325889723 16.475913290664728 0 0 0
757 1 133.56615296067403 92.836442833026 3.627771636318987 0 0 2
2103 1 119.30223167464834 94.40579979578591 3.4243918519481817 0 0 1
1582 1 122.6595396007398 93.16511168404095 1.4956389994924006 0 0 1
3346 1 131.05585542503323 175.82386166236395 6.587449129914768 0 0 0
591 1 134.81437948819618 169.44933981498852 9.392957644013949 0 0 1
595 1 130.73090410946244 95.19963061362189 19.146111310422338 0 0 0
826 1 110.30907529075331 97.63835799620497 2.754853331673532 0 0 0
454 1 111.5515648876645 98.1721884389681 5.311419928868568 0 0 0
932 1 115.8708318008112 97.30645002494033 3.752480432139463 0 0 -2
563 1 117.92074940239239 96.19471271924446 5.135413909665969 0 0 0
5 1 119.95856678495657 97.98822154595142 5.345743777597385 0 0 1
1410 1 133.80775739490358 166.77446379114383 9.723223678805905 0 0 -2
3351 1 123.79156217738739 98.46871918823575 2.3733202179466657 0 0 1
2230 1 126.88541202445256 94.97568843830662 1.7539187474091193 0 0 0
3486 1 133.1881779378963 100.23533033112096 2.5341633102715457 0 0 3
750 1 103.60602807308456 103.44018612679729 5.022900916486907 0 0 -1
614 1 106.92283336663557 100.95105630095705 3.300163775354472 0 0 0
506 1 104.26898682740547 100.99905541820428 3.563668195828549 0 0 1
49 1 115.00934585250141 101.42361779659419 4.860675756592251 0 0 -1
168 1 117.62299562970978 98.62710228668656 2.0287423794769204 0 0 -2
294 1 118.57342048549215 100.5076158121896 5.547808541962989 0 0 -1
2886 1 121.48215547536995 101.82472457504167 3.9378028616079455 0 0 1
435 1 123.97332975210969 103.05564563859845 3.7318405696801733 0 0 0
791 1 128.7218405792493 98.47832963356714 2.663435956275102 0 0 2
1049 1 131.2157696017123 101.22699438241436 19.238878970448614 0 0 1
445 1 101.37218497814042 105.05928958731332 4.1126807373526715 0 0 0
952 1 105.67300499076691 105.42835312420499 4.51146248084161 0 0 0
395 1 113.868240751666 106.16418410269196 3.9054821802324247 0 0 0
2756 1 110.90634028189415 103.64936582271632 6.204614753156555 0 0 0
581 1 119.6663817538032 103.2882779389517 5.622228143834507 0 0 1
3490 1 121.704431725647 105.16273297003413 4.372334340577331 0 0 0
610 1 125.54694283405621 103.67194940704206 17.314854037808523 0 0 -1
1337 1 127.38477787548324 104.5954759522563 0.7599144120819333 0 0 1
264 1 134.6152587628734 120.45018126118036 5.503041735021351 0 0 2
2205 1 134.95556498831797 118.97535790756395 9.438741223698324 0 0 -1
288 1 97.42136772619355 108.3709667086106 19.066417664481687 0 0 0
1889 1 104.61710903290147 109.61977160564103 4.41639790455596 0 0 1
1819 1 103.19942652715203 107.20604626661954 3.393596071145491 0 0 2
498 1 107.58313965374269 106.80064941222889 1.7222712019554687 0 0 -1
226 1 108.29701451781219 104.33802198610331 5.4350256907960715 0 0 0
1565 1 112.52592912636035 103.06842397113566 3.731309008688546 0 0 -1
1323 1 115.23221626254643 108.37495384043676 2.7618065706758537 0 0 0
2772 1 117.86727522163322 107.74988080263101 3.584429632544288 0 0 2
1308 1 124.76520614699365 105.03005862807194 1.8096632268059456 0 0 1
1341 1 130.73938093798301 104.29859619073252 1.7302945242514698 0 0 -1
751 1 133.2039735492456 103.08714214707278 2.500955867436163 0 0 0
793 1 97.66275439041135 110.06285158792686 2.6434163560756336 0 0 -1
835 1 101.08017364155928 108.6372999095062 2.062977407496151 0 0 -1
653 1 114.19591227615591 110.92581890012106 3.4865169436790744 0 0 0
212 1 111.0909905249515 110.47131388991123 18.424123725702994 0 0 -1
640 1 118.10263842917306 114.08335205392041 0.8644951861035276 0 0 0
1362 1 118.50937728832596 110.5892677167244 2.5261848095650254 0 0 -1
1384 1 119.79660443505155 111.45497196132145 18.790586579347305 0 0 -1
3419 1 120.47711745442314 108.06627061966944 0.8432572843722582 0 0 2
1478 1 124.04374102374052 110.79268951826924 1.21259487294149 0 0 0
968 1 126.22296309085725 108.91222368254788 2.285575754732855 0 0 -1
2907 1 131.85045626899893 108.43587056613633 2.403072490193108 0 0 0
951 1 98.76399416547173 112.16022810607248 19.00572774927974 0 0 0
1272 1 101.71217724914456 111.26260734651268 0.901458829967794 0 0 0
912 1 105.23631401615422 113.48231573826632 1.9697877336709981 0 0 -2
878 1 107.92334320612575 111.35665833834565 1.4085527582658015 0 0 0
1712 1 106.96025688614763 110.98920301394475 3.865716652629644 0 0 -1
194 1 110.99941558380044 112.93203729111976 19.283915648756047 0 0 -1
69 1 120.38226125310612 115.80594766048831 1.1586426761326716 0 0 0
1895 1 122.10917585028326 113.67285471976493 1.0675197218723218 0 0 -2
1365 1 126.64656274682186 112.02649017624165 0.9611288459969608 0 0 1
65 1 134.92038516708485 151.6613210446502 7.4183318934605955 0 0 1
3078 1 134.8510776881949 105.91620177902128 12.790959447832565 0 0 1
1809 1 96.05247218056317 118.0604367255687 3.622011068890978 0 0 -1
1797 1 99.13398693387477 119.24736491711703 16.497031071420295 0 0 -2
1232 1 99.25048924128862 117.14601660060681 0.7379288661545687 0 0 0
686 1 100.49640062514841 114.42134763535813 0.8763739310501144 0 0 1
1974 1 109.54417862796497 117.62728236430095 2.7709702298857146 0 0 0
3171 1 109.57145260895975 114.64517436836212 3.1837544604881307 0 0 0
950 1 115.19103822146347 114.90832551868758 19.331794541581367 0 0 -1
1892 1 123.18859932812654 116.74686482722989 3.542816165087752 0 0 0
3376 1 122.44369579476327 119.60852789074316 18.576612254559652 0 0 0
2616 1 126.4863083885301 114.6867042906064 2.1213885094706826 0 0 1
1527 1 125.1735061566968 118.61784285189708 4.1993103044844196 0 0 1
3851 1 130.76430558064393 115.08702718682288 2.554581153919296 0 0 2
517 1 93.53601395987373 119.41518805554192 3.6482248090999483 0 0 0
1864 1 97.26477652300024 119.83585619250192 18.66712713388724 0 0 0
283 1 100.12616279224977 118.32969696628201 3.033802571342276 0 0 0
441 1 103.04821105226593 115.4401220678741 1.291727144956611 0 0 0
554 1 106.64842923227812 118.34746640972072 18.83554354329389 0 0 -2
980 1 114.06056652819409 119.6480210622742 3.129894334598627 0 0 -1
83 1 116.34771351652938 119.46811754236373 4.765026637641214 0 0 -1
1383 1 117.83209375164635 119.34357979946718 19.00810370950248 0 0 1
860 1 123.31491644426895 120.50207267848026 3.1840359783853596 0 0 -1
683 1 127.74306627229949 120.54890266695162 2.947832236303752 0 0 -1
193 1 122.42839736155467 120.06621703275243 7.631797434822721 0 0 -1
1802 1 129.18466861137128 117.40382019245193 1.7041546678528006 0 0 0
993 1 132.9002046716721 118.45945270852576 2.9461443698889336 0 0 0
2524 1 132.5775679675368 122.03388992843843 18.6032191082086 0 0 -1
2038 1 101.19740542244064 123.1649048620341 2.6570778985942605 0 0 -1
477 1 99.5224730462145 121.3197686415838 1.237168013066787 0 0 0
1318 1 105.12337991313117 120.40621631263222 18.687957756875537 0 0 0
3742 1 109.18481285418187 119.78733785170223 18.983480675567876 0 0 -1
1511 1 112.29563580820852 121.4981927443955 4.384666270278363 0 0 0
2037 1 115.7103518037211 122.42001569165257 2.4237288146769016 0 0 0
561 1 117.9558318922097 120.6651509630344 3.0622917118730264 0 0 0
1076 1 120.71339428446063 121.49021655588231 1.6223037396093538 0 0 2
1027 1 124.63888905760743 123.07712433126103 2.0841704500223184 0 0 2
16 1 126.44391514061321 124.77702471073445 3.687315572402981 0 0 1
1517 1 128.79065174806132 122.99870270229576 4.1156016299090075 0 0 1
2107 1 131.43439541128546 122.55604708666205 2.5080432336075 0 0 -1
1692 1 92.64053218384964 124.96306021981118 19.139988355363002 0 0 -2
1785 1 94.19010328429361 125.07532006018178 2.843940534894132 0 0 0
3277 1 96.08138173421622 122.91868058223308 3.693044168113597 0 0 0
1271 1 103.72475392325852 122.18322401441965 3.467154501342875 0 0 0
1317 1 106.08785692764407 122.33703075490337 1.9762160318503468 0 0 0
2091 1 106.50263449039375 125.38921909779104 1.7064830666799287 0 0 0
3680 1 110.94186536600463 125.04846636200665 3.2299451993210413 0 0 -1
1306 1 113.646692172741 123.98596936266138 3.7512600075995737 0 0 -1
1755 1 114.5645360023301 126.01908687153126 1.1810345035185144 0 0 -1
1854 1 117.97192246706862 124.16169971091254 1.9095025623783237 0 0 0
1604 1 117.12316321269093 126.77130817532922 1.262385833465133 0 0 0
641 1 123.18408306979428 121.71166326917529 5.680319522736641 0 0 0
1605 1 123.39731362479007 125.93050016920695 3.7641412353903205 0 0 1
3273 1 130.53887823728888 126.06806009042036 3.495975252098986 0 0 -1
1920 1 129.63178713742525 125.10348071939 1.101122204143872 0 0 1
2517 1 133.10586107465812 126.92495044684657 2.235742055113051 0 0 1
1185 1 92.3709443756707 128.58564640294304 1.4065512092001928 0 0 0
299 1 99.40383665816194 126.10776495405034 3.0642208564568767 0 0 0
766 1 99.44265399107104 128.72929781609764 3.2237662990269045 0 0 0
1996 1 100.29113333238739 125.61886702691784 19.17025062054965 0 0 0
111 1 101.94092715893655 129.20167775830276 1.896994746958417 0 0 0
2349 1 104.42501059059964 129.6841359292742 18.639807187089716 0 0 0
211 1 110.70264635266743 127.72170368242473 2.954987673407394 0 0 0
617 1 113.23682403335418 128.56195671753494 1.6448698107640738 0 0 1
2027 1 117.72005461470141 129.5048726859006 2.2286205789774636 0 0 2
2226 1 117.69068696610933 126.40377322196855 4.498942149624832 0 0 1
4153 1 121.21740908977601 127.22417462059823 4.479071446283508 0 0 1
1857 1 123.55636178998527 124.4568627085783 5.9728983795550015 0 0 1
1330 1 127.30564319716198 128.71643678987613 3.0924310094075924 0 0 1
1789 1 130.1287584693752 128.84735794420527 3.1582236633419614 0 0 0
794 1 134.9892910116567 128.57157214604123 3.5677004482747776 0 0 1
455 1 96.9226762585094 129.71974193075584 2.3097865743894666 0 0 0
523 1 99.7394001842304 130.34431154800538 18.83294129704709 0 0 -1
46 1 107.64976269844865 128.83189014970188 2.569997286525518 0 0 0
1509 1 105.84424320950629 130.81382424902714 1.8997248651606795 0 0 0
1881 1 113.71642994283349 131.0051251357983 19.151260320502523 0 0 0
1353 1 114.44915921525798 133.01374921293598 2.529269362964445 0 0 -1
524 1 116.5741654954315 130.72028389783333 18.535676324659356 0 0 0
1055 1 118.59709560608245 134.23070013243964 3.262644062236228 0 0 0
471 1 122.23770867461823 131.0523660763967 2.3210003661568956 0 0 -1
733 1 133.40352534018132 128.58304236269697 5.944591473431943 0 0 0
247 1 92.49474640403668 133.19503308972878 0.7146887171925772 0 0 1
456 1 95.29280510329177 130.95493774669757 4.096178728488523 0 0 0
488 1 96.55239489805808 133.03145052577014 2.3093616477257273 0 0 0
1640 1 99.11490544113407 134.03678558769147 3.439732446607144 0 0 0
356 1 101.5109222758804 132.54802650689928 2.391469701077153 0 0 0
1636 1 104.6745856777997 135.4491322731577 0.6420535450875349 0 0 -1
638 1 108.77033894305474 135.11855460300916 2.2349101674669396 0 0 -2
1255 1 102.47646541361262 137.50545127646456 0.9677371081389498 0 0 -1
1816 1 110.46218484170383 132.9800119698022 2.8823502122908873 0 0 -1
1368 1 114.3531095389879 135.0699287101784 19.33527790524238 0 0 0
2708 1 125.403720837219 133.13285485649118 2.634338425440132 0 0 1
3624 1 127.69612727245884 133.8717837873183 4.031801335750417 0 0 -1
632 1 131.1456772167931 133.04856555081625 2.007048941929233 0 0 0
427 1 132.03455170557507 135.47191968882905 5.0202112566025665 0 0 -1
2609 1 133.309703111668 129.13405263691877 18.90854692632841 0 0 -1
1152 1 134.46594592413197 134.80398645619644 2.1641346489238042 0 0 0
66 1 88.88900143275353 137.9766471274653 1.6781988969777535 0 0 0
30 1 90.39419401624404 135.6161621545592 1.4727771206430902 0 0 2
1138 1 98.38153908668771 136.5030797717307 3.3302064430805256 0 0 -1
255 1 107.27633400893546 136.03054481947228 17.965234886462962 0 0 -2
2265 1 111.29009483534563 136.62727017746604 3.0646022159994035 0 0 1
2155 1 110.3692868789455 137.3442589740861 18.944035409003348 0 0 0
1097 1 118.4492469104105 138.4455279467178 4.906040764637311 0 0 0
2247 1 116.99427397332592 136.29921666410232 4.994725731961763 0 0 1
1985 1 123.64295950306513 134.51959405313877 4.634653314455723 0 0 1
3749 1 128.72112695573685 136.34546141821102 0.7362233123702642 0 0 0
3757 1 132.53367979322815 141.74669617272764 4.675484514773643 0 0 1
1428 1 90.32481279151716 139.78534040221604 3.1617069103757243 0 0 0
623 1 94.2326316138912 137.55046336250834 1.70587481481254 0 0 0
998 1 97.56576345671678 137.55986664004075 0.8136275267782018 0 0 2
408 1 95.85014061176392 144.17180689142864 18.662185905324474 0 0 1
373 1 97.8510481170637 142.06258176014086 0.8138868678179294 0 0 2
1205 1 104.16007555776487 139.78525235245942 1.6116590748213586 0 0 2
150 1 106.7439963160654 139.84037078341365 2.1563928081445303 0 0 0
1585 1 107.995793131669 139.08883556922146 18.395152785466177 0 0 0
773 1 111.41733783208967 141.44921485111658 3.075829420319312 0 0 -1
1731 1 111.62107810943195 139.9530167173599 19.364865018318316 0 0 -1
914 1 116.247468332073 138.56629624500027 1.007627422891155 0 0 1
127 1 122.44118236686734 139.65475018358407 3.738445223881784 0 0 1
2657 1 120.18548712807693 140.7911693495534 1.8515557738638868 0 0 1
2002 1 123.78512585973546 137.3047359456092 3.729028088487398 0 0 1
2008 1 128.75742459102796 136.53333564175384 3.4015185456740102 0 0 2
2459 1 131.02699045901258 138.29938903711746 3.4333142918455164 0 0 2
1725 1 134.86431787198333 105.47088277154243 3.2265803920649727 0 0 2
896 1 89.23608683893069 142.30992166946442 2.491582355267849 0 0 0
374 1 92.29566226729595 139.77197931894565 1.174098540631429 0 0 0
1564 1 94.30205960893039 141.4176627112884 2.142274609062561 0 0 0
1632 1 95.07557170405634 144.04165377005583 5.920610422862655 0 0 0
1949 1 102.67715393341891 141.6444492873729 2.7187880741668202 0 0 2
1158 1 102.85793197770022 143.53733906817493 0.7044348006360326 0 0 1
1549 1 107.13705284081422 142.4479632491744 2.7083416086757977 0 0 1
2074 1 109.6289138726476 142.70001488280226 1.5028098810821593 0 0 0
849 1 114.00302788800747 142.8249313166582 2.1516200418698825 0 0 1
1233 1 117.81081229792316 144.19224792194262 3.8556252733575773 0 0 0
1338 1 117.81100944426461 142.24092689957598 5.856065935143123 0 0 1
984 1 127.18739557530819 140.40048509225284 2.491335223018041 0 0 1
1224 1 128.8249459589641 144.23128627607824 4.124790498091378 0 0 0
710 1 130.1995577187297 140.86930439933633 3.0752331450603374 0 0 1
861 1 133.02274643876876 132.98631521895274 16.345020291353663 0 0 -1
1572 1 93.77239346767706 144.06955547301968 1.5775869360330959 0 0 1
1756 1 93.74302886502788 145.41751066667808 3.8760757628143168 0 0 0
526 1 93.85556945820314 150.78803949675364 18.28109243765346 0 0 0
1134 1 97.06205986030245 146.13645423617956 5.139524525228766 0 0 0
502 1 99.59472547261815 148.74079039251635 17.275210084162133 0 0 -1
740 1 105.53086725015363 144.39611961075283 0.8846897536900195 0 0 0
1302 1 111.21722497154828 144.93070122616786 2.0768264716046434 0 0 0
1258 1 115.18303198020078 144.7208644363024 3.8179136784733183 0 0 1
651 1 118.47516168938608 147.08549150272367 3.6748048507570963 0 0 0
1300 1 118.36304759558269 142.99696808315093 1.5351193568178467 0 0 1
1096 1 120.76953625078657 144.4856534539137 1.2961359429854444 0 0 1
583 1 122.00973143815048 145.11785433859237 3.864428343121996 0 0 0
2151 1 124.55195145285138 145.17678616274227 2.2718010299485085 0 0 1
1516 1 127.26065233173719 143.34469121959376 2.063744492590722 0 0 -1
1150 1 130.33213243118334 149.8277579141017 4.122767858326088 0 0 0
423 1 90.44458368389944 148.86966855280673 4.879469431973089 0 0 1
1245 1 89.3632540107238 146.88173931118254 3.4100457859710875 0 0 1
1329 1 98.22157785488784 150.561635173412 4.307821660675913 0 0 0
2057 1 94.7116786748919 147.91373110995144 3.5714522755891878 0 0 2
839 1 100.25216468649091 146.25762903799827 5.638534256993461 0 0 1
682 1 98.98690254555515 147.81226063074214 3.3628071495539307 0 0 -1
564 1 100.69642761276009 147.9528390961382 1.0632825704766273 0 0 0
1482 1 103.60440718866245 149.1848668332555 0.6696350130042561 0 0 0
1537 1 106.4729217236039 146.47838511293932 2.567570577522052 0 0 -1
19 1 109.25949551549029 146.86391772517786 2.0181287410699507 0 0 1
240 1 109.60739474536476 149.40900435685333 3.0228013480824747 0 0 0
262 1 114.55397874660456 147.1804374843643 0.743878048396315 0 0 1
918 1 115.7477300839227 147.48817181891923 2.884205004434604 0 0 0
916 1 118.65038957308785 146.76253116832268 0.7054082487689123 0 0 0
4002 1 119.51804720305404 150.07749957373196 3.9141452575311932 0 0 0
961 1 122.33057698148876 149.02065756518553 3.06869154478126 0 0 1
822 1 124.28531791369898 147.38010476151598 3.886461973345594 0 0 0
62 1 129.63596944884281 152.21961023844392 3.0009674879644654 0 0 0
2028 1 131.06675924515142 148.31160746985884 1.5958537547405915 0 0 1
1265 1 92.14252277480657 150.39744703824357 3.1332105512960515 0 0 2
25 1 94.76802250809484 151.85661615632193 2.53378234568691 0 0 2
1850 1 96.85456731492225 154.3941329715129 3.2435129696835494 0 0 1
409 1 100.5508972115337 152.27691591779873 5.055709182577047 0 0 2
1498 1 103.34995262922119 151.48277525477084 2.3488140616790827 0 0 0
1242 1 105.92309967439402 152.4153536441595 2.2309605935190424 0 0 1
864 1 107.53798551528519 150.38716203576234 1.5191085508134652 0 0 2
1497 1 111.98429082458388 150.2951611696655 2.53112673182779 0 0 0
2069 1 111.69969817172569 153.0019826339683 2.7953106753956605 0 0 0
2063 1 115.7682344853659 151.5635676389923 4.654558304434186 0 0 0
670 1 118.72062731764245 151.6412753508493 1.7133458068129472 0 0 1
1699 1 121.81805492550575 155.20784671846 0.9916574306183692 0 0 1
1404 1 122.30084544556307 152.7531097452709 2.5642859623938685 0 0 1
1010 1 124.87983697376208 153.96164738920302 3.152657861013609 0 0 -1
1074 1 126.71994479600654 148.67711159962008 3.1540961445219433 0 0 1
1887 1 132.64173051683517 152.07706397664953 2.44806900996336 0 0 0
1690 1 134.75149122432654 133.08535825207 18.622422112024942 0 0 -1
2020 1 94.78774642053061 156.7546592227364 2.6276800374837816 0 0 0
1225 1 101.76546415179624 153.86490141841395 3.1022316839750523 0 0 1
1598 1 107.99498827601616 154.8696473100949 1.2179590876870325 0 0 0
2061 1 110.24862785472702 153.3759845027634 19.13786118144776 0 0 1
1666 1 114.03595203258625 154.73603477003294 2.609652904320631 0 0 0
900 1 125.44716924747206 155.67620194408278 5.503828096950067 0 0 0
1403 1 128.31048029638214 153.9935317364949 5.259477083383715 0 0 0
3642 1 129.79628407238056 152.63896505806926 7.551923163511705 0 0 1
2087 1 131.78293379701714 155.0432572010499 4.3173967655084065 0 0 1
18 1 94.68961359989832 157.2037970637289 5.291846625504442 0 0 0
1046 1 100.17067724161248 156.44069224558422 3.467860887400021 0 0 2
59 1 101.84764472259144 158.60672133094812 2.349862130313999 0 0 1
1419 1 108.38323290906912 157.09732655996157 18.572134220600272 0 0 0
692 1 110.77851083307561 160.05539253452835 2.8723250523419646 0 0 1
3972 1 110.55786717986176 158.44797961855755 0.7477174031499562 0 0 1
1416 1 113.24010755334672 158.03724824847126 5.6578791249159135 0 0 0
1226 1 119.6071604823381 154.70201037433583 5.214284781289407 0 0 0
2340 1 125.34939118763437 158.80865451004993 4.920962645058096 0 0 0
135 1 129.96460088684697 155.04981685721182 18.953244061242085 0 0 1
130 1 132.48739223301453 155.96583696748482 17.839981459218894 0 0 -1
2414 1 134.68355223347598 98.38222621017398 1.0209750955801706 0 0 0
1989 1 94.83196658551725 159.9140006498734 6.045002154205985 0 0 0
1493 1 98.65355730147141 159.6253708149811 3.407727011755193 0 0 2
727 1 101.40438828971517 161.3019858275713 3.5556692864927024 0 0 0
1484 1 106.71778312641204 161.49009067196445 3.0850417457580535 0 0 -1
3008 1 107.3966667418143 158.37416357786856 2.375083629116654 0 0 -1
1896 1 109.19537243978574 162.31446052719434 3.0423734494170915 0 0 1
732 1 113.14436651578254 161.78998584517618 2.0624475604109453 0 0 0
1304 1 115.39407907018436 159.56332146660904 4.36180412675585 0 0 1
265 1 118.62633341822071 156.5828628871837 3.2626385334486407 0 0 1
1186 1 121.43960428977073 158.78663461091557 5.609665538067168 0 0 -2
3617 1 129.42860895841102 160.48947017242503 6.1314074268763 0 0 -1
2075 1 128.63138336046615 160.59462941812305 1.9847646319329766 0 0 0
3816 1 132.3389266257886 158.27538545373628 2.806248355161226 0 0 1
3586 1 99.50217638109781 163.4362326500301 4.176041191917168 0 0 1
618 1 102.49577364495863 163.5209750448472 2.2094590171939057 0 0 1
2021 1 105.88594286971588 162.7839309558444 5.523539571137149 0 0 0
444 1 110.27361089679344 164.39066358158314 1.5844764246725767 0 0 1
1167 1 113.9526020944062 163.31717492393975 4.180392145095522 0 0 1
1182 1 114.55687419719192 166.0578218702187 0.9453543215124941 0 0 -2
805 1 115.53802839887298 161.72471037767747 5.645725337232618 0 0 1
975 1 117.60358865968182 162.17067300239898 0.7745226062051268 0 0 -1
1776 1 121.00107611601211 162.12244774837637 2.9377813477616583 0 0 2
2573 1 122.92375056419266 162.88631367847566 5.277264284918796 0 0 1
160 1 122.74216612389516 163.23006029606978 0.8444005710288048 0 0 0
1760 1 125.26422874559643 162.7607816075795 1.683715337192191 0 0 0
1905 1 130.2684084966546 162.7045631461858 19.157855774823204 0 0 0
281 1 132.07699518328656 161.5438738968699 2.1329214087601582 0 0 1
1772 1 102.9848396464425 166.3636029923129 3.8552963767410593 0 0 1
1587 1 107.94338226787313 169.03358521836742 0.9921342858768141 0 0 -1
199 1 105.96492689766765 165.4294363485522 1.3395226401783695 0 0 1
1476 1 112.17128414546404 167.60012556896154 0.7772509452787197 0 0 0
457 1 112.13704334809661 170.5514184832095 0.8552137727120549 0 0 1
1267 1 120.90138088070171 165.1319914299957 4.223881906269481 0 0 -2
1262 1 118.43232831275455 163.7445847593079 3.059818316048456 0 0 -1
762 1 121.60968404809752 165.5990315217041 1.3989096935943315 0 0 -1
1591 1 129.4053934981178 165.49097597120738 1.4345620511547654 0 0 2
2945 1 131.67877466518763 166.85679022642944 0.8937566669993697 0 0 1
810 1 104.26153944423676 167.54720273138267 1.478846336861268 0 0 0
41 1 109.98356779203552 169.348887378337 2.7256828312315746 0 0 -1
1153 1 111.28262975237429 170.3015451226955 5.258518646190014 0 0 2
3633 1 114.43095760321377 173.17215071967348 2.6461241346744346 0 0 -1
759 1 118.53081743262507 168.8436902204446 1.5157902075121614 0 0 0
1316 1 122.74710389331352 166.88136925978526 17.645088522061652 0 0 -1
3824 1 122.41793295620452 168.91613705936595 4.857264827180958 0 0 -1
571 1 123.16895602217846 167.1905306327399 3.0344693882145286 0 0 1
1907 1 126.66367894774427 168.11560243453604 5.514741803244935 0 0 1
2572 1 134.52898502713984 169.75915489885415 3.6988173967889533 0 0 -1
1777 1 107.01546572960713 170.58313403442983 3.1401893118393813 0 0 0
815 1 106.21961328933023 168.73240594359697 5.323013892616185 0 0 1
1157 1 107.90855214678763 173.21556323571085 7.865101350709842 0 0 0
3155 1 119.33324567787358 171.53192450638207 2.962300407137727 0 0 1
527 1 111.4921988146577 173.31918644534713 5.5107489628770505 0 0 -1
587 1 122.11347872050956 170.7223375115259 2.768923156656066 0 0 1
357 1 126.71477114429838 170.70373130840474 3.25801432295169 0 0 1
1701 1 129.48053857478456 169.14114866805667 3.842163809580704 0 0 0
375 1 134.00551075609033 175.10291976519113 11.041881649980338 0 0 1
3710 1 118.94412761841386 172.3607518371841 5.510626215636455 0 0 1
2568 1 134.04641535281726 120.8882377923819 2.732092631932744 0 0 2
717 1 121.55836239257714 175.5419471477432 19.360941372058974 0 0 -1
1452 1 121.94363170153281 175.8558445739584 3.6870176323132964 0 0 0
2605 1 130.6592252478829 173.74172969400595 4.60643056436565 0 0 0
1310 1 134.7345330283595 166.92364104021465 15.92252395699898 0 0 -1
3564 1 134.20714956486586 102.15778015228764 10.754366054115165 0 0 0
1456 1 123.55883951583823 94.6497860587687 5.4642496142040775 0 0 0
979 1 126.07274866110754 93.35181665683723 4.581326292802246 0 0 1
1237 1 134.42725617117955 96.98293188848973 6.233823254333416 0 0 1
4048 1 130.0917183316957 96.5280353119004 6.840579571699476 0 0 2
4086 1 132.24386594615038 173.96260683850318 18.218142987004367 0 0 0
784 1 110.78771225624875 96.12217595081368 6.947616650706131 0 0 -1
1573 1 114.23784183262642 98.76971285709907 5.495722776530376 0 0 0
2245 1 113.10789618485995 96.14998169149361 8.555210955860227 0 0 1
1747 1 117.33391585794435 96.51803442296715 7.984574740287326 0 0 1
467 1 121.72332624525967 96.00633808162682 3.4948390243221334 0 0 2
1090 1 122.73028293479226 95.10982432204675 8.132806530684629 0 0 2
699 1 124.75749058272487 97.13828261049439 4.722482900102052 0 0 1
1280 1 128.6719111757918 94.09007784053027 5.919075105341162 0 0 0
3243 1 129.42994912142427 99.02042223972285 7.323924003096309 0 0 0
82 1 131.0394258872773 98.83184251327103 3.827333644408642 0 0 -1
1418 1 131.8870932126996 96.68172094804544 5.056773662654525 0 0 1
388 1 106.66807042987644 100.92834159060624 7.977469736870254 0 0 -1
120 1 104.24284165195876 103.35343003989252 7.77449575240906 0 0 -1
1460 1 108.13694174530661 101.28302942841707 5.605797858014694 0 0 1
1007 1 110.93931547338504 100.70711136848584 6.6663268618452385 0 0 0
245 1 116.12385860982965 100.83395868092643 7.367801674379043 0 0 0
1618 1 115.14169727835716 98.01144128040433 8.122071280666066 0 0 1
1352 1 124.65527081109846 99.10018891440943 6.432038683955762 0 0 1
3356 1 127.2159935802747 100.48769852820783 6.355745788083573 0 0 1
1249 1 131.35482616638168 100.82042933947682 5.853397684140031 0 0 1
3363 1 134.05403740390045 150.1020104161185 17.770702462206508 0 0 -1
642 1 99.3394945306003 106.44789848576683 5.784187230381702 0 0 0
1340 1 105.32146597608786 105.9589465335346 7.417990794639145 0 0 -1
1893 1 112.89432971993558 105.1751871525482 7.755274105764534 0 0 1
1011 1 118.79339924415932 101.24577775644624 8.53430898051617 0 0 -1
3121 1 122.63427581224038 100.79182597482685 6.325934729286092 0 0 1
665 1 120.52940484674895 107.32503614230431 5.779154991979114 0 0 1
1221 1 122.44548496122096 105.59528724810562 7.543978276693331 0 0 1
3783 1 126.71131162616692 103.22592949411394 5.537868474593117 0 0 2
4181 1 128.20592724165363 103.31534461188123 3.274624671732416 0 0 1
1818 1 130.872478273294 103.49076366752003 4.766380785925034 0 0 1
184 1 134.9508189068452 146.60376025733993 13.616913435948673 0 0 -1
1769 1 99.36128886148381 108.62299635442677 4.24978908664785 0 0 1
50 1 103.29863126161878 107.61655610974596 8.42073583770182 0 0 -1
1003 1 109.0227689797322 107.20318572114581 5.908010948701583 0 0 -1
97 1 111.69799602729236 107.6443258006834 5.501661888066939 0 0 0
552 1 109.92319545131654 109.05084352202839 1.4979778844003913 0 0 -1
1156 1 117.64974585374557 107.40523171908791 6.657397244982121 0 0 1
3779 1 120.37212886640602 104.0405066258319 8.162582165749647 0 0 1
2606 1 124.31131231489223 106.46026575887154 4.225288754723924 0 0 1
1727 1 126.5684626950952 105.90496447725991 5.740436589709039 0 0 1
1969 1 130.41864898699237 106.63906615627607 3.7787758967799276 0 0 2
844 1 99.20642603725065 110.64783217734673 6.427191425279114 0 0 0
1796 1 102.12866857821622 113.88390128225272 5.580047633429927 0 0 -1
236 1 103.73860347219845 109.72488565195796 6.929123468273249 0 0 -1
21 1 107.10345885462858 107.92224198477338 4.230660575572631 0 0 0
1681 1 109.55226830532412 111.03882313954817 5.325537401553913 0 0 0
484 1 111.41674096627297 109.85908652693409 3.7117888919963584 0 0 0