LAMMPS data file via write_data, version 29 Oct 2020, timestep = 5000000

519 atoms
1 atom types

2.9875647273995583 267.01243527259624 xlo xhi
2.9875647273995583 267.01243527259624 ylo yhi
0.2213010909181783 19.778698909081807 zlo zhi

Masses

1 18.015

Atoms # atomic

157 1 130.3954351231769 124.79363830768852 1.7803928978514598 0 0 -4
462 1 132.9825366347609 123.03707525272611 19.749101218533983 0 0 2
485 1 134.90132878928054 129.05442742468185 9.248119911208157 0 0 -5
361 1 127.27582930185457 126.5669414924487 1.8848800729691864 0 0 -2
132 1 128.9766048781719 126.2398768935037 4.378389916942872 0 0 -1
42 1 122.44231802546287 128.3319286040962 1.5824459805368547 0 0 7
163 1 124.84655696360988 127.75245718642799 2.7637106377926295 0 0 2
15 1 126.04786084969598 129.7834896674432 1.1653523284863967 0 0 0
505 1 130.2068765770504 128.23195111156588 2.2949101829613974 0 0 4
368 1 130.72474416130007 131.0128870659106 3.2799699839905094 0 0 -3
39 1 132.8442806118593 127.65638070894524 2.009702912156598 0 0 1
79 1 122.06772561963754 130.9570850492077 1.117800313161216 0 0 -1
512 1 125.79800942253767 131.7305993723547 3.2769988132103247 0 0 -5
175 1 128.7030341481813 132.76323017326283 2.800085057200666 0 0 0
218 1 132.74943459749636 132.80304107422018 18.083424474736074 0 0 -1
499 1 119.0801101998703 134.26742541001974 0.5025343644086333 0 0 0
511 1 121.55119789238229 134.115173005554 2.1810999816963395 0 0 1
290 1 125.78678299190145 134.39237102360266 1.987695983444129 0 0 1
56 1 128.10988351827 136.12739616616963 1.1404696543732091 0 0 -1
398 1 130.74435078196765 136.9453951282001 2.7414139998727998 0 0 -2
266 1 132.45303583516386 134.54559046537545 0.8842543810226792 0 0 -3
154 1 121.45138168653827 138.30505724223895 19.663227131938974 0 0 0
254 1 124.23187884233026 137.4461053881042 2.7725661953579332 0 0 2
452 1 123.5665659764371 135.85389119320206 0.6739827367528384 0 0 2
213 1 128.91638515720908 140.18044942475214 1.101558427681893 0 0 -1
257 1 133.66402266963172 137.89518631249067 4.553516018276658 0 0 -4
493 1 134.0951939929769 138.4975443278564 1.7827148926715717 0 0 -4
234 1 120.01196047901303 140.6443232740237 19.63196779051911 0 0 -6
414 1 124.20954671015936 140.8509988928784 19.100484904294206 0 0 2
89 1 128.0746927137236 142.85817464564815 0.5146616215550942 0 0 -4
387 1 133.94899260692532 141.4912668485638 18.32292053213476 0 0 2
191 1 131.34988034445232 148.66564937601134 16.366710289767813 0 0 -6
363 1 125.23324141559824 145.19100496535964 1.3740737387067385 0 0 0
513 1 125.60145013964713 143.28431834058847 18.942184885204792 0 0 -3
335 1 132.12233584523898 143.2864052021676 19.55271244153389 0 0 -5
171 1 127.79722945569583 146.55304948118808 2.4559440827099195 0 0 1
100 1 130.98560061251746 146.2456522591383 3.9235233540250403 0 0 1
21 1 131.19454627042495 148.19472882391273 1.852910905734923 0 0 1
73 1 129.30912354723108 147.19264546425984 19.71460597401391 0 0 -3
428 1 133.74189598828684 147.38186737838905 0.37523874999426354 0 0 0
421 1 131.8111558746731 122.69378174068041 2.836782164679066 0 0 -2
139 1 125.86853794181292 122.822626403719 3.661122655352612 0 0 0
273 1 128.11809742052225 121.42322908413006 4.433267246823635 0 0 1
475 1 134.68400375762747 130.94409131343414 15.580456666788889 0 0 -1
87 1 123.9762825673708 124.75473525664661 5.280843052583586 0 0 -4
269 1 129.97310673711047 123.63605836336065 5.153895214749787 0 0 2
497 1 130.30596652081726 128.15261388683484 6.133861006602043 0 0 2
102 1 133.95898033268332 124.97227669695816 6.142923328498635 0 0 -5
255 1 132.79331176834393 127.45293079606766 5.35931956185229 0 0 -4
425 1 122.21906727000656 129.02782406013233 5.455921523926627 0 0 5
372 1 124.46139660858587 127.65365229514536 5.618421041236804 0 0 2
474 1 127.45260095441726 126.72751261605286 6.772801050691072 0 0 1
153 1 126.03459421220839 129.3298019001395 7.385754744105827 0 0 3
97 1 133.91910627275334 129.87697708325834 5.518982094642599 0 0 2
444 1 123.14844029247251 131.392509422532 3.625062593650357 0 0 3
392 1 126.88342397246902 131.49627806487698 5.976785780747959 0 0 -4
411 1 129.7153037626339 130.85910062303589 5.807382571074924 0 0 -3
277 1 134.24277573133602 131.1405481120735 2.8155724727896803 0 0 2
60 1 122.3899353573346 132.801778833779 5.74267264527338 0 0 4
492 1 120.91239051744893 135.0393294840253 4.638527693883636 0 0 -2
208 1 125.8587198628816 136.20644734313066 4.711229545176963 0 0 0
404 1 128.74703852996933 135.14828204323717 4.605966788030911 0 0 2
439 1 132.60358810868425 135.02317608436906 3.612169264607617 0 0 1
295 1 128.67480178101755 148.43622836858253 17.191519133903352 0 0 1
435 1 121.55304131752611 137.97329742527478 2.9286315845891977 0 0 -1
406 1 120.129642748338 137.6874612195747 5.45438208822348 0 0 0
135 1 127.56325621579374 138.62815421553276 5.257818379977705 0 0 2
478 1 130.3347594463298 138.20331423341855 5.121092019612798 0 0 4
22 1 131.61048281375358 139.6892725717403 2.1364497250126626 0 0 -2
454 1 129.80464151647573 144.33470092407387 18.586692445692176 0 0 -2
352 1 120.67187572916961 140.71479976280116 2.975516287439526 0 0 0
193 1 124.31946834880395 140.2586875551561 2.27580191628154 0 0 -1
321 1 123.01841512597625 141.19955883131874 4.445788237317756 0 0 1
161 1 127.08156180057138 140.39193309832686 3.2072515710241327 0 0 1
412 1 131.9522884694273 140.66286148014873 5.016618199469165 0 0 -3
286 1 124.47352735393599 143.6550416474205 3.5814773298868428 0 0 1
461 1 128.81120461192964 144.03400546107486 2.693217967570808 0 0 2
309 1 126.91570690804573 142.85076238208546 4.301558717872422 0 0 -3
507 1 131.58568492499072 142.75879873362933 2.8276821852961667 0 0 0
445 1 133.74481139709695 143.78337063249347 4.4089437703901835 0 0 -1
227 1 128.62178231007982 148.10181946160253 4.77827143210167 0 0 -1
353 1 133.68905440849332 146.61164414695241 4.88657960573553 0 0 0
433 1 128.74747547572332 120.14762067338971 6.8327547848457835 0 0 0
516 1 131.42030430820537 121.34424638585105 6.790267215177634 0 0 -1
204 1 123.42097880933397 123.81410066242479 7.738287132387402 0 0 -2
420 1 128.79182259101194 122.06146038570266 8.971091442588634 0 0 -1
303 1 126.10243580842439 123.13124654544939 8.791984620555391 0 0 -4
116 1 130.0006032445585 124.26268249468359 7.8842900198247845 0 0 -1
370 1 123.47572351239687 126.8296950513606 8.649543046774156 0 0 0
95 1 126.81696006508533 124.09669609828003 6.0949171784008165 0 0 3
471 1 128.86394401884246 126.65331690362873 9.703623339023407 0 0 0
44 1 132.63017578277132 124.51254785788826 8.317432905741146 0 0 -1
199 1 133.27305316283378 126.79512045353434 9.940405177814158 0 0 3
26 1 122.05363974088228 129.3335564337849 8.131827240715028 0 0 2
196 1 127.12855098004599 128.69787783159603 10.118124340065402 0 0 -1
342 1 130.97150099171876 128.14882517557845 9.164507157686975 0 0 -2
272 1 120.42828998329709 131.55605660169937 7.472490095877665 0 0 6
109 1 124.15221331832102 130.74859505564066 9.149616537368606 0 0 -3
3 1 127.0961318703762 134.10745912662958 6.738454180905581 0 0 -1
408 1 130.6507955560062 132.5471843605621 7.684210159653096 0 0 -5
465 1 133.25747080062004 131.2344077745185 8.024900911500133 0 0 2
127 1 123.43100729735106 135.94308632511746 6.124297453126805 0 0 1
283 1 124.28596941816976 133.1919773880002 7.658672136141747 0 0 0
80 1 127.16305972185143 134.96274059892906 9.294103894895095 0 0 0
217 1 131.25535113887676 134.42761775548058 5.7338624569810905 0 0 2
379 1 133.88268767883034 135.68088339675242 10.91979351821266 0 0 1
431 1 122.10026741391404 137.78989466307291 7.49113821020431 0 0 2
397 1 131.08633828140293 136.61845391722687 7.429777988146104 0 0 4
9 1 133.94005001917543 136.59809305032428 7.806984098696877 0 0 -1
99 1 132.98321774210683 139.50688474121134 9.004486047533248 0 0 0
120 1 123.61691810720295 140.24009609828127 7.410932445852597 0 0 -3
253 1 126.28833572650107 139.9114713449078 7.504947050214203 0 0 2
464 1 127.39470413391034 142.4042470120408 6.929133466692677 0 0 -3
230 1 130.1893507644598 142.2540056186174 6.700794356067411 0 0 1
297 1 128.16230587409206 146.63204168133618 7.186535969071749 0 0 -5
241 1 127.35896588305893 144.44265355577548 8.899811454000854 0 0 1
416 1 130.85073836449777 145.1246816694756 6.603854200391474 0 0 -3
300 1 133.4471147871781 145.45961105802664 8.422602045728851 0 0 2
223 1 130.68011090150185 147.06490310053545 8.814710342363824 0 0 0
64 1 129.22565209639154 144.28553556977897 15.998594715178747 0 0 -1
229 1 133.11649129421025 149.03174648128117 8.960358814886591 0 0 -2
479 1 132.6398385738133 121.9487130300314 9.662360479400924 0 0 0
137 1 130.43424290633547 122.68895338944506 11.506459804616238 0 0 -1
443 1 134.78012525712887 122.94693484294159 13.26212674365483 0 0 2
210 1 126.23606162672864 124.4832769439844 11.449167723988085 0 0 -1
18 1 125.59714536386143 123.17795394143603 13.809024671102602 0 0 -1
138 1 129.10293894925042 124.95385341932014 11.67005903481155 0 0 1
355 1 130.83046642805024 127.13485099482882 12.466078941033961 0 0 -1
189 1 133.15126203692188 125.66232396788779 12.818761151913668 0 0 2
440 1 123.16253259929582 127.63551565375296 12.687926382170822 0 0 -4
170 1 125.0752041545954 126.94401994893498 10.68419183643506 0 0 2
288 1 129.77424379167135 130.3209094501178 10.551464963143248 0 0 0
214 1 131.63570823357406 130.09930814582927 12.583378952432485 0 0 0
317 1 122.05027502167347 130.2629061867979 12.752339367790183 0 0 -1
424 1 124.67248858416859 131.1433477565504 11.853344082658118 0 0 -5
180 1 127.30195569081675 130.4482272176351 12.829015418225021 0 0 1
400 1 128.6428416755774 132.56471474620727 9.469554341049065 0 0 -1
358 1 134.2041604085167 129.41303149756502 11.900017802600605 0 0 -2
220 1 121.0272076845154 133.53451159874237 9.395486494688564 0 0 2
267 1 121.2257803103072 133.0490964047962 12.044840198898576 0 0 0
172 1 124.34601304382461 135.22136277113592 9.841790800624379 0 0 -2
264 1 129.77260444801678 136.0597237799955 9.842884302235774 0 0 0
244 1 129.72331182372133 132.68732984702268 12.413856406927566 0 0 1
331 1 131.37710680220223 134.99884393521847 11.902089358279959 0 0 -1
226 1 134.84224328103355 133.5563258783949 13.036757641811466 0 0 2
333 1 122.02498239515421 137.63028066784534 12.431386714062738 0 0 2
299 1 121.78400484600462 136.30831034337717 9.714093854705085 0 0 -2
429 1 125.26420439402484 140.452990473762 11.577077274604665 0 0 2
215 1 128.35272226946958 137.77614143868638 11.654080198227057 0 0 -1
466 1 133.8327868265587 138.38678501721483 11.523507156344063 0 0 0
450 1 121.49170739563077 140.36531324027405 11.641495335507932 0 0 -2
514 1 123.27573064154255 141.79120084531976 9.69033936712391 0 0 -2
324 1 127.96368538095204 140.14249313485078 9.815695143418838 0 0 -1
17 1 130.8466075505668 141.1303159023772 9.282421045536838 0 0 2
394 1 124.77696809749789 144.30265924322504 9.717760237078563 0 0 -3
261 1 125.67812653188749 144.79434139562545 12.335849413565418 0 0 0
103 1 129.87663727262319 145.08384682238545 10.570069223701957 0 0 0
225 1 131.68651286910037 143.10900653519033 11.013935749466864 0 0 -1
169 1 127.36007515710101 146.245287039415 15.819116499162197 0 0 3
14 1 134.2373758022411 143.28222237510974 9.99148466271125 0 0 -4
82 1 129.83513874580208 146.9807092943901 12.587433809920253 0 0 -1
203 1 134.10571049760122 147.06900432550748 11.038626876170637 0 0 2
270 1 134.05582138982146 145.65662223187041 14.187188565069127 0 0 1
393 1 131.3692013903174 148.94105768008103 11.44019581737017 0 0 0
307 1 133.56984335186323 149.05413425237393 17.97424356662446 0 0 4
457 1 126.78511789743943 123.16434362115692 16.380594012132846 0 0 3
301 1 128.53878110326627 120.91833049629994 15.74146332543994 0 0 -1
491 1 130.40539932438895 122.53023392608752 14.477373362688859 0 0 0
438 1 132.97877028430779 122.69660194501652 15.593435907521611 0 0 4
405 1 124.35698931513147 125.86461876503145 14.536460884068605 0 0 -1
490 1 128.53281982383314 124.57979455317614 14.346985995619438 0 0 -2
328 1 130.19913829527815 126.63663762325262 15.746309828934178 0 0 0
81 1 132.67704516152767 125.66364346157067 15.514013374881241 0 0 0
34 1 126.657408693855 129.35817957187024 15.470206274623733 0 0 -2
432 1 130.70276488758233 129.45282794741343 15.207050120459236 0 0 -2
389 1 122.68943135387835 131.37105910812724 15.292412885422763 0 0 4
409 1 127.90362372841835 132.46446951255618 14.808406896679772 0 0 0
165 1 134.7144026447208 141.17240529707803 5.49036236354502 0 0 -2
503 1 132.41853010704514 132.46651956419225 13.913185831364332 0 0 -3
63 1 130.80702336593242 132.57883377896155 16.265346378004423 0 0 -1
96 1 119.73883026519593 134.1630901530294 13.834733022600451 0 0 0
32 1 123.93211619983585 133.7908234068828 12.332203624049871 0 0 -1
418 1 126.91924549863478 135.6631274266443 15.218361543751714 0 0 2
386 1 124.86491899174767 133.42479736323875 15.150997852223428 0 0 -6
336 1 129.13112408634612 135.68756448975387 13.659177945378122 0 0 -1
459 1 130.04790352343903 135.0023961333365 16.380522409123106 0 0 -5
519 1 132.94729462128836 135.80382492124932 16.320220047650405 0 0 1
340 1 119.62526275054863 136.928795696371 13.676870151145648 0 0 1
510 1 124.74824265150014 137.1257533710576 13.520520312169356 0 0 -1
489 1 125.45376752074522 137.64723769708803 11.152488834786054 0 0 -3
105 1 128.0606799033574 140.17499244572525 16.080171835110946 0 0 1
258 1 129.71813365585294 139.0147534882428 13.725125161515313 0 0 0
162 1 131.9816969182737 137.20222422278118 13.963696032722702 0 0 -3
360 1 119.09149267532511 139.28056109479508 15.04765817774821 0 0 6
110 1 122.00883503776487 142.63984560216505 13.356443453068113 0 0 1
289 1 125.51359359470845 139.80995854974475 14.471467503924943 0 0 -4
249 1 124.59740512966553 142.74344475580378 14.104228817448014 0 0 -1
186 1 128.76101669442815 142.21010135276694 13.88194603124901 0 0 0
146 1 131.46903840208074 141.80423972798883 13.369800049884697 0 0 5
108 1 133.38512466389844 139.8585696915242 14.286312238007708 0 0 1
488 1 127.55556187412411 142.32653185575649 11.504883102229034 0 0 2
181 1 132.16887524195408 143.58756053946203 15.429937246114523 0 0 2
233 1 126.99007826295274 147.20886381216906 13.152666184911224 0 0 -3
245 1 131.16483386114152 146.55807496010974 14.923626659194598 0 0 0
65 1 131.64938665006306 150.1430688004622 13.977883648447579 0 0 3
107 1 133.50513449324296 129.92740620975138 0.3970277316874116 0 0 4
49 1 129.3540971433926 121.48970728635037 1.9596683167031748 0 0 -3
434 1 129.68566596497695 121.43236619742855 18.200312638561183 0 0 -1
449 1 124.94601096338066 124.05570933594362 18.61452378256343 0 0 -2
476 1 127.29297895951855 123.6846197783171 1.309363759311734 0 0 1
28 1 128.50949448101457 123.82616517013324 18.50093697045444 0 0 1
311 1 132.31091821122615 120.95504226979746 17.52061026356319 0 0 2
385 1 123.2110876214963 125.20591675870857 17.00423329555003 0 0 0
131 1 126.00952855362003 126.8272391761124 18.51511513961639 0 0 -1
143 1 126.73325565441459 126.57359765124774 15.872835847079571 0 0 1
330 1 129.98340369700145 126.316783642778 18.50445878738834 0 0 -3
271 1 132.58861415165745 125.70290395150566 19.316811748906026 0 0 -1
399 1 134.08334702514193 127.04433522957734 17.31395654338575 0 0 -1
501 1 123.54487844270183 127.50530285562918 18.759779284893654 0 0 -1
292 1 124.10624463644072 129.57935865059585 16.700704834554656 0 0 1
252 1 128.41880830714743 128.7145055473961 19.448754816580312 0 0 2
66 1 128.7430175305917 130.48296435719539 17.213153466304423 0 0 -1
77 1 130.6275361508632 130.9068169317373 0.22582845528967255 0 0 4
281 1 132.73850982548942 129.37098706505734 17.02809153795383 0 0 -3
486 1 120.13670231417802 132.13353446063638 18.55677611202255 0 0 0
282 1 120.99500572754077 133.43773665711217 16.223656921971887 0 0 0
151 1 124.2516220842106 130.9368399795388 19.138056898857183 0 0 1
391 1 127.79442213561691 133.48614182895284 17.89644118057283 0 0 -1
113 1 125.18876029074836 133.5627792496394 18.863755894906266 0 0 -1
54 1 129.7705807711727 133.66104796707253 0.2679558852761245 0 0 2
326 1 134.11459437313778 124.02464761673787 3.442301717778669 0 0 0
152 1 123.4462309278336 135.0962581816845 16.919396031702274 0 0 1
279 1 133.9515208734382 136.71975492331674 19.22151913818773 0 0 -2
448 1 118.36793792664575 138.82003183459346 17.962361382390696 0 0 0
117 1 119.73979102179112 136.4628276153265 18.410923401555856 0 0 -1
29 1 121.1963171093337 136.6036890984624 16.00624746254368 0 0 -3
401 1 123.22625381262341 138.52739994632188 15.756282417448487 0 0 -3
494 1 124.28912943204345 138.18364227165563 18.273548667219394 0 0 2
517 1 126.64141980126162 136.61806299677818 17.963865349206106 0 0 1
305 1 131.08683082871667 138.9043394595734 16.655529493367812 0 0 1
390 1 130.80817963098642 136.59825330752747 18.536098490375768 0 0 0
83 1 134.04952279372966 138.82061134777467 16.95225000197844 0 0 -1
483 1 121.76072356914258 141.95662062907965 18.044884679245584 0 0 0
57 1 121.75539508694595 140.80744250157926 15.536229485342947 0 0 1
173 1 128.45875525209956 138.35362132443507 18.549902782421242 0 0 -2
338 1 130.7353757682018 141.60026329413236 17.235304467588723 0 0 -3
240 1 134.65151889886803 144.96560860669214 19.689230830531063 0 0 0
381 1 125.36604020551988 144.21692299607682 16.175360682809174 0 0 -1
144 1 134.61865360301547 133.58060789956866 8.184425558812235 0 0 0
337 1 134.65791783443925 143.68972698268766 16.852262305606946 0 0 0
166 1 134.98626479346075 141.28428037432903 8.288621243868818 0 0 -1
145 1 134.0940516200766 148.73757158405112 13.747146729734673 0 0 1
140 1 136.7058060495729 120.40176144265679 1.3186004744342437 0 0 -1
382 1 139.18679053087382 121.70261209160363 1.5667918040180326 0 0 2
495 1 139.41864255053252 124.02149302580884 0.2294421210578868 0 0 3
341 1 145.18767609713797 123.88793167139586 4.36599308809735 0 0 2
284 1 136.23285482913715 125.21346875480941 1.4109398597078653 0 0 2
200 1 138.59504119152456 125.43015536983292 2.7756136243853162 0 0 4
350 1 143.12287850201372 125.35927552586953 3.067055029646971 0 0 0
417 1 147.0469806155198 126.17250362217835 3.4383406080746126 0 0 -2
1 1 135.22695512508392 127.08553205819497 3.595514558243857 0 0 1
115 1 135.83017995605903 146.57394250405144 6.833968999940123 0 0 -2
58 1 140.2876374167517 127.75448394368573 2.3494569429180068 0 0 0
84 1 144.49797295469773 129.63898874534635 3.403591060555865 0 0 2
480 1 147.8212508782113 127.865120940944 1.3722265063843642 0 0 -3
453 1 149.02739314112512 130.16537519090573 2.410173184107604 0 0 -1
52 1 136.52552383319534 129.4166254110871 3.308095927185938 0 0 -1
373 1 138.83636010129788 130.15103694591207 2.4864110719941976 0 0 -1
176 1 138.76627137286985 132.8281090916718 1.6105432521337415 0 0 -1
380 1 141.51337915504593 131.17293887479303 0.7779198743343204 0 0 0
184 1 144.46373493239992 131.52277533456908 1.4314403100314061 0 0 3
6 1 148.87708405147944 132.83944653887804 3.7965709065364743 0 0 -5
40 1 137.21010154146992 135.008611830388 2.0958906168917295 0 0 4
112 1 137.03503536481202 137.854095599132 1.0505349668248525 0 0 0
455 1 140.73415028445345 135.17007838861753 1.6038870599326314 0 0 5
141 1 143.56377871450533 134.45743318103672 1.6909086972581702 0 0 2
426 1 149.53794074588774 134.74813805462767 1.890014234720515 0 0 4
413 1 148.1097234860974 137.1833347126552 1.6363258448444413 0 0 3
280 1 144.74875659821373 138.92986112223497 3.5601796696575017 0 0 4
24 1 145.16243434531907 138.64006790920254 0.9386675150476476 0 0 1
251 1 135.35052719308825 140.8514115259389 1.0524717245995847 0 0 4
219 1 137.79535429913813 140.43825337213966 19.14043583543272 0 0 -2
178 1 138.13453636147077 141.56866940822235 3.048880334427863 0 0 -1
367 1 140.53996878196602 139.8985031091141 2.1972342991323903 0 0 -2
177 1 142.24668869364103 142.16982524889758 2.146272445236318 0 0 3
55 1 146.71585131996528 141.44601340393228 2.875177202620211 0 0 -1
202 1 150.99899459468017 140.36485314016934 1.093682055604724 0 0 -4
345 1 149.58420879890073 142.7820270434148 0.36935582330329886 0 0 0
133 1 137.22312551791475 144.3019828328245 4.400536254596713 0 0 0
246 1 138.80417631319574 142.96658160289041 0.6218619846753133 0 0 3
41 1 144.3281038200716 142.01785832528302 3.968215173292751 0 0 -4
192 1 148.07250430961187 143.4753405010494 2.5970669147134235 0 0 8
509 1 137.37190903702032 146.8700740404228 3.5156003915896887 0 0 1
38 1 135.3356715882138 143.35944092267982 2.278163421236101 0 0 2
190 1 139.22785559795128 146.40306301962826 1.5276442321240191 0 0 2
354 1 145.89216277487952 145.370523062468 2.0057190626871138 0 0 0
296 1 135.55625009274738 121.61407375735169 3.764554228752443 0 0 1
310 1 137.58231724557257 122.6389231355192 5.534143966090711 0 0 0
67 1 139.91248369707137 122.23975395233329 4.309195205342163 0 0 -2
48 1 137.3154152881779 125.73420782161932 5.410730080240917 0 0 -1
136 1 139.77567960250448 125.97550801811413 6.841483094962694 0 0 -3
314 1 140.7969843410857 124.74088566461334 4.572164554951086 0 0 -4
206 1 145.08436878963022 124.56161046761595 6.971458398206841 0 0 -2
8 1 149.37556109207745 126.03400481354231 4.837197916028494 0 0 -1
114 1 138.0404582884175 128.45637468341764 7.825340926078996 0 0 1
430 1 142.4467854374217 128.13880345254037 3.884602370412867 0 0 1
262 1 142.15441072077186 127.77020497086852 6.572499175906454 0 0 2
86 1 146.49082890070264 128.44206835982544 5.030439006729327 0 0 0
371 1 144.7214531665657 127.29604744355896 7.140825973944696 0 0 -1
291 1 148.37361280195552 130.20711027294232 5.903118528682021 0 0 4
441 1 150.39576762197885 128.6938334040085 4.1982549097578765 0 0 -3
201 1 136.99496908958736 130.4584855054205 5.869503590091333 0 0 1
167 1 136.660283435839 133.05534503501727 6.19484197530175 0 0 5
72 1 139.80224486891987 131.34663820872294 4.926394427836499 0 0 2
101 1 142.9535297912313 131.40429883367727 5.320622217224773 0 0 -4
19 1 146.18034761121632 131.95400323916638 6.72096937345646 0 0 2
349 1 146.23766840489418 132.62827494702734 3.801553350460945 0 0 0
344 1 149.9099179006236 133.99421205371766 6.11086229085957 0 0 3
5 1 140.39770601841215 134.1517700824824 5.712585410682068 0 0 4
104 1 144.15044608988313 134.47961091314016 4.320138318895575 0 0 0
10 1 142.77486846614454 134.33055751470866 7.20280758568857 0 0 3
224 1 148.37429798690255 137.59834705145795 4.565052832193587 0 0 0
243 1 145.67437590121472 136.58472537597294 4.990875735571602 0 0 5
351 1 150.35369027467368 136.86636675632943 6.446250188267664 0 0 0
256 1 137.8695706490247 137.54410555464 4.827124484521841 0 0 3
98 1 139.92045694247182 136.13360311358772 4.041472115812102 0 0 -6
235 1 141.8495784082379 138.12284527392868 3.5983536819930397 0 0 -3
20 1 147.12967733535808 139.88670693564464 5.239490392832461 0 0 2
346 1 152.10710563123243 138.91860191673004 6.041647861800264 0 0 -4
205 1 136.3128139514236 139.49061217433467 3.7880860534237595 0 0 0
482 1 136.23725668198378 149.47662071162574 11.888953621123669 0 0 0
93 1 141.53489935800883 139.37904582510242 6.03887187317385 0 0 -1
263 1 143.29434604802296 141.5752020497649 6.269949948364383 0 0 0
16 1 145.20148541224503 139.412110528389 7.0494890090210705 0 0 0
212 1 150.30890344573018 139.72349716931555 3.7305376560614785 0 0 2
123 1 149.57870970244784 141.5476955433085 5.806187892239975 0 0 1
308 1 136.13790154676235 143.7238076015488 6.9357560631274175 0 0 -2
293 1 140.16610823739947 141.79750455572395 5.248224779312617 0 0 1
419 1 140.13562653125467 145.2363736861745 5.833319115815436 0 0 -2
142 1 143.77877083382668 144.97817080001204 3.575870246436078 0 0 2
463 1 148.33770590810622 143.90913581219894 5.2997229368523735 0 0 1
306 1 138.35066711444523 147.2809669300348 6.053554841506285 0 0 2
148 1 140.85689382599017 144.57319654619715 3.1539822463189306 0 0 2
111 1 144.44739323296614 146.36625953874304 5.940148314923458 0 0 0
287 1 137.19271932558615 120.96300001104163 10.086554075044251 0 0 -2
53 1 138.67603013336583 121.69022615931101 7.960455949956525 0 0 -1
315 1 141.29852481233831 121.08908362593827 6.816742586399107 0 0 0
76 1 142.9355389550398 120.83336356838363 9.36475124070984 0 0 2
467 1 144.3317280353398 123.42945793709525 9.534540891696304 0 0 -4
294 1 147.7273737463489 125.69443035774869 7.460275178893713 0 0 1
458 1 146.65319611705453 124.94816530650564 10.693660633925132 0 0 -1
156 1 135.80506218912834 126.5476282453794 7.970251165492742 0 0 3
362 1 136.71783076331667 124.73961318387539 9.639963730835113 0 0 -4
91 1 139.50657615213154 124.25579601174138 9.362542294765374 0 0 -1
124 1 140.02452336577147 127.37875753864893 9.856705711654179 0 0 1
285 1 141.85644517207257 123.72649489841314 7.6773975125572225 0 0 -2
182 1 150.7766980124237 126.61071211661015 7.516185159968059 0 0 2
383 1 149.20868037148534 129.0606782391412 7.944101852727403 0 0 1
357 1 147.37633663370295 127.48868963199946 9.542112374248418 0 0 0
195 1 137.40499108130274 130.68038350717902 10.436960696618128 0 0 2
59 1 140.93193409205975 129.77430114323536 8.306624360424651 0 0 0
88 1 143.79357380224556 130.7655815401194 8.15412889969008 0 0 0
365 1 144.79330086090863 128.5704554170938 9.498287317728387 0 0 -1
147 1 136.43773745586 133.65440600817777 10.536304688150713 0 0 0
500 1 141.9883358379105 146.17567763454946 18.76693014971322 0 0 4
168 1 139.6298804755529 132.1241107304522 9.711201253223571 0 0 1
278 1 143.77203867336334 133.04412377662658 9.420584260250314 0 0 -3
27 1 146.2151057347366 131.0064005600889 10.2167194305922 0 0 -4
356 1 147.95961023615408 133.2818959196023 7.923054398304233 0 0 4
61 1 138.48701425301763 134.14658024986477 8.018646986733916 0 0 3
407 1 140.69578669541252 136.22524709537302 8.339428706188412 0 0 0
312 1 147.0845456053293 135.76967308523066 9.105990096304392 0 0 5
334 1 149.75180010715212 137.15415889321116 9.259604968647686 0 0 -2
106 1 138.4297172714424 138.06932262065465 7.463484227743197 0 0 -2
446 1 142.6418319513343 138.1285594747247 8.686178268151004 0 0 0
427 1 144.65354269195683 136.4583585365395 7.593421427872393 0 0 0
265 1 149.2472980283814 139.72032055835047 9.79694938052508 0 0 5
366 1 151.06405949430433 140.76754634043124 7.923306260779833 0 0 -1
376 1 136.0746421850712 135.05351617243647 19.045609000302168 0 0 -1
183 1 137.39203325797405 140.24274384728247 9.490031955396102 0 0 4
313 1 139.76613096835223 140.8962857224665 8.467459120619234 0 0 0
437 1 146.60009274269896 140.3335910564223 9.221940577925032 0 0 3
515 1 138.94572961855977 143.64051318543687 7.526269112989196 0 0 0
216 1 143.21472254591953 143.12207854472666 8.380825075751465 0 0 3
364 1 142.36185791060217 145.6955414209175 7.492064526017217 0 0 -1
134 1 145.92885772764015 143.0353506303394 9.130300806554224 0 0 -6
13 1 146.4709718695997 144.82525635266163 7.018046406012757 0 0 1
469 1 136.28490830340976 148.56377132745283 9.015941941782641 0 0 2
327 1 139.09322339928167 148.89499057250418 8.36897166802719 0 0 1
238 1 146.7565860436093 145.2640185172413 17.15086205878333 0 0 -2
276 1 138.73671694873866 120.68445521557081 12.339212083713479 0 0 -2
74 1 140.78012734847493 122.16394048162924 11.113272146009791 0 0 -1
125 1 137.11235710067083 125.94407958128829 12.096245534049233 0 0 -2
422 1 142.75727308390708 127.25954735577038 11.043541304460954 0 0 -1
456 1 143.7987288169109 124.97572403771956 12.310255172503934 0 0 1
239 1 135.1199172435844 122.85597823791362 10.380444727960484 0 0 -1
460 1 135.057912670283 127.32726678099671 13.42034144651842 0 0 -3
47 1 138.52215504088974 128.52613977686943 11.807558672668122 0 0 -3
12 1 142.57629154856585 128.7170569047535 13.515614074987573 0 0 -1
242 1 145.35036729168388 129.60963412230805 12.652645375570183 0 0 -2
518 1 147.3520633794805 128.27525664479032 13.488159734621012 0 0 -1
85 1 149.17888269531994 128.4525528101684 11.395752295062442 0 0 0
129 1 136.09154741903066 131.18436477670176 13.032074788524529 0 0 -2
160 1 140.67999603694722 130.6065178397256 12.513839576460805 0 0 2
481 1 148.87168921020998 131.24376899201 10.202047521033627 0 0 1
90 1 148.7171815529627 133.3656109789201 12.153529930839055 0 0 0
436 1 136.65794344641563 136.53161781888946 8.89086399851123 0 0 4
122 1 137.85399316064098 135.64232146568858 12.020608257319797 0 0 1
46 1 140.21963354853423 135.4955622477888 11.059851489016827 0 0 -3
259 1 141.7476602114901 132.99667602706148 11.316182216408372 0 0 -1
472 1 146.09607210308417 133.83207493300048 11.10414823581 0 0 4
415 1 150.5886236140943 135.32872682273248 11.269185630854192 0 0 -1
484 1 136.4939183435919 138.07174004069284 11.377956667768244 0 0 -1
322 1 141.2381967051381 137.50975665354855 12.724714929270688 0 0 -3
359 1 142.429412450956 139.38620217171604 11.144745564307279 0 0 1
275 1 146.46170360088942 136.76379427100142 12.267263013707026 0 0 -2
451 1 145.43303014283745 139.32816262738308 11.379710286091345 0 0 -5
149 1 149.2049825824361 136.95389884199113 13.284811995869111 0 0 4
318 1 150.01241750742636 139.31055613291713 12.387105292908476 0 0 3
274 1 138.001974085764 140.59596571131985 12.688327702242015 0 0 3
70 1 141.5640661694598 141.8598188903049 10.562436197455666 0 0 2
31 1 144.18567731949705 140.91529209172472 13.561721049985783 0 0 1
62 1 147.27021335964258 140.60997130512536 13.275768087542705 0 0 -2
302 1 139.4921654045194 144.67814211472648 10.352933019020202 0 0 -1
35 1 139.8001938114518 142.9146178600938 12.583481843531388 0 0 2
158 1 143.0030741302487 145.60311548146234 12.733295956645211 0 0 1
369 1 144.00884815159435 143.2899918416131 11.796358890717778 0 0 3
198 1 146.35682027175486 144.85864285975063 11.37455073024525 0 0 -3
319 1 137.42695912439203 146.38334110161588 10.557484377290468 0 0 0
71 1 141.63173077927442 146.4766835635109 10.469764023470546 0 0 1
468 1 145.39576404550306 147.13253199900896 12.523405155306628 0 0 7
396 1 138.77520279729677 148.33138113835193 12.188997446179181 0 0 1
477 1 140.81269888616256 149.01210623081596 10.438567931775573 0 0 2
78 1 137.44271702891982 122.31182515639746 14.121477694683582 0 0 1
250 1 138.3775396523115 121.68567038294982 16.510033211322728 0 0 1
395 1 140.98043059339074 122.04946675281376 16.05141131004559 0 0 0