LAMMPS data file via write_data, version 29 Oct 2020, timestep = 2500000

519 atoms
1 atom types

2.9476800912531758 267.0523199087543 xlo xhi
2.9476800912531758 267.0523199087543 ylo yhi
0.21834667342635683 19.781653326573892 zlo zhi

Masses

1 18.015

Atoms # atomic

192 1 46.40388588312258 39.15650184992142 19.579771201656445 0 0 -3
344 1 50.31333936306973 37.57346341057885 3.239935422668681 0 0 1
252 1 55.11469487921728 37.41825530552162 2.1306154552373897 0 0 1
235 1 56.84219390143606 39.50122572420528 3.0835819925427836 0 0 0
207 1 59.13676564451198 38.59047366519797 1.5055770996233164 0 0 -1
389 1 40.688228566284735 41.73034706081048 1.5756230769476096 0 0 -1
399 1 42.22142687136941 39.43375407288823 1.3292501664260834 0 0 0
314 1 44.9905242395744 39.87865342849223 2.140468386340617 0 0 1
346 1 50.23956202893629 39.81294503237562 1.7696970516287518 0 0 -1
253 1 54.138986712239394 39.61843303476601 0.5428333522120379 0 0 0
368 1 56.573166653676864 40.71846088764757 18.68113156183777 0 0 2
3 1 56.626190232582545 41.98497503210669 1.9395677487630176 0 0 -3
352 1 61.96739850040333 42.698492104024524 2.5883312989412146 0 0 0
435 1 46.26366152424599 43.584267761667114 19.733391207473304 0 0 -4
259 1 50.71782346604504 45.5362349693673 0.6265202267673653 0 0 1
176 1 49.37597933494062 43.73228819548058 2.5107301078145947 0 0 3
475 1 54.42564632121124 43.93348992216431 2.1148522146645985 0 0 3
436 1 59.312301285478775 43.12770275452283 1.598678379028111 0 0 3
411 1 64.03160974709321 44.80669810249825 1.9628203947461174 0 0 3
504 1 38.79702716882215 46.98740163244362 1.482097141643186 0 0 2
85 1 39.08581545379406 47.69246374274922 4.270792872272357 0 0 1
155 1 43.01702076954626 45.86266505961496 2.374730628505837 0 0 -2
67 1 46.24818868961166 46.177017332229745 1.375530828129132 0 0 -1
267 1 50.23537168308515 48.42862735694381 0.6325520687439999 0 0 2
355 1 54.904076028034304 46.81845034100955 2.75227647962596 0 0 -2
392 1 57.65422866939275 47.24782498959748 3.8923543181531497 0 0 -1
140 1 59.27713141853241 45.992650049571175 1.8588754140912394 0 0 2
148 1 61.98599032575226 46.426894643962264 3.0224266901055463 0 0 2
328 1 61.4158765279605 47.79347426477247 0.48959639423128043 0 0 1
286 1 66.35198234651298 45.61302385589442 3.440766011468727 0 0 1
315 1 35.42927793940699 50.50139027381602 1.7449895277591112 0 0 1
454 1 41.5868689356651 48.38983427940546 3.190187974688045 0 0 1
215 1 42.33384307979762 49.976468973816864 0.9311728971545691 0 0 1
478 1 47.471574015439344 48.550054492292304 0.29973935639526417 0 0 2
362 1 46.825168054582875 50.70421743321493 1.5607345287290701 0 0 -1
487 1 51.57617470117321 50.973045382076634 1.3818119783149738 0 0 1
171 1 54.266556289248854 49.88944159984877 1.5071085296878184 0 0 2
308 1 58.34545627804166 50.16357021299116 3.5121880170634596 0 0 3
156 1 60.74662418667285 50.42018925932441 1.7640781136888275 0 0 1
160 1 63.260103394110466 49.73023714076451 3.213617198633838 0 0 3
109 1 65.39660885130455 48.00088250378487 1.9829786768555246 0 0 0
82 1 36.363375028111555 53.02555937874656 0.9507301614337964 0 0 -4
343 1 40.68125525571479 52.215977764612106 0.9150847949465883 0 0 -3
450 1 44.37279292329626 51.72195401343643 0.8129529378703115 0 0 0
131 1 48.12544203831305 53.18654516889022 0.8230094500050461 0 0 3
335 1 56.89390792848673 53.71307255598367 2.3291604865813578 0 0 0
86 1 61.47407024227491 53.41675903264022 1.836308743512994 0 0 2
118 1 66.58190442195992 52.414702720923295 2.9833406055884244 0 0 -1
61 1 38.15232651446294 54.41348087918169 2.752761909205637 0 0 2
278 1 39.856650152876114 56.38567683806249 1.849359059301286 0 0 2
221 1 41.88069513776402 54.59258337180378 0.6288441026646743 0 0 1
194 1 44.05092618375927 54.213235713074255 1.883847887018475 0 0 1
240 1 46.71754788923533 55.277899344409434 2.080910534332262 0 0 0
254 1 47.44329921580306 57.477188844809035 19.74575165890179 0 0 1
410 1 52.535914876292935 55.63619113452756 2.2083504090777217 0 0 -1
401 1 55.13642843549717 55.50753135328265 1.2472270817287727 0 0 -1
455 1 57.63797407140929 56.88686219334187 4.899700045830029 0 0 0
356 1 59.34698203285553 54.68257052822943 1.0864485923755534 0 0 0
470 1 62.1256779902167 58.28861933696285 4.712541473272245 0 0 3
108 1 65.51775073997774 56.93735483030892 2.962932491902877 0 0 1
290 1 43.10513725502711 59.20399721385355 1.1521102218400847 0 0 1
458 1 42.08942876685655 58.88604552553597 3.9609159305245467 0 0 -2
153 1 48.064830411581184 59.5191864385407 2.023455710399879 0 0 1
106 1 52.36402530925127 58.13372529427618 3.128148398385456 0 0 0
120 1 50.80583886545373 59.86354579461023 1.4091167513807157 0 0 2
369 1 55.64812283187944 58.510374508185 1.413643404077202 0 0 2
245 1 58.13595210954937 58.99007106180214 2.9388024241012767 0 0 0
412 1 61.838797454914086 58.52427338974766 2.1437053919173286 0 0 2
462 1 64.64979193386526 59.27658580436306 1.1386696344421117 0 0 2
138 1 47.98902480637402 62.27443674730742 0.9351234516746796 0 0 -1
309 1 50.602983479054714 62.64449915886672 1.902606399412207 0 0 0
190 1 54.34828232124944 60.14610276451024 2.829350286781328 0 0 -1
350 1 51.6764338646347 63.95995706384299 18.986585354463603 0 0 -3
76 1 54.89043007808447 62.59947597256178 1.3724753366824907 0 0 1
173 1 60.700027257392875 60.87354160507664 2.1914705655276383 0 0 1
205 1 57.78221022581099 62.20853885048288 1.2872327823105798 0 0 1
339 1 63.95723998205281 61.34619832247781 3.0267669948701723 0 0 2
341 1 47.995413539559685 64.52084764453241 3.340266689410793 0 0 2
426 1 50.42947532787121 64.62179486761094 16.435296005294912 0 0 0
506 1 54.00972889916037 64.7213640729115 2.641614793550812 0 0 0
191 1 55.883669509075304 66.54273838303519 2.089049646409002 0 0 0
73 1 58.23814191836785 64.75738881622054 2.1339230525171353 0 0 2
115 1 45.76186703259182 38.17122814035285 3.999672990174036 0 0 -1
246 1 48.271814638819684 38.511064628954635 4.857581901855797 0 0 -1
112 1 52.863185706842025 37.31379483331218 4.264528121352685 0 0 3
340 1 52.65769455166578 36.31384592447109 6.651760035517848 0 0 5
223 1 56.14939912346497 39.245850355823656 5.7816060074236875 0 0 0
280 1 45.97854157398975 42.555375967525315 2.915428604813578 0 0 -1
342 1 48.40772490249862 41.364728644512695 3.7173611631023094 0 0 3
139 1 52.615857155414226 40.639673363556504 2.8839035724307407 0 0 1
283 1 53.47099059566038 39.6536639392102 5.222825957407116 0 0 0
164 1 62.068090333996814 41.72880104147367 6.86200033490732 0 0 2
146 1 41.94194791832638 43.36055254017632 3.559416366823118 0 0 1
268 1 44.16255953183393 42.20793210270636 4.726851120879815 0 0 0
303 1 52.059122934128055 43.20231284205119 3.484944116205277 0 0 0
258 1 52.42336413384468 43.05268022944241 6.205072937923487 0 0 1
270 1 55.713056741393764 46.001823249016766 6.621547573562026 0 0 2
390 1 57.756596000983045 42.42045076352533 4.635795784852816 0 0 1
8 1 56.36232700168738 44.602260622656246 4.456152731643407 0 0 2
385 1 60.24171999208763 42.8012768582729 4.886710107617456 0 0 0
307 1 61.4823263897455 45.231581828444725 6.098001838671656 0 0 0
365 1 63.829501878465514 44.13500397031684 6.897861896847462 0 0 3
7 1 39.84239973120699 44.86252253653192 4.869715691655357 0 0 0
507 1 45.10223514978523 46.42956222047005 4.324623430318732 0 0 -1
77 1 48.06730517798472 45.848621102097496 3.965242429055295 0 0 1
234 1 50.11803132013348 47.80144843677571 3.3595395922162554 0 0 0
432 1 52.34788722586046 46.234930015278294 3.8909170363455887 0 0 1
36 1 53.4612616382301 47.535500761415456 5.958281060494902 0 0 -2
338 1 58.85631045510665 48.52121702857927 6.271507777834473 0 0 4
333 1 61.41454712712908 48.76052286187003 7.301600342989894 0 0 0
151 1 62.78211513001569 48.01176780237987 5.218346705050178 0 0 -2
219 1 65.05703623449621 46.58442784877867 6.129236796907906 0 0 -1
376 1 37.19268692394663 50.535572168434705 4.162250508675333 0 0 -3
184 1 37.794069825288474 49.07810126691409 6.617783398408512 0 0 3
471 1 42.66671271506235 49.76649368738095 5.1985255354437045 0 0 2
489 1 45.12827823389415 48.95658599803399 5.150640903081437 0 0 -2
516 1 47.180825201386384 50.61415381343883 4.401966010226997 0 0 -2
264 1 51.42991625801581 51.342006698078826 4.039906634984679 0 0 3
467 1 49.502280781744105 50.0232682747714 5.365487768852687 0 0 1
37 1 53.65291794644063 49.923416237098024 4.3576384435669935 0 0 2
35 1 54.54489376483858 51.33635150399302 6.62786480100499 0 0 1
181 1 62.17517564482149 51.27509299422065 8.008713004931403 0 0 2
304 1 64.93182203395449 51.458530287003406 7.298423705292826 0 0 -2
66 1 35.757603285453655 52.42289039763918 5.839435362353594 0 0 0
437 1 39.514355614910784 51.9447670901387 3.5995109575695614 0 0 1
137 1 41.65780391051679 52.35611955787427 5.7545719592438624 0 0 -2
71 1 43.31281242597994 54.276038879825265 4.503463066406992 0 0 -1
53 1 46.68138477977801 52.8738248157175 5.857891085288966 0 0 0
325 1 52.11160005786028 54.02579409446212 4.509245188876485 0 0 0
114 1 54.05278686964313 54.18777108308607 6.2360603155261085 0 0 0
206 1 56.53732182927745 54.16203321431338 5.189695764918928 0 0 -1
121 1 58.59869829480239 52.17118878354252 5.40237282447054 0 0 3
490 1 61.161526427928116 53.07610672707532 6.315513257150824 0 0 2
186 1 62.7782995139018 53.610867881687916 4.128580055318337 0 0 2
377 1 64.6517304719304 51.649732638290544 4.499456249903719 0 0 2
100 1 36.919080430257665 54.97238288284489 5.33786034346782 0 0 -3
473 1 41.235311600716095 56.38420377305853 4.287722766656168 0 0 4
373 1 47.440618087966286 55.383740098809824 4.822117416836129 0 0 1
196 1 49.968161660135735 55.13638714008069 6.030269910556144 0 0 1
363 1 53.92053214999975 56.7431272183719 7.656818933252033 0 0 2
347 1 56.027733817637255 58.10627774517135 6.479011299159363 0 0 1
98 1 59.8833222238282 57.62590176500978 6.348957299901445 0 0 -1
130 1 62.92094366785304 60.6479969459599 5.544142488900626 0 0 -1
13 1 63.85495994279183 55.93069500872375 5.154903147835633 0 0 2
217 1 44.21596102133105 59.39530185700423 5.63555713651051 0 0 1
143 1 44.108869903488994 55.56465413652963 6.929553503062033 0 0 1
113 1 47.467982035052664 59.812634593918645 4.72648701692571 0 0 -3
19 1 46.300849136147974 57.369537720104 6.122144255860345 0 0 1
135 1 51.88648684111173 58.00828628237408 6.121453427749454 0 0 1
60 1 52.497737380003606 60.85959456433709 6.39816527733881 0 0 -1
30 1 55.099913678026496 60.519345250834185 5.50227054768114 0 0 0
89 1 57.41975240560632 62.01180092855108 4.142741249733206 0 0 -1
433 1 59.831274740239934 61.10451433865011 7.391418971114094 0 0 -4
216 1 60.56147891735246 62.40149598206092 4.603602581237307 0 0 1
301 1 65.61388148858266 60.170402902307096 6.4136849918735175 0 0 0
103 1 44.98857712026136 62.20910677265311 5.646572015880149 0 0 -1
461 1 47.82403751793734 62.46203265685834 5.00528332946041 0 0 -3
68 1 50.599218032955235 62.14157131261319 4.910428452338824 0 0 0
167 1 55.37908600019731 64.11694343039441 5.22696896349856 0 0 -1
55 1 58.087372312237775 63.47964105273132 6.917604388899917 0 0 1
476 1 62.86461844617309 63.96583715969918 2.765785567654636 0 0 -1
208 1 66.25072905352177 62.32173810249834 4.568052525984154 0 0 0
417 1 50.57366031846654 65.35659694705453 3.258804860665727 0 0 0
423 1 51.379217027234006 64.51004092023756 5.804548165612812 0 0 -4
429 1 52.12438061463849 66.1651893142478 1.0145244315467854 0 0 -1
420 1 53.85123179329713 64.26255435310786 7.3513647996021945 0 0 -2
266 1 59.649406150541076 65.19287506885264 4.5706716773301395 0 0 3
2 1 65.25283066018099 64.63865520479881 6.047267145436645 0 0 1
318 1 62.4722535507638 65.3520214205452 5.270107542659676 0 0 0
136 1 57.073341920815025 66.44381790605077 5.842520360075539 0 0 0
119 1 43.73864922645204 38.51327634139682 8.333091712822162 0 0 1
39 1 48.17815954557582 37.69256066196631 7.608144321351375 0 0 -1
430 1 45.929793603366576 37.29192417945365 9.341422707732148 0 0 -1
276 1 50.877534237604976 37.49266781424632 8.407889137335859 0 0 -4
502 1 55.020016552180756 37.43701415542874 7.782238092138647 0 0 1
366 1 44.862792846332106 39.79995595789946 5.978568681901767 0 0 1
457 1 47.06237596526359 40.31719060953931 7.37917739339008 0 0 -2
238 1 49.43236479915522 41.72738771806812 6.355669919631664 0 0 2
149 1 51.80360097672318 40.0613734047315 7.367487187729276 0 0 0
359 1 56.8298159568878 41.6666155313559 6.894403813754303 0 0 0
193 1 60.700724054956254 41.119300172539994 9.225454450300726 0 0 -1
277 1 37.91690844527904 44.69679862359298 6.786747947002368 0 0 0
484 1 44.00284627104151 44.13459956544333 6.624248361648295 0 0 -1
5 1 46.586582082465625 45.37502280243208 6.968183653130988 0 0 0
492 1 48.86657784486744 44.031071055218746 7.939269798955644 0 0 1
124 1 54.95878319131238 43.64745734601593 7.557462875327002 0 0 -3
48 1 54.2846592473369 43.25016271349288 10.186423189158974 0 0 2
434 1 58.706637523309176 42.66119800112254 8.941535670133508 0 0 5
92 1 63.61545241071253 44.72658317033762 9.603120738819873 0 0 -1
168 1 37.32880917451891 46.81473985643026 8.297539767920242 0 0 0
231 1 40.44577281575216 47.103076192035054 9.48062673987949 0 0 2
302 1 40.795324323144285 48.52583616480328 7.03470856865705 0 0 1
440 1 41.89280297622735 46.02849393148505 6.247525387175803 0 0 -2
260 1 43.3394121890288 46.981910056365486 9.05269317802687 0 0 -1
102 1 46.32840218740493 46.793934199712275 9.328141028144435 0 0 -2
87 1 51.47603126433097 45.563588316209156 7.376658286252832 0 0 -2
383 1 57.77505880493858 46.78410663283014 8.259314376522918 0 0 2
248 1 59.973661826741875 45.27471446997772 8.648245747135764 0 0 0
84 1 62.61602281456034 47.29006109672394 9.447939627481633 0 0 -2
322 1 42.452637224659746 50.8637610460439 8.4153467305836 0 0 2
9 1 45.11548585693589 49.44451240061721 7.942467837853112 0 0 2
445 1 47.27766652180594 50.50619466936458 8.895859933673979 0 0 1
367 1 48.742649516720185 48.128999790261666 10.022485159236883 0 0 0
312 1 50.20321414304803 48.27400958843541 7.681108964248733 0 0 -2
239 1 53.185945740558246 49.37765966426583 8.448057684839839 0 0 0
233 1 56.99708406940427 50.485107286892806 7.0114383485906275 0 0 1
204 1 57.86071920660823 51.70166154738818 9.419248366728347 0 0 2
180 1 65.31709438232028 48.14249921585739 10.113221885984425 0 0 2
415 1 65.68638099513176 48.75651141777788 7.521368242680537 0 0 2
409 1 35.96352843207672 53.62329101934217 9.55666075801346 0 0 1
95 1 37.617529342497946 51.5404110884106 8.166739555416553 0 0 -1
397 1 40.03815425462702 53.043234339927054 8.005314541792893 0 0 -1
11 1 44.53971998077829 52.789086577232375 7.661176242842466 0 0 0
31 1 48.915049882073276 52.40157918088819 7.496160407249617 0 0 1
218 1 51.36374136537884 51.591779313061146 8.649471669069703 0 0 3
306 1 53.488970539499384 53.53824175802032 9.177229035000122 0 0 1
360 1 59.72459075343314 53.78588108963338 9.761276403584581 0 0 -2
370 1 62.195576726400965 52.6107436933824 10.415723083111432 0 0 -1
292 1 64.73476201274565 53.460486782504915 9.32047480536788 0 0 -1
319 1 36.0155401481448 55.86289324866451 7.888737343979918 0 0 -2
163 1 38.51585558334129 57.10636455378673 8.885844133308565 0 0 -3
465 1 39.58805401553245 55.63139968285009 6.755780966546774 0 0 1
403 1 41.87649445343263 56.338937375954785 8.46362402130179 0 0 1
174 1 47.08982374707222 55.91485042853169 10.585557892796768 0 0 -1
295 1 49.2234954359175 54.94111195000033 9.05140769185667 0 0 1
323 1 51.586101286257446 56.19017724770252 9.128255299977202 0 0 0
394 1 58.33969203270155 58.56409865128389 8.604249936509515 0 0 1
105 1 56.606391851680286 56.30014661730115 9.10593970995115 0 0 0
361 1 61.17890094483786 55.41969113164847 7.522150011264989 0 0 0
395 1 62.450126636993645 58.20227095666883 9.711355088912784 0 0 3
404 1 63.94442640235822 56.03508646167564 8.118702288449386 0 0 2
162 1 45.26363557417654 60.05383766792142 9.847245820307267 0 0 1
498 1 42.98932718827264 60.425553816888446 8.34356061843729 0 0 0
297 1 49.226110454026866 58.91317341416921 6.793951332706384 0 0 -1
94 1 46.8176934568705 58.18556352218327 8.774453247732053 0 0 0
220 1 50.24647004096406 58.47385681559809 10.62529815079345 0 0 1
64 1 56.815077191770555 60.299149285949944 10.197168094910303 0 0 1
285 1 61.32377929477666 62.110150709867604 11.96369757803613 0 0 -3
261 1 61.972957372747764 60.96976436308632 9.388981147532606 0 0 -1
52 1 66.19146641318505 57.547475208462444 7.5664678532370795 0 0 0
125 1 44.220659393465844 63.249190239914796 8.175224680657763 0 0 -1
439 1 47.84214381954434 63.19939312820442 7.7731543270597285 0 0 4
175 1 49.75859881888411 60.894560649453055 8.802609570007613 0 0 -1
222 1 51.33099967163595 65.2254754626879 10.222385459174602 0 0 1
508 1 52.02991142947318 62.429340238725345 8.720382048694642 0 0 -2
145 1 55.88948840936023 62.130961336044436 8.091377462977592 0 0 3
405 1 58.91395920952801 62.40926270876663 10.077700642207704 0 0 1
58 1 62.38004148423637 63.44854604742915 7.343744830621762 0 0 3
379 1 64.71599685897982 60.896737606387475 8.916486975197603 0 0 1
331 1 49.62299151928377 65.45659206143777 7.931056331756417 0 0 0
117 1 58.93270434589636 65.25435029809177 9.078988256457002 0 0 -1
509 1 56.88999974401337 66.8912798990299 8.603353309255333 0 0 0
485 1 61.570659950582865 66.11103488818999 8.109530794034873 0 0 1
500 1 64.59022053925231 63.87678249486584 8.7758544476901 0 0 0
320 1 54.215082301798965 66.40207172967716 9.299627271442473 0 0 1
329 1 46.95070747853754 38.47156691094024 11.607655597253121 0 0 -1
185 1 50.96955996074136 36.48590138461342 10.920233041518571 0 0 0
96 1 49.571623958530985 38.28104382173132 12.353166138918109 0 0 -1
427 1 53.52277741674771 36.48552152553525 12.136065697152993 0 0 1
272 1 54.667482689605805 38.61129912102627 10.474415044693043 0 0 2
144 1 43.301340437083 40.65780804363771 9.787626214492066 0 0 3
65 1 46.90777385359808 40.68811347190078 10.300906380725449 0 0 1
396 1 51.04454439331639 40.47075099992192 11.939930196779638 0 0 1
354 1 52.82151607778598 40.74206160677483 9.84584464481696 0 0 0
232 1 56.539026386291816 40.268694420465955 11.944514150104183 0 0 1
480 1 59.56264226601299 42.39380365125284 12.933138093191143 0 0 3
495 1 39.853978229526845 43.96277437644562 11.540005483571056 0 0 0
111 1 39.9257833142918 43.94201695276286 8.881113483417382 0 0 0
147 1 42.69341291277 43.38703711790777 8.791783012145938 0 0 -2
271 1 48.2695275387739 43.32909891306327 10.495592749327187 0 0 0
159 1 52.58822216396584 45.46901089991878 10.064591473799624 0 0 3
351 1 57.11344654825797 42.71242558106315 11.213486379284694 0 0 -2
371 1 57.49689718783371 45.29801113726138 12.14986369092556 0 0 -1
74 1 61.987463976499505 42.8440982675639 11.05373653775251 0 0 0
357 1 38.97954167206784 46.4719660036293 12.322408809760347 0 0 -2
469 1 36.47458087137358 47.11475893900719 11.111996576053773 0 0 1
242 1 42.61648768731659 48.005655010772884 11.730422536309227 0 0 0
422 1 44.62556357794564 46.79129987199811 13.413701605413447 0 0 1
472 1 47.07846603257654 45.63793745889248 11.95938750541954 0 0 -2
134 1 51.49659440965791 45.12763578829561 12.573698025068898 0 0 2
210 1 49.28805356248267 46.646462765688355 13.0589981884702 0 0 0
497 1 54.13821079554412 47.71961313288168 10.389588386850967 0 0 2
474 1 56.91373717710518 47.61203898975833 10.73527693444551 0 0 3
449 1 60.54398042999622 45.126050164620246 11.374375802157664 0 0 -2
491 1 61.00303041823606 48.395264859929064 11.49848784793543 0 0 3
281 1 61.73074824867121 46.65721652095709 13.70272545805317 0 0 2
24 1 66.07721963618795 45.72391582652785 10.632360070822777 0 0 0
38 1 66.14767589574373 45.278933747063455 13.334242747731922 0 0 1
29 1 33.31990907307965 50.256305360720866 11.438649693572248 0 0 -1
107 1 35.01320991547606 48.69649731506212 12.80205331901499 0 0 -1
101 1 38.15994966644429 49.42184164267675 10.224429530423802 0 0 0
499 1 43.423419055093696 50.63362352721921 11.099239325514887 0 0 1
317 1 49.454625713351305 49.1152631974837 12.397027023746853 0 0 -2
503 1 51.88514167305189 49.552983379375796 13.900248244287305 0 0 -1
228 1 54.41755012410325 49.77294098356826 12.470456574576975 0 0 0
438 1 58.45359744503916 49.733841489953534 11.526703284242265 0 0 2
110 1 62.71514793530898 50.65220560749155 12.345390840973083 0 0 -1
482 1 65.60862289091955 50.080628060942345 12.057704720308385 0 0 3
510 1 67.7625427328285 49.02583480254471 13.82426424617636 0 0 3
203 1 33.92546078635546 52.90087792990084 11.67026035514072 0 0 -1
25 1 37.83015126023525 53.58208707455837 11.699504941457311 0 0 -3
460 1 41.40148862914347 53.97298558504648 10.301605946265331 0 0 -4
224 1 44.28284207080789 54.782039154247855 10.208594051806863 0 0 1
81 1 45.73659970930432 52.17075292682579 10.234854248915225 0 0 1
179 1 50.8799159052721 51.38385276573362 11.29940569882978 0 0 1
296 1 55.28022528440367 52.36054302072427 11.048907387888589 0 0 1
380 1 55.871883281896146 54.8043209152984 12.107664231493539 0 0 0
225 1 66.39179604818953 52.72602589052153 11.663308210809639 0 0 -3
451 1 39.356327474996185 55.66810585679239 10.99674433154332 0 0 -3
428 1 40.507126533467954 56.27743152420314 13.569681771103664 0 0 -4
90 1 44.19924471290227 55.955210971010516 12.734976210406089 0 0 0
483 1 47.13365516950924 57.39167676350033 12.960177976716249 0 0 -2
187 1 50.16527852727735 53.94945824389238 11.617469293812032 0 0 -3
150 1 52.920162832935695 55.429747602977635 11.641857532269054 0 0 -3
442 1 55.66742537606664 57.74163865954165 11.282735653618724 0 0 2
481 1 58.83053848605287 54.9815162249102 11.869917243282927 0 0 -2
293 1 59.71281848122088 57.618790313082464 11.050101966173694 0 0 -3
126 1 62.12459428980324 56.27852847568701 11.872511643015953 0 0 -1
443 1 41.27049253490857 58.8118731823224 9.754295543413521 0 0 0
518 1 42.35413882050016 57.90129063474349 12.244346060611145 0 0 0
165 1 44.96228775845396 59.04991930062616 12.543482090418083 0 0 -1
97 1 49.3058055246668 59.454708513814786 13.028626706562294 0 0 -1
452 1 53.03147650870488 58.803092126457145 11.2043470578131 0 0 -3
178 1 53.848708529101884 61.27787074298843 10.293671990621736 0 0 -1
237 1 59.22648606264079 60.0937766012136 12.717050421426393 0 0 2
78 1 60.75006590861291 60.30527137139366 15.138789839796058 0 0 0
127 1 65.3443578216544 58.480395412132076 10.111555940559564 0 0 1
14 1 63.93250530810532 58.3465812029309 12.790236711542192 0 0 1
374 1 48.676497425178056 61.56828917070545 11.464961908808592 0 0 -4
70 1 49.62407015149619 63.87156221352045 12.137846333448687 0 0 0
284 1 54.93147114759302 63.259374555623324 12.370617631702965 0 0 -1
16 1 57.979274930304165 62.6781140831395 13.265525010788913 0 0 0
274 1 59.424999721577315 62.73054049261364 15.637109796545078 0 0 0
57 1 63.06430501868383 60.593028518283646 13.866167844583407 0 0 -2
132 1 46.17576644626204 62.78849383340326 10.051349951760143 0 0 -1
402 1 45.42402185967746 63.153674060915776 12.643285277569825 0 0 0
166 1 52.108522557257935 66.910645750906 12.494640109328955 0 0 0
63 1 54.75511114683581 66.25014846044148 12.187235183715524 0 0 -2
398 1 57.00808815604697 66.96046671617376 13.38470290149483 0 0 1
28 1 58.699565378170924 65.03025428804618 12.065666308574995 0 0 -2
72 1 61.53380694209423 65.0026939824045 12.034381550906613 0 0 1
424 1 63.64409415191565 66.17698488877711 10.095932278122609 0 0 1
158 1 44.608351909746965 38.30414368185445 13.272738015852358 0 0 -2
407 1 50.16892949245633 38.11227467803657 15.083804762191772 0 0 -1
294 1 54.12215698994738 37.19996756358197 14.85214236999587 0 0 -2
316 1 56.18376984768543 39.1070340696264 15.71136485769423 0 0 -3
247 1 58.55368755020526 39.75886041946462 13.867535316641009 0 0 -1
279 1 42.20346647377858 41.35755336167536 14.094894481885035 0 0 0
49 1 42.51281115818155 39.50348833219885 12.212533850378774 0 0 0
515 1 44.72188015408637 41.95856364410925 11.842549828100971 0 0 -1
202 1 48.67345766054153 42.444049028811826 15.03166920439479 0 0 1
250 1 52.36164360996174 39.76714479605823 14.191029946300567 0 0 4
123 1 54.834217060203436 41.19581992129818 13.998475216142934 0 0 2
406 1 61.07512640826868 40.27161156221085 15.396544189988768 0 0 1
372 1 42.25274686771247 43.89979285809586 12.981244370417263 0 0 0
209 1 42.1028964159574 45.57413051531329 15.088228398784793 0 0 3
327 1 44.018175157718105 44.559089070848316 10.812381229315733 0 0 -2
391 1 50.007040136485536 42.8478282542913 12.529705138758088 0 0 -1
199 1 54.692901686029934 43.96716292468774 13.253832693574317 0 0 -1
425 1 58.149040767850586 45.28956924531581 14.882722647626565 0 0 0
486 1 62.36805895076685 42.48123199928078 14.121627516660359 0 0 0
299 1 60.75463569701977 44.56615027737461 15.075963543354725 0 0 1
69 1 64.97235007951708 43.282594222939366 14.316923639707506 0 0 0
32 1 38.938162089728856 49.18415521629952 15.844612037680355 0 0 0
21 1 40.76554774507344 47.93095713850809 13.925865190325109 0 0 -4
195 1 46.49170628458223 43.311880907046024 13.696310098547174 0 0 -2
17 1 48.25472949221223 46.225679703525266 15.938903209136885 0 0 1
416 1 51.150404547439706 47.35970681521091 15.515794104755471 0 0 1
42 1 53.01505106376777 45.40767681770893 14.995875358351475 0 0 -1
448 1 54.740654718139616 47.983731240110615 15.002447995099777 0 0 2
375 1 58.56236247769842 47.90541455402291 14.543100314020137 0 0 -2
400 1 64.30366268914227 47.18582113436579 14.278630522543278 0 0 -2
15 1 67.9968036770957 46.38140572818849 14.809881888759335 0 0 -1
364 1 66.59922804470654 45.961608826644316 17.126175612573213 0 0 -5
45 1 36.87629440780079 50.31098835159777 13.931926253050596 0 0 -3
6 1 38.86260611069913 51.02597346845057 12.245682874822002 0 0 1
273 1 45.001983825273314 49.34377353816744 14.361936533315484 0 0 -1
197 1 42.54014493781356 50.20679303567422 14.557964491078945 0 0 0
128 1 47.68748562171811 50.731276010262114 13.556989689711836 0 0 -1
129 1 48.82293568600087 51.5508028103028 16.09777115008143 0 0 1
169 1 51.40472606971563 52.52257365419387 15.476084230891662 0 0 -2
256 1 56.92071073388374 50.24709132874753 14.151702099218793 0 0 -1
505 1 61.07036040447206 48.46927016035533 16.10988515806263 0 0 -1
122 1 57.01391214634373 51.893116120058785 16.184092357694876 0 0 0
18 1 62.670955209028975 50.63547383285409 16.841444703809582 0 0 -2
170 1 64.91107977905435 48.32730314586282 16.942461938268565 0 0 -1
300 1 67.25615583703852 49.837138369530265 16.47823560495657 0 0 0
4 1 35.768827358792606 52.98134836659827 13.830958725130218 0 0 -2
40 1 37.15037327756477 54.15940503572842 16.01087390564645 0 0 3
243 1 41.882009211100666 52.09803050759846 12.738523535981718 0 0 -1
446 1 42.250400909362384 52.1804554112234 16.727028009017577 0 0 1
334 1 42.633068608654106 54.297318403113366 14.458265155660511 0 0 1
382 1 45.829929710279735 54.09943597681517 14.57759838925303 0 0 -3
34 1 47.5055307744173 53.25311950091932 12.156949582843906 0 0 3
75 1 50.73863491193377 55.001299238690024 14.4126133245455 0 0 2
99 1 53.168461545570935 52.6508874552834 12.992854593765687 0 0 3
441 1 54.42543413523121 54.63951525936029 14.993317889419075 0 0 0
358 1 58.52504613320062 54.23559702520901 15.943790759900278 0 0 -1
468 1 60.001549224632356 53.386871476001254 13.808667141427769 0 0 -6
262 1 62.554335668489145 52.28191391771478 14.707661421911697 0 0 -3
419 1 64.98873580469494 53.61222631009485 14.356558930198617 0 0 -1
418 1 66.8047340534774 53.06652204894525 16.70371560067713 0 0 0
229 1 38.71725168994299 56.409337729373895 15.81337057848652 0 0 4
93 1 52.52557603581374 56.68223743734938 15.384204075118875 0 0 1
88 1 58.113476687328586 56.99085711088237 15.65285127204163 0 0 -3
386 1 62.06843275705969 55.463480788746054 14.732371375151565 0 0 1
353 1 65.15194132173676 56.47626581413888 14.368103851516384 0 0 2
348 1 65.10073488227292 57.046775038504705 17.049115970082795 0 0 0
464 1 42.746797075893305 58.73403228694209 15.24406517113814 0 0 0
141 1 45.29083997822298 57.357745921548855 15.61596155704733 0 0 -1
79 1 52.4729228226697 58.88645227555684 14.029657358896223 0 0 -3
493 1 50.55245133149974 60.73410078500998 15.260793565097906 0 0 2
200 1 54.844788924168526 60.3062102463689 14.784978564770517 0 0 -3
288 1 56.98902967291529 58.630855393044094 13.56345212061301 0 0 -2
241 1 60.61370436121837 57.54356181583434 15.75588763611613 0 0 -4
349 1 45.15563083708707 61.135383711539625 14.641422295812331 0 0 0
310 1 42.94797519506867 61.21533593297424 16.374381973487303 0 0 -1
51 1 47.385835923596716 60.97230220300861 16.01683460645503 0 0 -2
212 1 51.44636070075886 63.12735116461423 14.161280225862496 0 0 -2
249 1 54.38481901307895 63.19588840871312 15.134956281395075 0 0 1
444 1 61.84709471310939 62.207341037489975 18.10023640088762 0 0 -1
33 1 64.48198955719121 63.30186822398755 14.223064122214726 0 0 -4
496 1 47.474430994117874 64.90796006703283 13.51254701806258 0 0 0
265 1 52.41995967038384 66.21425348561773 15.238689882954013 0 0 -2
255 1 55.813685103023005 65.57909520728101 15.476712796818813 0 0 1
414 1 57.352508086105686 64.68408737994751 17.682145410973927 0 0 -5
421 1 62.803262279185304 65.36758741284132 14.463308592568264 0 0 1
213 1 44.73459512389602 38.264559950009456 17.5979380279166 0 0 0
27 1 42.896337262229316 39.98069319021101 18.14834937258036 0 0 1
230 1 45.5676854177144 39.92053565952303 15.52020411525227 0 0 0
408 1 52.03773179546291 36.75355030059319 16.784993447314797 0 0 0
413 1 40.852132874247495 40.27692292187985 16.485346073001942 0 0 -2
512 1 44.40731737706495 42.520963461494816 15.7525774743362 0 0 -1
116 1 48.141746481739816 39.94989018507416 15.7050775624763 0 0 1
43 1 48.854497363245244 40.21372186044824 18.49775522957175 0 0 2
20 1 51.703283459615804 38.94927496115012 18.53775782695578 0 0 -3
133 1 51.34358340148752 40.89184441692238 16.612184619410854 0 0 0
384 1 55.222929178176486 42.20143001543876 16.60455735191473 0 0 1
236 1 58.067339865983904 38.581017347401676 18.343852464167526 0 0 2
287 1 59.99659728032933 40.636230698173776 18.078986342707676 0 0 -3
1 1 61.34316324347523 40.33734974052187 1.1175203329685846 0 0 1
501 1 41.42933980685047 43.335514499883736 19.180779188895627 0 0 -4
311 1 39.0537604099386 42.16292903420936 17.64139383447386 0 0 -1
337 1 44.049647366101915 42.327572277951695 18.25968458144372 0 0 0