LAMMPS data file via write_data, version 29 Oct 2020, timestep = 50552

519 atoms
1 atom types

2.9476800912531758 267.0523199087543 xlo xhi
2.9476800912531758 267.0523199087543 ylo yhi
0.21834667342635683 19.781653326573892 zlo zhi

Masses

1 18.015

Atoms # atomic

412 1 46.45219791399322 38.97668162355414 19.554334114515445 0 0 1
504 1 49.69140553522082 38.956329310298216 3.054983882491744 0 0 0
91 1 49.707363780473436 36.24387948109039 2.4111220294829603 0 0 1
26 1 52.33804632841558 39.27748565529617 2.1572301278540804 0 0 0
189 1 53.783471484242106 37.41574044513122 0.6624069401806598 0 0 2
452 1 56.837311421867305 36.8190725740849 1.0780675399326503 0 0 0
113 1 56.268219010111935 38.308900013548424 3.1250703404596627 0 0 0
371 1 47.45961348487024 40.54847114969299 1.9862795190957208 0 0 0
434 1 52.10828423277827 40.89882771199673 19.59104807634872 0 0 0
399 1 55.254839798583994 38.89671303276737 18.469005741967685 0 0 1
63 1 59.62380638552551 40.96127021198119 2.7703960327541455 0 0 0
84 1 60.446229845211754 39.820340615373766 0.5240757877617888 0 0 0
464 1 43.531926822437086 44.56626495371624 3.1029594428179923 0 0 0
166 1 43.75346319815953 43.624405350119105 0.4830094695636106 0 0 1
443 1 48.07062245455197 43.11865999935805 1.0253464681181506 0 0 1
275 1 47.78650103422003 45.26091597511598 2.7913051678634364 0 0 1
382 1 54.25543608233496 45.04414494457075 2.800126907042552 0 0 1
327 1 56.26581119216565 43.455024188595914 1.5933385197601102 0 0 0
441 1 57.55072887833777 45.622579658102815 3.701562085765982 0 0 0
246 1 59.89388732121836 44.56410437865921 19.3954695759709 0 0 -1
80 1 59.586008172709896 47.30150080362699 19.574829958879647 0 0 -1
225 1 62.500202929202295 43.88016990959127 0.6372723276726566 0 0 1
374 1 62.256759512458615 42.94231377915893 3.3438632225240847 0 0 0
381 1 38.25192025079846 46.920268364678456 1.8568993536474447 0 0 1
172 1 40.02692532765656 47.14556841872987 4.125294130856684 0 0 1
323 1 45.08563504162419 46.81753931257309 3.1798554425430017 0 0 0
516 1 43.77565078970433 48.211878836293955 0.9562357244725739 0 0 0
255 1 50.94186574726449 45.02032472497503 19.175488863269315 0 0 0
78 1 52.12074424680407 48.66403745906494 2.7204983296084304 0 0 1
413 1 54.994761187023116 47.96580693499756 3.720267456483263 0 0 0
336 1 57.180387027381286 47.90611025751747 1.431425866475792 0 0 0
270 1 60.479531284790866 44.415383106848225 5.157336290288143 0 0 1
455 1 63.85043340594876 47.75097221422391 19.758531467594505 0 0 -1
112 1 42.24290657953008 49.0779382793941 3.455357931397102 0 0 1
177 1 38.457597915741836 50.93350367119993 1.4250626490211318 0 0 0
422 1 44.34144467965373 51.05338577979966 1.6402502456164778 0 0 1
499 1 46.99486677037081 50.38870722535478 1.8681753596497623 0 0 1
435 1 52.110027884188405 50.25912748637782 5.004037555504671 0 0 -1
300 1 52.203965534679114 50.32355891246851 0.5233810707135078 0 0 1
132 1 58.54338942529886 50.134842821453155 2.9706483959437486 0 0 0
362 1 61.191280714680175 49.24541715804762 3.8451329554173186 0 0 0
232 1 61.51644119388843 48.75984146638569 0.8654984378350946 0 0 0
79 1 62.34703842884242 46.89023321472274 4.707075620902178 0 0 0
176 1 37.595940321416876 53.80511887023491 2.1908926002586457 0 0 1
431 1 41.42934048055085 53.37573858606199 3.8941815638675137 0 0 0
164 1 47.432106458469804 52.65818513078559 3.16049999520612 0 0 1
235 1 51.66303017258022 53.127952694368986 1.3451911449445197 0 0 1
487 1 54.04364987941979 54.479330935307985 19.740450598222875 0 0 0
74 1 56.119005743430485 53.08672753137721 1.3653445814623615 0 0 1
130 1 59.27740452672997 53.233907597100824 3.023634862237566 0 0 0
162 1 61.900507284434376 53.25171185672062 1.9202910487434686 0 0 1
94 1 63.99279053994895 54.56120877064002 19.44271687962696 0 0 -1
131 1 36.765159003164385 54.51231887643281 18.960236608406053 0 0 -1
136 1 39.997770395978726 55.091566062163416 1.427576400238248 0 0 1
352 1 38.55484586977817 56.59342879541119 19.0210950542651 0 0 0
149 1 44.54762565423182 55.97853843914959 2.120445930875456 0 0 0
338 1 49.48388687512718 54.59793404742791 2.4230317001639667 0 0 0
470 1 56.896294843318096 56.717490493830844 1.432934618431684 0 0 1
5 1 61.23323522915112 55.95684616311941 0.36420179855817436 0 0 -1
517 1 60.7480608113771 57.86588751451625 17.84756617208336 0 0 0
324 1 64.89372110641378 56.57851556440957 1.628280580342437 0 0 0
169 1 65.08108757156165 58.962485855640104 0.5479132806977479 0 0 0
329 1 41.989822735446786 56.49357453370745 3.004587863303731 0 0 0
99 1 42.434014630994135 58.958488678086404 1.4384733874423625 0 0 1
491 1 46.06767777401829 58.2194087642808 3.1578213551752197 0 0 0
249 1 49.972565050002004 59.37800368747535 2.1488720200863805 0 0 1
290 1 52.342144629336026 58.30303869782447 1.5958679967131828 0 0 0
457 1 54.835062257256865 59.30544134694469 0.2869625416277654 0 0 -1
308 1 58.679684642306306 57.940288491207376 3.5613235121603823 0 0 0
319 1 60.47896969462991 59.163000067414295 1.068533188367164 0 0 0
59 1 44.799580786197104 60.27694815668932 2.0753975981056194 0 0 0
317 1 45.4056149713496 62.162281280676744 4.039199120159232 0 0 0
454 1 49.9450103998457 61.16320005028879 4.171873632002023 0 0 0
240 1 50.77422402995251 63.2566985119685 2.0725847759069986 0 0 0
213 1 54.28687673347525 61.048737457530194 2.6937114558993867 0 0 1
511 1 57.70884518848808 62.38968286640324 19.15735053802004 0 0 -1
313 1 56.78735626373602 61.48254236816918 3.5535759601193173 0 0 0
500 1 61.52207864543186 63.73636298097119 19.303508435475948 0 0 -1
258 1 61.89147344898167 61.374041594104476 1.5451142701115361 0 0 1
391 1 45.87658601228501 64.776279082803 2.777673573742403 0 0 1
106 1 50.373411034087994 65.5223886576617 3.663639044462083 0 0 0
141 1 54.66537642198885 66.19344408621043 0.8661589137851946 0 0 -1
119 1 58.298951385890184 63.341370142530224 2.1378128286830167 0 0 0
331 1 56.68877911302573 64.9821857980586 19.097626277021238 0 0 -1
357 1 60.00582707093369 65.55389973130994 1.32356099673441 0 0 0
30 1 50.58661826353186 67.64574221674764 1.9199029595164205 0 0 1
496 1 53.29415524298224 68.44557635131794 1.8610158820112497 0 0 0
35 1 47.1164100163751 35.47887900315649 2.8432866191939565 0 0 1
350 1 50.0921165965895 34.76218695822028 5.824574479209508 0 0 0
259 1 52.065831645667295 34.98363977924092 3.689135947813861 0 0 2
181 1 46.882976713300316 38.216029637640055 5.95347191572053 0 0 1
388 1 47.169497889319295 35.287560203715884 5.453467071381604 0 0 0
23 1 49.727280357783116 39.01790904795311 6.2397403218466865 0 0 1
20 1 54.053411185432324 37.289582276752235 4.413987164813194 0 0 0
81 1 58.33184106773217 37.42629695422967 4.7876039048304175 0 0 1
373 1 60.16289048451079 39.547245963661226 5.063245428193125 0 0 0
280 1 44.62453465661196 42.44033810639344 4.690939014828359 0 0 1
243 1 42.69799349651309 42.168337794488345 6.86987145001657 0 0 1
202 1 46.99059525488834 40.60224545818278 4.63371775373814 0 0 1
199 1 49.726157998055825 44.34308367080945 4.348780864014715 0 0 1
263 1 48.64015697715652 42.356583388357436 6.060593607970164 0 0 1
219 1 52.451825675722375 43.00339024043461 3.6671654082578113 0 0 -1
360 1 53.97685814108645 40.69140465233944 3.7980354423179152 0 0 0
287 1 56.931734000215826 41.083673062132924 3.1911228410277874 0 0 0
16 1 62.534934804675956 39.3409200449854 6.252673852139022 0 0 0
286 1 46.04280428053572 44.056403370002165 6.730582344011987 0 0 1
201 1 48.434487631848 45.5302002627171 6.88172266113947 0 0 -1
165 1 51.32020543131185 42.07874925968841 6.883696069861268 0 0 0
192 1 59.24038359765641 43.760631829094585 2.43425309365394 0 0 1
416 1 60.454623525240166 46.483983593045465 7.547024383427862 0 0 0
29 1 64.78758363516246 44.603522895764314 6.852793424207481 0 0 -1
117 1 63.07432955500574 42.263194849970866 6.124797233719049 0 0 0
143 1 41.409356704155435 44.9103221034201 4.967675904869356 0 0 1
269 1 45.74752743954283 48.12747242165093 5.538486532001283 0 0 1
40 1 44.78689250797416 44.37650802223987 10.031380277427726 0 0 1
363 1 48.56068647776699 47.97804890917418 5.144484256508451 0 0 2
283 1 52.91725593190413 44.383736118090916 6.036988937284583 0 0 0
3 1 55.42585057615988 45.754863571422675 5.84651280332952 0 0 0
87 1 57.58343515888436 44.06248568178205 6.254440512148539 0 0 0
48 1 59.13231482644657 47.66297090770783 5.310535918946208 0 0 1
458 1 65.90148371133861 45.78879065010022 4.734931394192846 0 0 -1
514 1 38.21668361313985 49.09866022113201 5.576095734571938 0 0 0
417 1 36.70594162927098 51.56280759562881 6.337207260269453 0 0 0
449 1 39.92482653127347 50.86595409373994 3.768613497864183 0 0 0
340 1 43.57531814906176 51.78676978282862 4.241047945453583 0 0 1
168 1 49.37914563060822 48.919548153363394 2.6908209386307456 0 0 1
353 1 54.22692826397279 49.59544968915233 6.498969482103657 0 0 0
58 1 50.06470338829816 48.48407175507003 8.786600724550606 0 0 2
472 1 57.149157692828055 49.9636388679283 5.74879613940472 0 0 1
289 1 63.27389202758844 50.68833245808101 5.495443654791376 0 0 0
477 1 48.27350486020427 51.93686635511508 5.933280673302639 0 0 1
124 1 49.87316532599722 49.91028260221741 6.562355751870016 0 0 -1
203 1 50.77292262306561 54.42505631922352 5.2728537857117965 0 0 -1
154 1 52.56086138692969 52.835710044581425 3.8584789044470704 0 0 0
436 1 55.29056420659615 53.38473242003636 3.8710876529531077 0 0 0
152 1 59.6237827630011 53.292507727142535 5.914573418147274 0 0 -1
221 1 63.5365923967348 53.02867140542386 3.966381169312002 0 0 0
279 1 38.50567292042768 53.41583842181412 4.911491751293296 0 0 0
444 1 39.47290706416825 56.052630339859896 6.267977855777749 0 0 1
406 1 42.96266986432999 55.373409250320826 7.492722209315303 0 0 1
49 1 45.17590191284806 53.93248090086648 3.8679185135036964 0 0 1
194 1 45.37301386852992 55.41707950118057 6.070670671809827 0 0 0
513 1 48.71385289413257 57.30581539013329 3.2632870532591363 0 0 0
183 1 50.3247312296756 57.019215664944745 5.417630223606051 0 0 -1
145 1 52.782421678070484 57.28733513824728 4.1274144574765135 0 0 0
53 1 55.27780293480816 56.18857905022882 3.6980050686006227 0 0 1
315 1 57.160271178918855 57.01447923828674 5.534943968211448 0 0 1
392 1 60.771091944376444 56.07454558840284 4.3310587855482945 0 0 0
380 1 61.50811031588565 58.404662176414256 6.17085498639654 0 0 0
56 1 64.17172753133667 60.631185175450305 2.7026716089951712 0 0 0
461 1 62.17853001154171 57.50345279935124 2.5244240661962 0 0 0
96 1 41.84608505056305 57.43579099796838 5.680764606522755 0 0 1
369 1 46.115405665461495 57.91504936749484 5.765764338041989 0 0 1
86 1 51.554590452163325 60.53582988108025 6.216833990481627 0 0 0
248 1 53.68345830687162 59.56050205246852 5.1240705649138345 0 0 -1
76 1 59.72326871050788 60.12063055577354 4.923750117851825 0 0 1
68 1 63.75647264230103 58.832194982601386 5.151847111860133 0 0 -1
387 1 44.16936515827562 59.26707816719606 6.811429383950501 0 0 -1
64 1 43.58700647673969 61.76719675114719 6.0084760510462685 0 0 0
427 1 47.747863258965545 62.212621218166575 5.548067432633492 0 0 0
469 1 52.562377154588795 62.964751172867814 7.187898194364156 0 0 0
367 1 57.34942725584364 61.054307949792324 6.241938146752523 0 0 0
171 1 56.420207658167506 63.44912301587248 6.868746168371516 0 0 0
92 1 60.400365017157256 62.316219384407475 3.507246960229901 0 0 -1
6 1 61.855497870879354 64.2518852873427 5.191326446182659 0 0 0
341 1 47.88513238575094 64.97780129536565 4.950951194940033 0 0 1
134 1 52.421307360163226 64.71021757961944 5.320960797400969 0 0 1
359 1 54.9453569089557 63.969379975373556 4.473603098357744 0 0 1
224 1 56.847774091420405 65.74089984527137 3.1237151550409865 0 0 0
195 1 58.87017180044018 66.79741499400664 4.8826291735503045 0 0 -1
312 1 61.19704106749574 66.56960570574148 3.697720110016885 0 0 0
156 1 48.875341809324006 65.42825939688268 7.608027214831302 0 0 0
293 1 53.04130738384905 66.95123859683179 6.409956873300255 0 0 0
265 1 54.48299491637691 67.56331427059635 4.1824539556113045 0 0 0
442 1 56.92419498220661 68.48971644857983 5.899864722994704 0 0 0
423 1 50.36281676599252 36.83003101593933 7.620712456206538 0 0 0
497 1 52.961167840414255 36.57179409813143 8.71085427267778 0 0 -1
116 1 45.121703921772074 38.84060812155101 8.143477919761711 0 0 0
107 1 52.6632822990685 39.301745975792464 6.0836425752904395 0 0 0
330 1 54.79323384199925 36.05651252369152 6.673009389019448 0 0 1
244 1 57.9945835386789 36.408883009438156 7.227992837215022 0 0 0
288 1 59.45414845484299 38.339827276382685 8.880820448337255 0 0 0
108 1 62.209267408408394 38.65825082244058 8.80375429104861 0 0 1
339 1 44.23306065466812 41.53420071506248 8.902505443615336 0 0 1
267 1 48.82566494609033 40.00842312613884 8.604236423564432 0 0 0
17 1 51.314046584607844 40.44398859224405 9.763137904026996 0 0 2
463 1 58.710761357881765 40.436507543429315 7.365037036350513 0 0 0
157 1 54.35611686058171 42.55731829664658 7.94526124555857 0 0 1
21 1 56.005746753378865 37.07851871428416 9.466787825731394 0 0 0
123 1 60.602744332123315 42.448497960566066 7.282877146106053 0 0 0
19 1 41.87992376401119 44.73128599060564 7.77111054339143 0 0 1
27 1 44.37668235753009 46.30572055914065 7.624443959085671 0 0 1
262 1 47.06258452006937 42.06587830161896 8.71366064160279 0 0 0
237 1 48.43582415485185 44.568041181218476 9.664809527291949 0 0 0
384 1 50.858522207590525 43.64121724983414 9.519570762214714 0 0 0
197 1 54.140625804245175 42.649252157789924 10.613554628334105 0 0 0
126 1 56.297195017355754 41.73959765835935 6.060129798627948 0 0 0
408 1 60.09189667199902 45.311477014294475 11.085167704934854 0 0 0
509 1 66.17092695120684 43.70997312185313 9.12256714785699 0 0 0
467 1 40.25859075042221 48.73862595815927 7.2149839906432405 0 0 1
376 1 39.955880546208974 48.23598805195627 10.27518580062178 0 0 -1
356 1 42.729317949439384 48.466823515394196 6.088407749886092 0 0 1
178 1 51.32072655404354 46.24438504417421 8.351317622132521 0 0 0
226 1 51.3165054654057 46.68657776756541 5.214566317800894 0 0 1
69 1 54.21346249156701 47.29585841104851 8.328628627949502 0 0 0
109 1 63.007460722302746 45.80247835104906 8.323434576122837 0 0 0
303 1 66.58029815751844 46.335266375648736 9.93083051571644 0 0 -1
85 1 43.47188198933646 51.09912562318443 7.098816477390349 0 0 1
318 1 45.20203986899167 48.45942869687484 9.017834958649011 0 0 0
163 1 42.39380967621355 49.623136719230935 9.768175785348967 0 0 0
405 1 46.14827298935139 50.51561316957833 7.203935547568772 0 0 0
333 1 44.549363835906796 49.07773146792597 11.866001881038537 0 0 0
118 1 47.37864882119566 51.90655447860604 9.415602636807789 0 0 0
488 1 58.29448311469519 51.169481717192085 10.058039783304777 0 0 1
414 1 59.48398485561162 49.81787052437307 7.942701660922353 0 0 -2
358 1 64.61419446754132 47.97274327980817 8.800793667821203 0 0 0
190 1 64.61849952850255 48.121774456155336 5.994167774962771 0 0 1
383 1 37.4127158443696 52.01111740942034 8.816430079796016 0 0 0
60 1 37.1129312317938 54.384969319861284 9.903664262616555 0 0 0
453 1 41.39423191841527 53.29830965520032 6.9258617047134114 0 0 1
377 1 40.02752929749144 51.26911038127399 8.43979225248461 0 0 0
46 1 43.69976470945232 52.636564203183084 9.77791035856364 0 0 0
127 1 53.77875839391176 51.51228473714655 8.473518521319782 0 0 -1
111 1 52.26111199175269 53.86139900755251 8.272204008090624 0 0 0
462 1 56.88716803914939 52.501015289527864 5.931672475235523 0 0 0
424 1 61.304289232835025 51.782264338780365 7.402085902621228 0 0 0
426 1 63.77307989604968 54.998214296711915 8.28522929398697 0 0 -1
326 1 38.54817250772923 56.50872081593094 8.959201657299705 0 0 0
210 1 41.103635111961914 55.574681085498185 9.611783864545483 0 0 -1
460 1 48.28002928036959 54.151220511891694 7.276518081531102 0 0 0
285 1 45.71726213146912 54.360769141479594 8.737880419661739 0 0 -1
55 1 49.98569611195004 55.673196512050154 9.084411663141008 0 0 0
459 1 58.803157166655005 55.530382956330385 7.451361158059719 0 0 0
335 1 54.14005565860792 55.54940227423573 10.51527517682323 0 0 -1
282 1 61.60529864502821 56.6004252989874 8.67648948529001 0 0 0
428 1 65.96201234430629 56.688906811898455 9.128166140294137 0 0 -1
185 1 63.17534711052632 54.79104182319199 5.5853340992538305 0 0 0
88 1 64.92523409023363 56.317481661820516 4.268162193356716 0 0 -1
38 1 38.723296475712985 58.653740880602804 10.76865363320401 0 0 0
314 1 46.468913028075775 58.36790907682581 10.265616618289936 0 0 0
47 1 43.895257136521096 59.10285704160245 9.914682089705826 0 0 0
483 1 47.74126958150023 59.32855529671353 7.838695225359279 0 0 0
179 1 48.323823165455934 59.15392461825762 12.482867622252256 0 0 0
475 1 50.45955779569968 58.6046422469382 7.8420473620843145 0 0 1
245 1 53.1151271062936 58.01978295021162 9.497391657216673 0 0 0
150 1 55.66308832931944 58.96781861421735 6.562272837394099 0 0 0
348 1 55.934865696951505 59.24612737629381 9.453347746353526 0 0 0
397 1 65.7664204374462 59.20460660010707 7.2527044512573635 0 0 -1
480 1 44.91510966618138 62.975418876187256 8.073408080139878 0 0 1
227 1 47.79532630506052 62.21720314018819 8.2579952365704 0 0 0
512 1 51.360266660883966 60.88672484911859 9.601053487064291 0 0 -1
320 1 54.55864575041581 63.66262469419315 8.872297712531832 0 0 1
478 1 59.668887441042564 61.337519042801254 8.108415517906828 0 0 0
223 1 60.488321460249864 63.77245839178079 7.44540494859984 0 0 0
212 1 63.76890046879437 62.22110298309805 5.356112807849841 0 0 -1
218 1 63.986043697104435 60.9565664912244 7.796964952884112 0 0 0
180 1 44.219282749289775 65.61198847776943 9.154674959964359 0 0 0
429 1 50.46613772700131 63.660263864744216 8.979137375720708 0 0 0
328 1 54.426908826377556 66.47551817425108 8.662285989502788 0 0 0
378 1 58.11520836302749 65.54704007864467 7.382340559315717 0 0 -1
206 1 46.934814980357835 65.93821481240249 9.395767259070668 0 0 0
71 1 50.73959577829369 67.64848576432799 7.455294310806938 0 0 -1
503 1 56.94878453716405 67.57519759077461 8.598979003221414 0 0 0
474 1 47.08565749176684 38.77341110423055 10.10934444470389 0 0 0
479 1 49.001902087710164 36.4977101180354 9.951885199674491 0 0 0
101 1 52.91903680016395 35.454681498837786 11.279162701258064 0 0 1
211 1 50.7486187166894 36.84210234439856 12.421806427500714 0 0 0
354 1 55.4333444357183 36.321977592115424 12.229466456959232 0 0 0
415 1 57.995098220880216 37.066918606485935 13.064906001735721 0 0 1
334 1 42.78807944243955 41.73789674272281 11.35516944313079 0 0 0
148 1 45.25840319576649 42.60099280787534 12.305700293682003 0 0 0
173 1 46.78444546002001 40.39406144836318 12.403822503249508 0 0 0
501 1 51.53608404823648 39.41798137892983 12.544090797023655 0 0 -1
193 1 52.2550808998082 41.29167505935728 14.586001588982533 0 0 0
247 1 53.88672202905338 39.288309719256034 8.776925583868238 0 0 0
322 1 58.24402132033495 38.98913410454409 11.120830929864374 0 0 1
122 1 55.78409742378354 40.27637884619588 11.005633334767781 0 0 1
33 1 60.05813720359729 40.80306507608145 12.027637880562525 0 0 -1
44 1 61.76639976998917 41.18520218186027 9.890422977089653 0 0 0
13 1 64.07252827544306 42.26935345874165 10.763976079468998 0 0 1
410 1 41.827840732277835 44.31475197650877 10.720709517493175 0 0 0
37 1 46.17069758048474 46.15676684429725 13.830186601084478 0 0 0
492 1 48.18374391970483 44.128276594220004 12.513273606874057 0 0 0
273 1 52.85672498557299 46.58076474139722 10.970164798552974 0 0 0
142 1 58.19022457217665 44.82246874458339 8.850463541840092 0 0 0
316 1 55.944130059973446 44.58989536815123 11.973154651474644 0 0 -1
89 1 58.36745638119334 43.26610595011797 12.035118644839576 0 0 0
438 1 62.75061912462764 44.65254051542062 10.859463921081778 0 0 0
140 1 63.62359567827945 45.07226438688632 14.16465381502369 0 0 0
8 1 40.67997003440613 46.1876044681591 12.10606686139004 0 0 1
439 1 42.6896454489314 47.622012020170864 13.34632271790581 0 0 2
229 1 46.234776522334286 46.638044883511476 11.05697542034543 0 0 1
104 1 47.87957058862912 49.21125831290028 10.740822092154511 0 0 0
481 1 56.397591904655215 46.34916062982458 9.953029862636555 0 0 0
507 1 57.622271411019376 48.31281766534193 11.175026377865402 0 0 -1
151 1 60.289492876710604 47.978097874997424 10.216998659056772 0 0 -1
473 1 62.06723320209154 48.657456960067975 12.223316811676165 0 0 1
297 1 65.8130100838269 46.38319144554544 12.60563345886215 0 0 -1
450 1 64.86136030199248 49.12221027697631 12.767759369451168 0 0 -1
188 1 37.90036502905344 50.02364552862633 11.0700413539081 0 0 1
216 1 41.612422318926356 50.03707495641132 14.24449508712564 0 0 0
347 1 49.22257233637585 48.53639954553254 13.330334511049939 0 0 1
230 1 51.74292576146349 50.36839640130891 10.291798009367337 0 0 -1
364 1 56.31009016964166 52.76475131771039 8.740258881994789 0 0 -1
10 1 55.24982570716116 50.157040003151785 10.731413521570008 0 0 0
207 1 60.087369730526966 52.66079611523562 11.257225034360141 0 0 -1
167 1 64.54717552111916 50.3644245628607 10.28646135576081 0 0 0
1 1 41.09956203179849 53.069382443916616 10.67515177262248 0 0 0
133 1 39.569959658236165 51.40418437924128 12.729093294551657 0 0 0
251 1 43.63891861530578 51.90820706611097 14.378547002039284 0 0 1
349 1 45.15014586354816 51.75453258181431 12.065025815399446 0 0 0
110 1 47.74252066682388 52.69925928217039 12.511636972198582 0 0 0
228 1 50.34363516095567 52.72151588633213 10.29030865686345 0 0 0
250 1 54.606163888399294 52.86857001538773 12.098131648823564 0 0 0
389 1 52.25178668455994 52.36699986506042 13.160301885867202 0 0 0
344 1 57.03289871892527 55.245263103638244 9.778355170655981 0 0 0
73 1 62.62264354123071 52.681321275931495 9.761668306217278 0 0 0
103 1 63.51253466085578 54.430161604816 12.039238880066032 0 0 0
67 1 37.3855398210026 57.443205813614426 12.80246073657404 0 0 -1
138 1 36.558660004436796 54.7857504196099 12.518902617427527 0 0 0
31 1 42.28907392788975 53.8070037489284 13.098715996706366 0 0 0
93 1 43.96375278508836 55.85304797802492 13.64707708882074 0 0 0
298 1 46.0136728676989 55.63368379055077 11.400822480944093 0 0 0
409 1 51.18282091668218 57.686833163156855 11.551215482715737 0 0 1
90 1 54.189863939070484 56.851647560324125 14.377336998758992 0 0 0
75 1 61.21716359074835 55.965617829062964 11.568398171312836 0 0 0
508 1 65.71390884918182 55.882712776287946 11.853653969458227 0 0 0
205 1 41.49935203964681 58.14099131857653 10.679453144055001 0 0 0
32 1 42.113123662347135 58.00135398332893 13.270444601188391 0 0 0
198 1 48.62910245061718 55.322064092498024 11.868665070805537 0 0 1
493 1 52.27803843884759 55.554276948507116 12.622366828169033 0 0 0
83 1 54.65461780883707 59.5221959710501 13.111919400202144 0 0 0
398 1 56.457065612301825 57.70998068455634 11.831035623415865 0 0 0
231 1 58.99084493949335 59.65807908414657 12.78903194124867 0 0 -1
252 1 62.30219562357912 57.519115898571755 13.935226246969615 0 0 -1
191 1 44.26645819877073 61.74962173581304 10.539061746477921 0 0 0
187 1 45.68600496433411 60.55240912393846 12.919760262527673 0 0 0
54 1 49.24355265842539 61.578832639937666 11.436697031108242 0 0 0
465 1 50.73276545813063 61.80737121513274 13.765669849143698 0 0 -1
242 1 52.34082520828956 63.85873539351972 14.056810913821474 0 0 0
471 1 54.02343552723044 60.98874679517929 10.52604521370416 0 0 0
170 1 57.88922409790464 60.97982848601755 10.13950411154555 0 0 0
271 1 61.821062799923666 59.65388079155956 8.824583774411979 0 0 1
418 1 61.02437817291869 63.08959940168623 12.17685478083516 0 0 -1
368 1 61.68757323610159 60.391407009603235 11.557438093193147 0 0 1
395 1 43.14405983268686 64.357180255209 11.431232491185769 0 0 -1
135 1 45.6695139441962 63.55193752458121 13.058382466176338 0 0 0
351 1 47.71183474120436 63.87960173922936 11.316711131282132 0 0 0
456 1 52.92235696979809 67.21849948244994 11.001561586722476 0 0 -1
184 1 58.3771516298565 66.22346011650728 13.171402928615338 0 0 -1
45 1 58.95728842019922 65.99722775033882 10.40737638337818 0 0 -1
355 1 61.33358110025309 65.04857599366494 9.857171645992484 0 0 0
62 1 50.31951286406191 68.0976200628685 10.225587069273855 0 0 0
161 1 49.12920706221771 66.18014656386163 11.898684232644817 0 0 0
421 1 51.44944065227522 64.87902462586771 11.366479663563531 0 0 0
440 1 44.106375437197315 38.90556609374589 15.437332837843265 0 0 1
4 1 46.83986048443039 39.40863249286343 14.905927320906683 0 0 0
77 1 48.047283422897316 36.791450249401045 15.82525702279803 0 0 0
18 1 50.51830282324774 35.721165676583695 14.988650607037988 0 0 0
36 1 52.934306840266366 36.21973325770516 16.387776038528123 0 0 0
311 1 54.56001385229989 38.96679915329918 12.880838233144823 0 0 0
432 1 56.16911054074172 36.639679243809866 16.248872300237434 0 0 1
448 1 42.97659065299006 40.8019793327077 14.30187007934182 0 0 1
274 1 41.26620356590556 41.84727128208169 16.40058106991845 0 0 0
196 1 49.31449438666599 41.654173494270545 12.947490104495989 0 0 1
15 1 53.240629383745656 38.99977946165815 16.42296330195826 0 0 0
446 1 58.45815128141728 41.70366558523389 14.773299024405457 0 0 0
305 1 58.115778686797775 38.66092629717797 15.715025532475263 0 0 0
70 1 60.9026002370106 39.65217116243759 14.600267556459311 0 0 1
482 1 62.20463193542246 41.74482299808971 15.843867549558384 0 0 -1
281 1 63.93111147510036 42.460088091424204 13.787760787270987 0 0 0
222 1 41.65887088201403 44.61776060741191 16.279010763290426 0 0 0
95 1 44.298963963164695 43.63911140302073 14.744207901839722 0 0 0
100 1 49.118615152396316 43.732894047312364 16.78711288144305 0 0 0
294 1 50.34685560169734 45.823754645081976 12.64294865917198 0 0 0
510 1 51.967483017573784 43.36953325376585 12.449710867278737 0 0 1
495 1 51.94540808486266 44.38565062985109 16.06666389341858 0 0 0
114 1 53.73845065850273 45.464165473420195 13.702607140601993 0 0 1
254 1 54.52119243154459 42.62109475750945 16.272067211004366 0 0 0
241 1 56.305338202186626 44.37548924507336 15.002093217114759 0 0 -1
393 1 61.01785405362255 43.97823134808756 16.763018977258294 0 0 -1
261 1 61.277312269765446 46.644658762123996 13.552838300269373 0 0 -1
115 1 39.684380865638964 45.823183743344075 14.788992906053227 0 0 0
309 1 39.025485330058835 48.12537367353722 16.637739862729806 0 0 0
236 1 43.811295740532465 46.72786597758907 15.606894191586258 0 0 1
295 1 46.561334796882655 49.06599834633125 13.949644003338069 0 0 1
41 1 48.68245200706934 46.10381373802908 15.402239282574305 0 0 -1
102 1 55.347793724028136 48.029094080212246 14.685591867129132 0 0 -1
204 1 57.92876027372129 47.5266028821941 13.927001259045802 0 0 0
153 1 59.20730211551049 44.80763300187882 14.713056350378734 0 0 -2
370 1 40.32099736819551 50.63894069781964 16.57817949460772 0 0 0
51 1 46.4189190677032 50.373753797078635 16.628599593731398 0 0 -1
43 1 44.8887314824323 48.32337581566137 17.667706168378437 0 0 0
484 1 51.704762108457224 50.05387913297242 14.418299919448097 0 0 -1
125 1 53.33703502836912 48.848809644331496 12.531172964766894 0 0 0
400 1 54.32132399845507 50.1632009220619 15.720585070939556 0 0 0
147 1 56.34833355008683 51.7426155833697 14.506590556507142 0 0 -2
425 1 58.777375701748134 50.115609652879655 14.509277590010743 0 0 -1
321 1 62.446600131615284 51.80690972583608 15.47309690225565 0 0 -1
276 1 60.999409324365594 50.897411373902386 13.461336011763699 0 0 -1
433 1 64.02782611469844 49.53916506235821 15.984170315218078 0 0 -1
42 1 37.59280295606111 52.667826482019386 14.22860642244998 0 0 0
299 1 44.61367881620675 52.508445732411 16.95234348654957 0 0 -1
97 1 48.81429551495783 51.341814058386895 14.815957004578747 0 0 0
14 1 52.064875460312415 54.03829719483661 15.412107889749908 0 0 0
404 1 55.948184711867505 54.910701095510746 13.369568243592164 0 0 -1
52 1 56.39562201371187 54.25401966689811 16.076146127370038 0 0 -1
105 1 58.57162815297062 55.0205904682767 12.10909900391899 0 0 -1
466 1 62.44476807880224 54.823572461765046 14.822106049987005 0 0 -1
402 1 40.26525119803991 54.09500016279923 14.616343483231082 0 0 0
268 1 47.88707915291274 55.38349862097709 14.61020904071701 0 0 1
65 1 45.42237314744847 55.13699803371533 16.008381739506326 0 0 0
159 1 52.741633647804655 56.49498576114433 16.940878272640383 0 0 0
266 1 56.82020567589428 57.32183502663977 15.89137189751908 0 0 -1
260 1 59.00240524889822 57.102077981256535 13.847567269017292 0 0 -1
272 1 39.77881165904288 56.97367478448144 14.14640375970318 0 0 0
50 1 45.48191907562875 59.79943271247532 17.405946687804928 0 0 -1
394 1 48.81554326845942 57.57183668377837 15.399875682416722 0 0 -1
476 1 51.87097578285034 59.47076651862729 13.8275359967029 0 0 0
25 1 56.712294755180956 61.56345031584824 13.879448311388426 0 0 -1
144 1 64.91600670851153 58.19053086697587 13.462325836357838 0 0 0
420 1 43.15497785607934 60.34448227829617 14.23252647081534 0 0 -1
502 1 43.01508008546651 60.87659505391266 16.941566027840828 0 0 -1
310 1 47.167290951826885 59.84296462190468 15.331935251710687 0 0 0
485 1 48.79042996970575 62.022434586849066 15.595851909942617 0 0 -1
174 1 51.84877638258795 66.21253734335454 15.574891901739312 0 0 -1
278 1 55.06292142115611 63.48977655757549 12.974667893607482 0 0 1
366 1 57.02846860182467 63.7404907035074 10.569646469282333 0 0 -1
490 1 59.0412946244972 63.50447490077945 14.253801197309436 0 0 -1
396 1 60.95059424827549 66.06446872614846 14.403588880728316 0 0 0
345 1 63.71355234012543 60.81644447195311 13.237338390664986 0 0 -1
337 1 47.40535980259 64.4289026765432 15.245889585968957 0 0 0
9 1 53.60939397855918 67.21157712267963 13.787145587676989 0 0 0
146 1 55.86753934602423 65.58381809495748 14.469662778102476 0 0 -1
430 1 48.96920458223802 66.53676231122978 14.841070808151494 0 0 0
39 1 50.26002581698296 66.51915344521774 18.755162532508553 0 0 -1
407 1 44.50982516312551 40.25958752331795 17.964869351059725 0 0 1
451 1 48.7421634667295 37.864713296731 18.3215108981327 0 0 -1
214 1 49.75236069601443 35.55792630877666 19.34897846096038 0 0 0
403 1 52.433128802322834 35.420809529437086 19.09832517797057 0 0 0
411 1 42.02549333510087 41.55682250155745 19.052695827762754 0 0 0
160 1 46.09812328348143 41.93893883118727 16.62445863023196 0 0 1
34 1 49.15971903423055 41.06228521782503 15.782885904610415 0 0 0
120 1 50.56084684149808 39.68084020848534 17.65227549095502 0 0 0