LAMMPS data file via write_data, version 29 Oct 2020, timestep = 100000

519 atoms
1 atom types

2.9875647273995583 267.01243527259624 xlo xhi
2.9875647273995583 267.01243527259624 ylo yhi
0.2213010909181783 19.778698909081807 zlo zhi

Masses

1 18.015

Atoms # atomic

383 1 129.7888893910076 122.33036128453283 7.405944999342235 0 0 0
11 1 133.67172095309033 120.10263681817153 5.8837060765109195 0 0 1
189 1 127.84179343560136 124.53390065672701 7.892163730086148 0 0 1
244 1 134.39288551316437 120.7844857658976 0.9857390532234898 0 0 -1
229 1 131.48496367169895 121.01085781041202 2.729409841221626 0 0 1
464 1 134.2939761990837 136.58046642210527 3.429012507599559 0 0 0
72 1 127.39587658421644 127.07855187746698 6.58398078514004 0 0 0
352 1 126.446436955904 125.88537980602831 1.7953574048252996 0 0 1
86 1 131.19769796099584 125.16457285271578 7.764098407143386 0 0 0
341 1 134.50405148261993 146.80467654127833 6.2365656001625105 0 0 1
26 1 121.72511341777064 128.3841407053052 2.085387660582143 0 0 1
196 1 124.68805985515604 128.0350536295483 2.1027794646455713 0 0 2
70 1 127.97089195877443 125.86369168114159 3.9804689925411694 0 0 0
33 1 129.82995073353644 131.05672223199366 18.682203785940764 0 0 0
146 1 132.88826251739053 128.45578028490857 0.8142804562077922 0 0 1
275 1 120.47725552096381 132.58249903877413 6.95994392106072 0 0 1
500 1 122.00650023063795 130.58713929521105 3.7784610946117336 0 0 0
301 1 121.57396767575473 130.02783113850148 6.562045415370117 0 0 2
344 1 124.78709488812046 129.60630836578989 4.504429098405605 0 0 1
16 1 133.81333635011455 123.51874112583397 1.928259601089155 0 0 1
441 1 132.31931154862167 128.42208074048833 3.5076764444182684 0 0 0
426 1 120.38892460704375 134.24983568990976 1.8550592395039518 0 0 0
137 1 125.05351354538264 135.85571860675125 2.236337168404658 0 0 -2
290 1 128.3813666898349 132.40674349134457 3.0790351810110748 0 0 1
148 1 132.19164597286695 136.22921199132622 5.663645817658498 0 0 2
251 1 120.65125005852695 137.093439059777 1.1719318396260714 0 0 -1
222 1 123.65082395235551 141.3929181560497 18.666532790131697 0 0 -1
12 1 122.8181000786983 137.35351951678547 3.04653919950089 0 0 1
479 1 127.05004459478764 136.871606366916 4.165175326824188 0 0 -1
178 1 127.56278352715688 135.33412160351983 18.3251731482874 0 0 -1
132 1 134.32752585932457 141.85554954460594 0.679325260572952 0 0 0
476 1 129.42186234041566 136.74735783651923 5.617687840316729 0 0 2
349 1 122.98261991067332 141.6285963280213 3.90353232421347 0 0 2
165 1 126.38161922647453 140.64881765145225 1.5364374247126287 0 0 0
247 1 130.09976942928387 138.80381392712442 3.5928179869837096 0 0 -1
182 1 124.0974200545312 144.17343990255907 3.0154853488560387 0 0 0
4 1 128.3542101380389 143.1402230413399 2.5263786282060035 0 0 0
69 1 129.78908313300812 143.2770765651683 19.578143532381173 0 0 0
168 1 132.68161266002505 144.1104489725265 1.2959547891677459 0 0 -1
82 1 131.3038921215295 147.38440279651385 2.299975219275391 0 0 0
92 1 132.73254821287682 146.5193000459154 19.53068977591575 0 0 -1
515 1 132.4141334833465 146.4002009089073 15.485831643608464 0 0 0
371 1 132.46085013915052 141.58419306906475 18.179473181879036 0 0 -1
66 1 130.29731264610288 149.58393694924135 0.9351054845562248 0 0 -1
416 1 134.720053362406 132.313788889014 2.4851062589769697 0 0 0
427 1 129.0913208036122 148.620711574519 18.26862131790268 0 0 -1
446 1 133.30257855322887 123.69883110771993 9.356226410821378 0 0 0
264 1 132.4899514402008 118.2999889382394 7.6947684264085 0 0 1
453 1 134.4017451799711 145.5313320009338 17.552246103873344 0 0 -1
432 1 126.59802061171258 123.01004221678366 9.86656205631454 0 0 -1
58 1 130.9395751389269 120.19609539054419 9.135397489940473 0 0 0
380 1 131.50834204150073 121.67843921881496 5.368912360081239 0 0 1
377 1 133.30681244784057 131.13029866754707 4.648786223561196 0 0 -1
160 1 129.1742194452189 126.14152927649776 9.459117266994946 0 0 0
511 1 134.45604192881768 138.70820332845818 0.2985322731829605 0 0 -1
322 1 124.76285134080634 127.55364531188663 6.2304433640029355 0 0 1
434 1 129.59301302842445 128.0536233061862 3.4545976281927184 0 0 1
156 1 127.03917560449251 127.85488395548845 9.793295867247318 0 0 1
188 1 132.70796998783857 126.59086113222725 5.591327130655136 0 0 0
102 1 134.90666227469487 125.36332318445524 17.293440744250407 0 0 1
226 1 122.20107909660669 132.2418828802046 9.48932516949159 0 0 2
467 1 126.1716222815878 132.37501378928158 4.9086257927212795 0 0 -1
15 1 126.5805284193104 132.3062423723131 7.868719749856262 0 0 -1
457 1 129.73103333749773 129.42751114265613 6.177470438104846 0 0 1
218 1 132.09454919246727 128.92066740316235 7.542664723167283 0 0 1
122 1 121.12035485846842 134.273412733921 4.502349825959065 0 0 0
44 1 123.9368181345828 134.2472832496274 4.261332923431795 0 0 0
424 1 129.69228187158106 132.25873284703064 5.658719543945333 0 0 0
387 1 128.46601975241254 134.2142798391667 7.254632462892292 0 0 -1
271 1 120.56913713933994 136.41080424835863 6.294503148109655 0 0 1
32 1 124.37904543288695 139.94251493502304 5.583552534525449 0 0 -2
105 1 123.21775431693763 137.27005336926885 5.742191783798239 0 0 0
154 1 131.60370886466973 141.22877446191174 6.980855883476779 0 0 1
217 1 132.90729452161557 138.89246105387795 5.998871415406243 0 0 0
323 1 126.7491978570009 139.5719645198586 4.108675421228242 0 0 -1
354 1 128.78180200323786 138.4011305672232 7.528117287379258 0 0 1
177 1 128.10787853241214 140.91309976297788 6.780951145308711 0 0 1
225 1 126.73641950070459 144.8266285302763 3.917098327012724 0 0 1
142 1 129.46375884956402 141.3961921435983 4.390761706872063 0 0 1
171 1 130.9118359861299 144.3199568133193 3.343383042952794 0 0 -1
94 1 129.09720971457108 146.79751096841937 4.0590799431067035 0 0 1
309 1 133.93624562136782 147.5294755517091 3.4516342087533163 0 0 0
336 1 134.86791256227457 149.03838237541015 15.728784726505594 0 0 -1
181 1 133.41291767298887 133.74679786208833 14.794068727240246 0 0 0
211 1 132.7179474504601 143.72728756778065 11.586210224633435 0 0 0
140 1 130.16847493861562 146.1373843901912 18.134215893895526 0 0 0
214 1 130.37517433549195 123.34290372951538 16.529484697204925 0 0 0
256 1 130.46881983218353 125.5503332291842 12.278640317396086 0 0 1
118 1 130.46020107915757 121.17870090102281 12.539495941344809 0 0 -1
56 1 131.78469109317055 133.3415894806092 4.601786523582653 0 0 0
206 1 127.72551299653281 122.78063879906038 16.13712629953957 0 0 -2
119 1 125.50955864915863 125.36814921083666 11.01597143354016 0 0 1
460 1 134.12809819102034 123.00155442820318 6.888251500109602 0 0 0
114 1 127.18790831991178 128.25228575264453 12.495728730184187 0 0 2
158 1 131.41202800901306 128.0462523676801 9.981518745220164 0 0 -1
423 1 122.12615614634146 127.28678316773797 6.72922122615154 0 0 -1
499 1 122.26934285790118 127.55143646627286 9.576168008430695 0 0 -1
37 1 124.56317672535626 128.87614841545997 8.724443031577001 0 0 0
183 1 129.60140435800457 149.7462695994422 15.779584707709176 0 0 1
296 1 134.54651957236382 129.75452937821234 7.044124400220227 0 0 2
219 1 121.45482131703105 135.25741885075988 8.853520732568738 0 0 0
215 1 123.8771872859557 132.74521083038985 11.782199301055721 0 0 -1
449 1 124.03974855992274 131.28504276647072 7.30158734514875 0 0 1
465 1 128.4638846898398 130.26931846922912 8.468551666602046 0 0 1
157 1 134.9759363774835 141.08921772087723 3.3551973817798224 0 0 0
501 1 124.35647507165666 135.78377440598373 8.83790768154179 0 0 0
299 1 125.83214482973644 133.9870815810105 10.38086790571964 0 0 -1
415 1 125.82846263839176 135.2458026533049 6.208885475353049 0 0 1
498 1 130.65009674288737 134.40647667448675 9.370059476716738 0 0 1
392 1 130.51604170267666 136.87744152603616 10.645521739290196 0 0 -2
134 1 133.27388287424446 135.04573116843522 8.20042601114729 0 0 0
305 1 123.76836949974944 141.4276726581786 7.994688621215994 0 0 0
141 1 121.35548040026163 137.24792648660278 10.686143502743803 0 0 0
112 1 127.42262859546405 136.51532172695894 8.987335352270282 0 0 0
49 1 133.33664619646254 142.32243700963684 8.875817336035295 0 0 1
284 1 121.54242033454105 140.4772471586636 9.55418586795687 0 0 1
166 1 125.77381981358471 140.6378394602718 10.14322859240154 0 0 -2
31 1 132.18624378036876 143.89888844116354 6.023206247081046 0 0 1
220 1 132.1198665087224 146.07428014515224 7.8551308226413745 0 0 0
210 1 126.7231685096926 144.92060139741318 6.828025714661323 0 0 -1
120 1 123.92560399995371 144.24243512885266 7.291034162981647 0 0 -1
99 1 127.99238307259118 142.9344518944587 8.383117798998025 0 0 1
433 1 129.73170116930564 145.18117298365405 9.168738971361613 0 0 0
193 1 127.74942978537213 147.05748108695536 7.823215044152479 0 0 -1
149 1 130.01849251661608 147.92817474832503 6.490329460379955 0 0 0
180 1 132.18426165275744 149.52389404318885 7.875493596748827 0 0 1
513 1 133.46671662093098 131.32969471206493 11.572689304335494 0 0 -1
254 1 133.36005390877904 126.93990654872282 11.16115468708468 0 0 0
491 1 126.78792317119748 147.0591009157176 18.3146531056256 0 0 0
472 1 127.65355243354509 125.42164727707548 13.11514486087287 0 0 0
145 1 131.63963811915937 123.45656561365529 13.88821574602134 0 0 -1
330 1 122.93721049902474 125.57006787843106 11.702143750544563 0 0 -2
209 1 127.56060459698764 121.93704109713957 13.056267350213139 0 0 0
75 1 129.52906235693285 122.96324558637184 10.548565768744755 0 0 0
419 1 132.67203756392124 121.4415171603659 10.800637736073277 0 0 -1
265 1 120.94531967763102 129.92766868469616 10.466787571572645 0 0 0
78 1 130.6635405265332 127.51096138819204 14.37546255793885 0 0 -2
62 1 130.5079584283093 130.7056063284863 10.602464064948036 0 0 0
506 1 134.04702236873956 132.25439805947457 8.715881069369944 0 0 0
125 1 122.51449382732247 134.4293651918217 14.041081717487776 0 0 -1
422 1 123.96242076609828 129.95187097753885 11.480890516390033 0 0 0
191 1 129.3014331023215 129.9839355981417 13.056029044365253 0 0 -1
55 1 128.3882431818935 134.55737842093154 11.30573813192533 0 0 1
9 1 131.4163698352416 133.2324400240973 11.859632412266448 0 0 1
173 1 121.59482005071962 132.86663387958507 16.093751883516646 0 0 0
170 1 120.60791490261518 136.00497357706524 13.03605243473595 0 0 0
334 1 131.7121773407565 137.82878386904923 14.666669786797588 0 0 1
440 1 128.38145466454108 137.1613435639775 12.841987069422949 0 0 -1
350 1 128.81827213306994 132.72866648885994 13.563838473887243 0 0 -1
374 1 132.82001888661543 135.9465722971781 12.656045354009821 0 0 1
23 1 132.3933994734025 149.4253619692455 14.930568309575712 0 0 1
234 1 121.98619016743223 138.34713305285197 14.680819796623481 0 0 0
54 1 124.21153089473182 138.29534323180656 10.518774614066437 0 0 -1
57 1 130.77274178292473 139.53966220393488 9.301922438584013 0 0 -1
242 1 133.60097214896476 140.60115163562708 14.191527905532709 0 0 1
192 1 122.17721592167813 139.95063330179676 12.242099518680863 0 0 0
397 1 121.9146228135066 142.466799976377 13.688467108388014 0 0 0
190 1 124.81220483155707 141.20745938387074 12.715685883972613 0 0 -2
258 1 128.57399412197643 140.81864224125988 10.590883390850733 0 0 -1
331 1 133.8103867452641 137.75776619037416 8.842474318806413 0 0 0
345 1 133.26991335597822 139.7752091772726 10.569240460730162 0 0 -1
260 1 123.6988188522513 144.0539714767294 12.544056733611924 0 0 1
430 1 125.58938768772742 143.51593894867423 9.858564542314179 0 0 0
143 1 127.2870203996004 144.66335401184512 11.624361018919592 0 0 1
442 1 129.38002277379908 143.23953719763037 11.338582607966607 0 0 0
175 1 127.3677118532409 147.240288506413 10.620926308312864 0 0 -2
402 1 131.12513749156508 149.81291001657007 10.751513977565741 0 0 0
68 1 131.46470159679535 122.1752181663046 18.792547860551863 0 0 0
7 1 122.11216440041413 127.07410313812403 13.940906407998028 0 0 0
42 1 134.71069090848303 143.6026432237387 4.870260149780604 0 0 -1
518 1 128.8321264637843 147.2722735794687 14.378345605727302 0 0 1
61 1 125.06397465269946 129.15121480378826 14.042732453993708 0 0 1
490 1 124.11584897615877 127.29395557198961 15.979615034190406 0 0 0
159 1 129.14232339879317 129.33785089359196 16.41809846603577 0 0 -2
213 1 127.97382710242738 127.07976679188474 17.043655194186606 0 0 0
485 1 130.64546044356263 126.1263438573503 16.953970185835 0 0 1
65 1 130.8864337093432 126.4131575954643 0.5367730063464001 0 0 2
203 1 132.4804416757917 124.11448746641489 4.278948650504872 0 0 0
139 1 129.93696089833674 145.05396616436855 15.444792610175508 0 0 -1
40 1 120.63743543229504 129.18205523935168 13.030481193726533 0 0 -2
503 1 120.827561153818 129.52768259450096 19.33011005050843 0 0 -1
253 1 132.20479974281636 129.04307399335826 17.249753091155295 0 0 -2
493 1 133.96036146545558 145.55934533546446 9.658534174235466 0 0 1
46 1 122.34511664570104 130.49546647712512 15.04195425073741 0 0 0
231 1 126.8545240653395 131.0869418675237 15.189686417059798 0 0 0
110 1 122.90542048766457 129.27548588917438 17.377271897175337 0 0 0
295 1 130.84001641754324 135.6189709630365 18.460867971019457 0 0 1
393 1 127.66577374197115 132.7358590945488 17.600507660667798 0 0 -1
153 1 131.61729922941947 130.98579900863598 15.186426868079614 0 0 -1
400 1 118.7712575859111 136.30294473194408 18.165297930770315 0 0 0
133 1 125.466460970992 136.99679152899745 12.77223819237553 0 0 2
21 1 123.7242506246967 132.8521539283062 17.898837920716606 0 0 -1
448 1 130.22981980236682 133.56714525225323 16.06053962767133 0 0 -2
413 1 134.45543813982064 127.63824895402173 15.979448059581184 0 0 0
239 1 120.4839237667755 138.62784703024192 17.296865082322533 0 0 -1
8 1 129.52448915203212 136.27799992590977 15.628736556351859 0 0 1
176 1 133.09929952159922 136.51238962949492 17.03631929231786 0 0 0
362 1 123.97924421439562 136.64318817766966 15.03186476549691 0 0 1
411 1 126.18933808649966 139.18036737649697 14.595812788670461 0 0 -2
43 1 128.3960382245709 140.13787668052987 13.375896391481035 0 0 -1
450 1 132.07927188926462 138.70560600195287 18.820946142925067 0 0 0
79 1 123.22378316169517 140.67639987342082 15.688857593676053 0 0 0
25 1 130.59038286021774 140.51591667609404 15.02184077902474 0 0 0
471 1 133.22900360611834 143.27660557081165 15.844631748723947 0 0 1
461 1 134.23770165820628 123.86035431605555 15.021771596850662 0 0 0
208 1 127.61586362807488 143.06754862240288 16.185047484071774 0 0 -2
1 1 125.98295478114075 144.24869484251727 14.27984635693447 0 0 0
221 1 126.29635870389973 146.86841864631586 15.25365294602229 0 0 -1
100 1 132.91641405228756 150.608774052708 12.680322112989462 0 0 1
216 1 132.86233244488866 146.33657048490656 12.69621380607332 0 0 0
429 1 133.6797444581715 148.22635781521635 10.19697632095102 0 0 1
307 1 130.2043164146436 147.29283892456712 11.598692299070294 0 0 1
130 1 134.4049142382474 148.6831034400754 0.9361297247525516 0 0 1
167 1 132.77289825721257 119.74324190831578 18.646262719798234 0 0 -1
444 1 126.4879424604135 125.31640722411716 15.655073461856626 0 0 -1
270 1 129.44119782000024 122.44897060159934 1.2799832528584727 0 0 1
458 1 132.9731813381822 124.4440837270498 19.228827824090367 0 0 0
508 1 127.21199781576071 144.34329467755754 18.529534629573412 0 0 0
269 1 130.22036016048796 124.66296934645788 2.698393260725232 0 0 -1
259 1 125.70572576063587 130.26782125342945 1.0164547550729384 0 0 0
147 1 128.3154516716816 127.26407264453641 0.24983474399620959 0 0 1
391 1 128.4472989042457 129.96947344309885 1.4190972979456964 0 0 1
395 1 133.84841401812812 119.08795925824168 3.2740360273005837 0 0 1
436 1 119.51392293025722 132.13492021552184 18.29628075890308 0 0 0
30 1 125.42015560505243 130.52795193203 17.86757703858382 0 0 0
163 1 123.8567586460778 132.03713153285673 2.245476775676749 0 0 -2
496 1 131.50954806968687 133.00266986854132 19.22717041069783 0 0 -1
245 1 133.45349004976222 128.74038411890197 13.051574313532877 0 0 0
410 1 122.01375880969655 132.2763007740833 0.3721041227761846 0 0 3
19 1 118.19979873493962 134.05394931540044 0.3746438927783752 0 0 0
252 1 121.80628508416105 135.43947112954174 18.718246846221476 0 0 0
51 1 124.82669353359903 135.07515691687584 18.907087076809717 0 0 -2
174 1 130.5873123281437 133.6997299658975 2.080901595159465 0 0 1
17 1 133.59037203813617 134.6947946541954 1.6730307036566834 0 0 1
184 1 123.01724440897416 138.72023427671039 18.824846481549965 0 0 -1
452 1 124.88050829885348 137.30479395444002 17.41503147939782 0 0 0
399 1 127.47522261759516 137.83340970722236 16.914580873265773 0 0 0
232 1 129.70374089292903 137.95399018495968 1.014998546887157 0 0 0
113 1 128.25922208569875 135.68498254369229 1.704489320932235 0 0 0
67 1 132.94730364882824 139.15449128339594 2.9745692750159307 0 0 0
18 1 123.585499081092 139.68390596002624 1.8415226338534327 0 0 2
20 1 126.01860593403015 140.88511955854136 17.152895670694793 0 0 -1
313 1 128.06417018987406 139.66503296812067 19.170724174701952 0 0 1
53 1 129.6982048164577 141.2227107663353 17.556752683595594 0 0 0
403 1 125.30261763623594 142.9891462169731 0.6704859767629406 0 0 1
83 1 131.16244559230594 143.11956576659722 13.983006633395444 0 0 -1
108 1 134.78190866806366 149.3934627443224 6.9362756323110055 0 0 0
470 1 133.53161496404152 131.04313085121498 19.115487882850868 0 0 0
343 1 134.64916985520176 138.23576860291428 12.611963346986563 0 0 -1
297 1 134.55188016216172 139.81397221596643 16.65801830347046 0 0 0
418 1 134.98790757518225 119.98422224226358 10.836569885014464 0 0 -1
135 1 134.95020357524768 119.45688938798008 17.206393898831138 0 0 1
378 1 141.09624694357854 121.01111495453826 1.4513311242114826 0 0 1
10 1 138.32782224057587 119.75037287584006 1.817957020247818 0 0 0
310 1 136.78288161108512 120.81942986978949 19.04417011083772 0 0 0
96 1 140.70166248949312 125.66434288166964 4.484401720684065 0 0 1
384 1 141.36394102571447 123.64614454487744 0.2475985361351004 0 0 0
367 1 145.13810452457875 125.32671168360487 0.8973969678021836 0 0 0
169 1 144.34520297700323 122.68711457686545 19.207437345073885 0 0 0
164 1 136.68872541216152 124.3307147100554 2.385965758171519 0 0 1
516 1 140.09230176617112 128.79630915687565 0.6968988601834699 0 0 -1
298 1 135.7672481534574 130.7999101215441 17.083977529085775 0 0 -1
287 1 144.62551005009416 127.50890012131003 19.16363621102438 0 0 0
123 1 137.85826067953386 130.4869513704939 19.389851014122147 0 0 -2
138 1 138.36182787134803 128.57582970061202 4.52716757512214 0 0 1
456 1 141.0288558498608 128.9875177520102 17.72406703672713 0 0 -2
227 1 143.445985021246 128.87137063065796 1.745020947413153 0 0 0
385 1 146.86053678081768 129.00990785585518 18.662639363549594 0 0 0
109 1 136.80131882175743 133.42414845046963 17.902474573291673 0 0 -1
420 1 141.29872362831486 131.08010240358004 2.2268805304145527 0 0 -1
144 1 145.94229944948825 129.47716810756782 2.9436293750634457 0 0 1
84 1 143.24884471213596 132.90837541833935 3.839423589989587 0 0 2
368 1 144.9165270920311 131.85016231944482 1.9315157403359131 0 0 -1
22 1 150.32664133436288 130.9262830450534 1.8887293837931762 0 0 0
435 1 148.12965898695813 128.7687359866926 1.6043417225370111 0 0 1
204 1 136.13250865273957 129.50709543262923 12.597440093292592 0 0 1
90 1 137.7075126320308 133.45296597973345 1.294986157862612 0 0 1
319 1 144.49634376537293 139.65642814394533 3.7251217308233975 0 0 0
266 1 147.01721647918447 133.32272926891125 1.4554743231900142 0 0 1
370 1 137.26670621598396 136.45283680210827 1.174156966374991 0 0 2
126 1 143.96154564190698 137.5821507043062 18.742529064741127 0 0 -1
375 1 141.97954994448145 139.4218499212671 2.3611837304575256 0 0 1
261 1 145.952595296733 138.68617037801786 1.1130058995031118 0 0 -1
514 1 147.30277226472128 141.0910517762582 2.397236187046301 0 0 0
324 1 150.47403936660533 137.35066367906026 1.2794878143100814 0 0 -1
77 1 139.12483468928784 126.69317889246453 2.2217352213390704 0 0 -1
364 1 140.69316369200715 141.62003822693777 1.1204773245692465 0 0 1
268 1 135.61482147047826 146.658098823739 14.139091662058423 0 0 -1
151 1 143.86290319174384 143.8434848227459 3.3952056450499684 0 0 -1
360 1 146.3153563661358 143.6493548737085 2.1117824174737674 0 0 0
340 1 135.74342701501917 133.62831057268517 4.912191420502852 0 0 1
475 1 139.75882575158286 140.64928792295785 18.022123262449284 0 0 -2
97 1 141.481741812855 144.3243500304729 1.9636598812085013 0 0 1
161 1 142.0833235446426 143.58892423152022 18.611054840130326 0 0 0
478 1 136.47303783368977 143.55837978140937 18.455205890724685 0 0 2
482 1 141.64526490705902 147.76855782040346 4.055899852260223 0 0 0
136 1 139.33621656283808 143.32268787001863 17.32998352405873 0 0 -2
186 1 137.78058798649204 148.89720684592334 3.3282616838599597 0 0 2
116 1 136.61892077387955 118.15069832211388 3.897149908122038 0 0 0
401 1 136.9281922532421 121.57923410985886 3.586648197808524 0 0 -1
104 1 142.2774875101491 121.61761456904532 4.199764662037846 0 0 0
93 1 142.56513329695173 124.1901603181441 2.703813073196029 0 0 0
326 1 136.7134605631402 126.22682291664776 4.7001384463453375 0 0 1
88 1 141.54997047362798 128.33361076810303 3.961163740753153 0 0 1
389 1 145.9708782982543 125.25320611531616 3.238285540954547 0 0 1
6 1 148.5966523839722 126.42869670089249 2.8303000812790096 0 0 -1
396 1 143.0821509660443 134.78273120089872 7.450199094337705 0 0 1
280 1 148.94779583746202 128.17553235845932 5.730810412117411 0 0 0
497 1 139.29989652913795 131.5698163587791 4.260024381676521 0 0 1
205 1 142.45201352416038 131.86587301023116 6.2429071880415945 0 0 1
439 1 146.1235890297818 128.7367694122263 5.812723739850658 0 0 0
202 1 148.90412685277855 130.43687268777907 7.264078063321795 0 0 0
285 1 149.08739198096004 133.24120002201923 3.3765942042398227 0 0 0
316 1 137.60457900890577 147.63748727335985 12.343298195002298 0 0 -1
507 1 139.16963799899455 143.97554769024643 14.74493592720932 0 0 0
76 1 140.44717362146747 133.52016269752988 1.2159979003183783 0 0 1
381 1 138.17684336296608 134.19975820898438 3.7813498434171193 0 0 0
379 1 146.24549865773875 136.0488504966307 2.70852308146815 0 0 -1
238 1 149.26411641913396 136.10707617232305 3.30505990003721 0 0 0
150 1 148.9030863176203 132.9655168656201 6.043286444751067 0 0 -1
388 1 148.43369372377438 138.1126380388145 5.176327959656933 0 0 0
241 1 136.87517238158046 137.27604530370758 4.194457212818768 0 0 -1
41 1 137.5183868152974 140.13685955725472 4.179088435905243 0 0 -1
318 1 146.02680556665075 138.15568606495918 8.40873208890931 0 0 1
228 1 140.4421621597325 139.06365350426066 4.671732541946627 0 0 0
492 1 145.61553126622596 138.12570215140263 5.5142051503543525 0 0 0
89 1 150.0176645957935 140.4170962700572 4.516763287955616 0 0 2
128 1 139.49148252170656 125.86183253537942 10.559590431127264 0 0 0
47 1 135.31102464198676 135.89615176203148 10.615101153848263 0 0 0
223 1 139.22272793130142 144.15824305609357 3.792790952751003 0 0 1
519 1 139.41558712922756 141.99348196106007 5.775705124570534 0 0 0
14 1 143.69646655104765 141.85384157322906 5.145946052414895 0 0 1
407 1 148.36513222850976 142.9341845584194 5.0254220837424555 0 0 0
224 1 150.275804036551 140.1422162820705 1.8781570937595438 0 0 0
39 1 138.57395027100443 147.3758335058294 1.0587141071398676 0 0 1
294 1 137.42742546387376 144.81418435476587 1.4241056444382252 0 0 1
335 1 143.8899465767777 146.42986403751198 4.673636746518172 0 0 0
52 1 146.77988048859075 146.82446708341791 5.709806226272271 0 0 1
325 1 148.24473019194963 145.2890603144134 3.669865134141932 0 0 2
257 1 135.64474684091994 151.2396741934247 12.47082596841948 0 0 0
376 1 141.25207408323692 147.03785709492206 1.496977399869255 0 0 0
121 1 139.92531898335687 149.88361879829122 4.8931960419838 0 0 2
289 1 140.93091652235077 121.75991430892387 6.9402193542284705 0 0 2
103 1 138.4259143639571 120.72595239561302 8.313040889447825 0 0 0
115 1 136.9244477201646 150.69222550545695 14.91881636956753 0 0 0
292 1 142.63308651837787 122.20467147955182 10.108951226132517 0 0 0
348 1 136.82804264329036 139.98654169141568 11.512705331814617 0 0 -1
235 1 137.19871854014565 125.51981580271901 8.893375996855905 0 0 0
488 1 139.56358872495707 122.72548917229497 4.561418330070087 0 0 1
357 1 139.47851122682442 124.25897418429457 7.243659371990824 0 0 -3
404 1 144.95146498397807 123.02310356217754 4.6403185502633315 0 0 -1
459 1 142.60101260976566 129.0702324024986 6.562742929312464 0 0 0
300 1 142.77312259975668 124.43661230617576 6.246679030507102 0 0 1
71 1 148.88572268302048 127.34655981328382 8.571161032278171 0 0 0
293 1 137.74692901247516 128.6702000173654 10.168657475459336 0 0 -1
510 1 138.9960108422751 130.94515291169824 8.738717118578483 0 0 0
425 1 141.22363190707 130.8521122429456 10.692584600962723 0 0 1
369 1 143.14302917719385 132.47224004384572 9.525304409464656 0 0 1
409 1 144.2841885114754 126.7418065469036 5.136615862609169 0 0 -1
131 1 136.6764601423754 132.5769419428538 7.985101203793319 0 0 -1
406 1 139.74002410139207 136.33939881091018 4.730818766686428 0 0 -2
481 1 147.5781174078638 130.65822037824236 9.78256972770875 0 0 0
249 1 145.09716533119752 131.0342287961198 7.520866799365624 0 0 1
288 1 151.39799606675038 130.26326354083093 8.333287780765625 0 0 1
304 1 135.69424051782158 135.8525149849729 6.607841584438467 0 0 0
85 1 136.90838446706155 128.1461101762739 17.4988333045842 0 0 0
107 1 140.19037609121074 135.5455452367853 7.305208041600622 0 0 0
127 1 145.1285059173493 135.19270347381257 5.237499556379532 0 0 1
255 1 146.44622238731912 133.586921867918 6.93006833071307 0 0 0
328 1 150.8692186905721 134.35824146928204 7.3210122266703035 0 0 0
50 1 151.75627092428118 132.52108652602487 9.540178887593829 0 0 1
81 1 142.4899861638903 146.28606009137494 18.343478740772486 0 0 0
129 1 139.1618471722857 139.87129329581546 9.053883958569585 0 0 1
437 1 141.64527793363996 139.11800634016413 7.621394410378332 0 0 1
117 1 146.3404785066045 134.79214823557325 9.464755287981362 0 0 -1
489 1 148.91520896961777 138.09369599665945 7.993603578515063 0 0 1
311 1 136.94522752339842 143.6678727685066 6.164749532536382 0 0 -1
207 1 141.85150301873773 142.18282833002488 7.205630035477033 0 0 -1
199 1 140.36257120567112 141.91879883366482 10.647067898768096 0 0 1
106 1 142.88269888949932 140.7438894750422 9.52158067121463 0 0 0
45 1 148.75930808696617 140.64674836924473 9.260890743862134 0 0 0
338 1 149.9066010072305 142.6162174017916 7.446664390399712 0 0 1
480 1 146.16190223483704 142.1616520995984 6.446153173021352 0 0 -1
262 1 136.49037527021744 144.96684919187987 8.510920121943373 0 0 0
250 1 140.48516464216473 145.96144705635862 5.707004698881484 0 0 1
466 1 142.88238674337504 145.22145332471592 7.229889567949853 0 0 -1
36 1 145.7054778482168 144.56959340447355 7.199553472883991 0 0 -1
484 1 136.93468310582713 130.61264811002093 2.545224305648671 0 0 0
386 1 137.20496521686297 146.35037395784698 4.909590426350236 0 0 0
74 1 137.36569887365104 121.5497919264517 10.883841540667053 0 0 -2
346 1 141.31254049075525 126.62039987896394 7.990913217453315 0 0 0
312 1 137.6586648595001 123.12506932489558 13.329787516409505 0 0 0
398 1 139.49224543720072 128.6063816911348 7.158241419123524 0 0 0
408 1 144.14200457970352 125.62406062812674 8.547497606292046 0 0 -1
111 1 136.80273378434643 147.98575866435746 8.117197024203017 0 0 -1
382 1 136.5759451679237 119.55759880251023 6.5370599616596365 0 0 0
421 1 142.37579802595968 132.21651018073783 13.320472155790332 0 0 0
473 1 144.47463424158735 129.54948267676312 10.163642453830926 0 0 0
60 1 146.11791643973572 127.56913382475972 8.60968043391551 0 0 2
185 1 151.44247870461632 127.98549056337254 9.75750840601817 0 0 0
428 1 137.7565065463976 146.12950882093358 17.96409990173774 0 0 0
237 1 139.9819977252243 132.57564076616043 6.83729856267881 0 0 0
124 1 143.4327271407897 134.54854313459415 11.975160459861575 0 0 -1
230 1 150.36699752169127 128.7942716119398 12.069405505265216 0 0 0
321 1 135.35614180185934 128.00735353086526 2.2507265943774666 0 0 0
302 1 138.43270202076883 137.4341600892813 10.330835775430508 0 0 0
315 1 144.15520092292803 136.37499770653764 9.452569743152077 0 0 -1
412 1 147.24159229656317 133.36494381668808 13.105674823125968 0 0 -2
306 1 146.5261802762836 137.71621516033505 11.433908536666372 0 0 0
34 1 145.65127527019766 132.40605615799407 11.039013564853114 0 0 1
417 1 137.32277801393766 135.27542923636003 8.643149374402041 0 0 0
162 1 135.7325162407646 148.18321938238276 18.074552576200176 0 0 -2
347 1 141.19425422450607 137.32462481186093 9.542546335948167 0 0 1
455 1 148.58346418890363 138.47810817388458 13.0408442721684 0 0 0
317 1 149.13594907070356 135.57369953076605 9.224168827798461 0 0 0
483 1 137.2362021543868 142.49375601853865 10.103066475306706 0 0 -1
263 1 135.55169999747943 139.1372633093839 6.2674369710636455 0 0 1
337 1 142.38456706600525 143.85664201691887 9.768491254350032 0 0 1
445 1 141.88256977554911 139.0139095568006 11.663249812308822 0 0 -2
3 1 139.2944474157988 146.6767515344211 15.506127527017059 0 0 -1
243 1 138.02511770049495 144.9908914560646 11.620345814900581 0 0 1
486 1 140.95107728317794 145.59230362473167 11.596452794593187 0 0 -1
332 1 145.04998727837025 143.7160966032588 10.290921698795929 0 0 1
63 1 145.82055396160257 140.81449002517286 8.905438603445278 0 0 0
495 1 137.7806170678508 141.78924102637137 1.8801647796474381 0 0 2
363 1 142.46479176142486 147.7004873064517 8.724731628982527 0 0 1
333 1 139.7950375465281 148.13522816042178 7.3074150340482715 0 0 0
353 1 140.83719194210235 148.2776943530741 10.98590814558103 0 0 0
195 1 140.05760804527077 123.0076441666651 9.968962093010461 0 0 -1
200 1 136.13448620151755 121.56016546448255 15.37551604805919 0 0 0
187 1 140.1696911149883 124.40266782457611 13.197903692879075 0 0 1
101 1 144.01670466751807 124.62992453931534 11.119224254667476 0 0 0
469 1 135.63464025868376 125.00870668059063 12.720934486131348 0 0 2
366 1 139.46132011813705 128.31809674519732 12.515486254041692 0 0 1
468 1 142.00190402334843 128.25947011879748 10.384900770373095 0 0 -1
438 1 142.26811766922847 126.5005363642577 12.36231796922404 0 0 -1
405 1 146.09163441011304 125.9363494014758 12.77434519968871 0 0 1