LAMMPS data file via write_data, version 29 Oct 2020, timestep = 5000000

519 atoms
1 atom types

2.9476800912531758 267.0523199087543 xlo xhi
2.9476800912531758 267.0523199087543 ylo yhi
0.21834667342635683 19.781653326573892 zlo zhi

Masses

1 18.015

Atoms # atomic

498 1 44.76401396204883 39.19350324164331 2.43722185853197 0 0 -3
107 1 49.01907021439539 38.41229199339684 3.2457292053320215 0 0 0
45 1 46.93319600408146 39.5977206920823 0.413520221544054 0 0 -4
446 1 51.70377434835881 37.59352902712979 3.317269676621199 0 0 1
50 1 54.65083921204961 37.341597458974796 3.6474911921961795 0 0 3
393 1 56.34258230339882 37.62657821073074 1.1805508976402672 0 0 0
175 1 42.82476862256537 42.69114251319881 0.6905792897150439 0 0 -1
53 1 48.18555825195142 41.882061432590014 1.2751865560249707 0 0 -1
503 1 52.66880472569252 40.03342527940525 3.7060916424004358 0 0 -1
453 1 56.48320844099468 40.47089093722729 0.9056069801985644 0 0 3
200 1 57.103301453017146 41.44376551822093 3.5088305336752943 0 0 -1
141 1 61.00870271802143 41.268419752205666 1.3248786310083054 0 0 -3
70 1 40.49922022677961 43.35761823336131 2.018542349346868 0 0 1
215 1 44.48877172651437 43.343936800662036 2.8657374392358803 0 0 3
342 1 47.081423714954155 44.23382462161122 2.0939081155506316 0 0 -1
220 1 51.200826056144294 44.35770370642244 4.420573730351354 0 0 4
160 1 50.92697544442951 43.26245645055267 1.9501012899521146 0 0 6
75 1 59.68084073545128 44.92074207050531 0.6124779827362736 0 0 3
277 1 59.129040133028724 43.32891846709403 3.0292995780016905 0 0 0
500 1 63.79458169396499 44.44660631720463 1.8685943459382692 0 0 1
405 1 40.34409476926206 46.2710515743773 1.784538208066852 0 0 0
361 1 42.76841784210489 47.28016330140998 2.6730661640791618 0 0 -2
113 1 44.73438298625622 47.99912389036007 0.6944336461145413 0 0 -4
89 1 47.77451762437798 45.86897404108069 4.202283567331835 0 0 -1
31 1 48.94563235924846 47.97136232748716 3.178995600912188 0 0 -1
486 1 49.349526176291526 47.356107099203655 0.43611202714421476 0 0 -1
111 1 53.282505653090055 46.70384047420981 2.936557154831658 0 0 -1
465 1 51.57797065197653 45.94395822141141 1.2202935326913684 0 0 1
135 1 57.589312169041236 46.066290918184706 2.761663069993655 0 0 1
196 1 62.682056986829345 46.75934268394947 2.7497719560292637 0 0 -1
232 1 66.26284931740493 45.15891795129766 0.8945483347380222 0 0 -1
340 1 41.8779240489552 51.48342714200244 3.0112843851029805 0 0 5
129 1 46.00837436205244 50.53018360389743 0.8612126528985541 0 0 2
41 1 51.39672840223519 51.47972953431532 2.249981831195681 0 0 -3
181 1 54.795437361964005 48.95543222894159 2.3643938327968055 0 0 0
136 1 57.813561976616164 48.492746834757554 1.475242090557122 0 0 0
360 1 61.08584598193432 51.19295760593061 0.7950910474631353 0 0 -1
236 1 64.63246940167782 48.89432948543319 2.434481825547199 0 0 2
226 1 66.7793540707086 47.07863880115812 3.102742341146239 0 0 3
488 1 39.43584162142985 51.97621755763767 1.805629280879352 0 0 4
443 1 40.90073098819782 54.37919899460957 1.074683213068674 0 0 1
139 1 43.70837193736718 52.067330377842346 0.6533773144201352 0 0 4
295 1 48.547699321263494 54.871069601780064 1.101298307368762 0 0 3
103 1 50.6735114273662 54.14779447333693 2.05491050794825 0 0 0
28 1 53.59166575531052 51.28109394517312 0.7840689866366333 0 0 0
420 1 56.152627056848125 52.14781974768176 1.8238216493508237 0 0 0
419 1 62.61530417900297 53.62958017028246 0.5714447334333523 0 0 -4
397 1 65.33843475127553 52.936018558556725 0.6332011656045912 0 0 -2
345 1 39.17868585448056 56.630095490102356 1.3221664013425884 0 0 0
287 1 42.09829126623507 55.37917682845314 3.461765055493143 0 0 0
422 1 44.56437527815272 55.53092668445391 1.858294297605582 0 0 0
371 1 46.90867636887459 54.80828598960593 3.421854311671133 0 0 0
298 1 52.7697071248902 55.51653610564889 0.8207777573667256 0 0 -3
481 1 55.27565648610926 54.90985843245432 2.3599045347166276 0 0 -3
319 1 57.356301512819826 56.803259748321324 2.1899169001680465 0 0 -3
193 1 59.01065518700006 54.483651338615665 1.2318009577096432 0 0 -1
330 1 61.99204935900953 56.15294903216715 2.373568722540129 0 0 4
97 1 64.68968224407485 56.857362717378464 1.3812565570442588 0 0 3
86 1 38.69303048056117 59.02807604619527 19.515061485443127 0 0 2
114 1 45.07591782126468 57.89665782613568 0.580554589141125 0 0 4
490 1 43.50178277267232 58.4169696880711 3.4392469953783977 0 0 3
423 1 47.67361984943629 58.24892552272741 1.5989843438369982 0 0 -2
438 1 50.48227488714222 59.60472764603768 1.8199289781005183 0 0 1
49 1 56.14290251380231 59.53645646546228 2.762522540304531 0 0 0
309 1 60.03363761792815 57.71653889316592 1.1770062788405111 0 0 0
33 1 60.71365344843111 59.0806253197027 3.35941549418196 0 0 -2
460 1 40.8618456082024 60.80321307690869 19.777276370532462 0 0 -6
377 1 39.376890694766324 60.86465651908842 2.6923001411862324 0 0 3
305 1 43.321566594869886 62.4574518616584 3.059849880169835 0 0 -1
73 1 46.729150956009484 60.67809676374181 0.5833497329290381 0 0 1
454 1 50.32340441925456 61.98203426112435 0.5026036518025353 0 0 1
286 1 54.99344863180361 61.30586161621203 0.5522912641465184 0 0 0
71 1 58.61141128537501 60.70902613975146 3.5242520062467086 0 0 -2
499 1 63.043799252282575 60.57224035178298 3.2070487226970426 0 0 1
43 1 46.44845377338247 62.81541829657346 2.1892277826687323 0 0 1
246 1 48.97864197199154 63.821213415004294 1.7906369164561342 0 0 1
46 1 51.89062547019379 64.77575637023243 2.8681813921425077 0 0 1
267 1 53.85250114082517 62.702694018695446 2.909699347460582 0 0 1
146 1 57.959114064942696 64.67409514968703 1.8718939707201072 0 0 2
153 1 59.75407442135381 62.542171112833735 2.0214478468583894 0 0 1
203 1 61.793405610244434 63.04964561998485 3.635410255000003 0 0 -2
180 1 48.825350300440284 36.952666838422914 5.488612442324054 0 0 5
55 1 51.026502464074674 35.305875699342224 5.3711093039941264 0 0 3
394 1 54.76100756017238 38.27178684055784 6.2186309557221575 0 0 0
134 1 58.634731195391566 39.71742071359461 5.516689543063294 0 0 3
318 1 61.10208298491185 40.472056382232005 6.888742270908513 0 0 0
91 1 41.64594116934851 40.32647471033309 5.254121339763357 0 0 2
269 1 44.16956803018367 40.985316983421676 4.2784501169459075 0 0 4
240 1 48.53742126503351 40.8647452033778 3.8346655398466867 0 0 -2
102 1 46.577020413519186 41.1537972563784 5.707365889918126 0 0 1
25 1 50.854790803710806 41.837958959844094 5.173043733374159 0 0 2
235 1 53.662701966703374 40.633380244434285 6.625706564134165 0 0 2
18 1 54.976298915313244 42.635018994603875 5.276204074732416 0 0 0
480 1 61.59416175302049 41.76548352133302 4.157599671008282 0 0 5
248 1 39.032722708599145 44.90329733585136 6.043228487596309 0 0 1
353 1 41.41228380340899 43.311466352417 4.6430623202274806 0 0 1
296 1 43.28344108622943 45.29390431323276 4.535517537451812 0 0 -3
147 1 45.85413603506763 46.21323591324022 6.253409789491083 0 0 -1
65 1 49.247318403151134 45.04622214738801 6.573031030232636 0 0 1
58 1 54.310665671986676 45.1788345185109 5.15769741515719 0 0 4
271 1 52.85137554528951 44.94167656741512 7.373836149370337 0 0 0
5 1 57.936187968971836 45.15548123160277 6.978513552507752 0 0 2
320 1 60.375717375609256 44.73210295076357 5.431825999775316 0 0 -1
502 1 64.14849264895392 42.70312007664639 3.90224253528386 0 0 -2
1 1 65.25425797851783 44.03612299579151 5.994973759306423 0 0 2
17 1 38.82261525668937 46.99280295856141 3.8062227096532206 0 0 1
351 1 42.76491086786349 46.4397756014711 7.198903409081917 0 0 -3
230 1 51.63378431834097 48.03103479693917 4.375797382764735 0 0 2
519 1 51.73604098283791 47.42955387403338 7.047502565552274 0 0 -2
374 1 56.3375829025699 46.64054301770698 5.124738565186453 0 0 -3
315 1 60.202742822536386 47.18140904582944 4.547577076024504 0 0 -2
167 1 62.57806150096796 48.00548236389051 5.84473995694002 0 0 -3
381 1 65.06974292997856 46.724324474697 5.279792194044554 0 0 5
437 1 38.861013458941706 49.44068527639836 5.136010822215028 0 0 1
513 1 41.548810085846284 49.323876215489435 4.331597837300714 0 0 -4
247 1 42.86102843510193 49.35527450079286 6.800186016266906 0 0 3
290 1 46.94166723583369 50.00566671134016 3.6095955091124963 0 0 2
259 1 52.594293432195435 50.67109666463154 4.394372891631367 0 0 1
208 1 55.526065462336874 51.349150381285455 4.262099661479087 0 0 -1
152 1 56.41918579175637 49.46673726396165 5.999450587012429 0 0 0
169 1 62.391877695784245 50.005705983770014 3.8390712141407755 0 0 -1
67 1 59.66969948511626 50.09401989903316 2.996231938588845 0 0 2
105 1 59.140885984408015 49.392612261353804 6.4854781979260645 0 0 0
243 1 38.163647939653046 51.98935666075407 4.395611918936305 0 0 -1
188 1 41.801365170747715 53.26603169963827 4.929269734437989 0 0 1
159 1 39.47556251527933 53.30254530211153 6.393996898751569 0 0 3
198 1 44.39695167490007 54.05696924336989 5.887103891091275 0 0 3
122 1 46.795566214363525 52.43755216603783 5.395869842780621 0 0 0
301 1 49.09285715771031 53.850849154166646 6.836232963150541 0 0 0
82 1 51.68779380423959 52.24800666702009 6.426887487799597 0 0 -7
249 1 52.86498669302721 54.99947131946474 6.281935595730065 0 0 3
388 1 55.396957266136916 53.92083637460535 5.311525087238813 0 0 2
204 1 58.429527451729875 52.34588384385501 3.922287593639339 0 0 1
403 1 60.26723535236442 54.3112405872693 3.726638853464187 0 0 1
124 1 62.65143286977026 52.833887349660515 3.737051183912471 0 0 -4
424 1 63.83708238308728 53.74936907907892 6.205984618153644 0 0 0
505 1 65.54314964336457 51.49503723235214 3.035646737454874 0 0 0
329 1 66.30619428998146 52.813493594478906 5.580016963670696 0 0 -1
327 1 38.07844540991766 55.59092436397015 6.529910888102072 0 0 0
466 1 44.792090324561876 56.788433209456215 5.382821814871672 0 0 -5
467 1 47.271563194002844 57.45221541118941 4.250084761850294 0 0 -1
270 1 50.05102024718729 55.5164991052372 4.588425727357218 0 0 3
244 1 52.86588985317312 56.588418011549685 3.735800358833184 0 0 -3
469 1 57.17171459389254 56.333947762988856 5.277527957407505 0 0 1
6 1 60.09911905504835 55.727999351362634 6.160861158029566 0 0 -1
471 1 63.267821687877024 56.228394360056676 5.11530154293143 0 0 0
174 1 65.72242868839542 57.0858062803496 4.083071928675631 0 0 0
194 1 67.42659807796605 55.52186786712698 5.413070665849301 0 0 0
517 1 39.32684469550472 56.73409341299935 4.050347929983348 0 0 2
161 1 40.87237989432491 59.01488945717879 4.227862985752387 0 0 1
288 1 44.763121592545005 60.65183222337356 4.4761043078487415 0 0 1
431 1 49.37838891414924 58.125229037100894 6.125710713875682 0 0 2
24 1 51.362781061467146 58.9509973780701 4.203366029071385 0 0 -4
322 1 54.88822950900381 58.03177004117278 4.755138620417592 0 0 1
518 1 61.2229826831157 58.50451107358771 6.171332420372327 0 0 2
266 1 65.41183885162634 59.96662453680058 5.058144796252898 0 0 4
170 1 48.31047241747748 60.771628641039776 6.842387917937995 0 0 -1
485 1 52.61567383801401 61.52356555862881 5.015969162379897 0 0 2
441 1 56.751004042361 63.139441687656266 6.845551797783874 0 0 1
214 1 58.9983649779761 61.9513704221212 6.022155799556974 0 0 1
304 1 61.247462376570255 63.515132650413676 6.252339198916011 0 0 -2
324 1 40.93062210366643 62.66096058801621 4.4526306988397355 0 0 -4
138 1 47.259324628855694 62.467767603701446 4.95682200001029 0 0 -2
155 1 49.63514348183275 64.02067263613291 4.664356432173498 0 0 1
101 1 56.16698179065307 63.7591180999968 3.9969241711850327 0 0 -2
40 1 58.95259382429558 67.89966636280738 6.0682914837352415 0 0 7
239 1 60.59249915269282 65.76697189303937 7.687925865203219 0 0 1
185 1 53.11439896001462 67.14225983999442 4.1580628157696795 0 0 -2
410 1 55.38471086181693 66.4469541370968 5.203286624150137 0 0 -1
333 1 57.65734967625255 67.33030067412797 3.456398478673526 0 0 3
475 1 46.84319028705871 38.67314926429009 7.165975669641508 0 0 3
464 1 50.705746563847185 39.07721719207568 6.578840022290338 0 0 0
62 1 52.624071782531885 36.82768139785223 7.157208795758785 0 0 -1
411 1 52.4863534989585 36.73305535965929 9.957703634867109 0 0 2
14 1 57.26097808134035 38.0244431648431 6.820794879282601 0 0 1
119 1 56.72420241071812 39.16180541272355 9.242067418587828 0 0 2
11 1 61.37556575608002 39.42675150695334 9.557491095523057 0 0 -4
118 1 42.09861236996903 40.35410807556262 7.9152770525932645 0 0 0
359 1 44.60237181153434 39.250153788026545 9.000968316253816 0 0 4
272 1 49.10532413018872 39.554434671660665 8.635334929409575 0 0 5
26 1 53.0510243166908 41.1037565480064 9.452785204904572 0 0 -2
76 1 57.491826590757945 42.03164475672599 9.67027419897299 0 0 2
48 1 57.2751077316836 42.53627524153401 6.914013709378808 0 0 3
77 1 60.20189501446498 42.18082514123959 9.016589849616254 0 0 -2
59 1 40.00292093641422 45.150394376161415 8.714940854841428 0 0 0
223 1 42.09797747485214 43.07917533722313 7.79372983248685 0 0 -3
202 1 44.58528910281913 43.662270784160576 9.08930187683932 0 0 3
354 1 46.90282986329093 43.51152229271917 7.1662876971993485 0 0 1
448 1 48.81322909953336 42.4988615430981 9.076650118849305 0 0 2
348 1 51.332638612593435 42.68081878395953 7.875191905242877 0 0 0
383 1 49.26208528120184 45.09852943090295 10.122018449823246 0 0 2
16 1 54.232303615558195 45.871077011010385 9.667520701792832 0 0 1
496 1 56.74277891168501 46.650226399094166 8.756076091709444 0 0 -1
457 1 61.30999051115838 44.62224589627791 8.038645923231694 0 0 -2
120 1 63.79527354546927 44.111543392957834 8.128648178816274 0 0 0
88 1 40.81809306942237 47.895525060700024 9.246503324806158 0 0 -4
452 1 46.67901839219828 48.14533974332321 8.629713800026531 0 0 -6
30 1 49.32597961743379 47.16553354345542 8.214039119253123 0 0 -3
338 1 49.44220820057422 49.516536042788104 9.959453390660935 0 0 3
2 1 58.9997605322075 48.770110624974286 9.328314301330217 0 0 3
106 1 66.78168066905226 47.95530831441004 8.036618809357067 0 0 1
104 1 64.91953889359219 46.635535209881276 9.214198325960618 0 0 2
117 1 38.71782974461025 48.93951114980585 7.967970577683291 0 0 2
47 1 42.46982619997228 50.88010917908966 8.931991129196406 0 0 5
321 1 45.516583225411225 49.12688881150093 6.042587933091465 0 0 -2
57 1 51.99433241528862 51.58903187377736 9.073306568194186 0 0 -1
207 1 52.90259436121391 48.88044097271846 8.7252861499855 0 0 0
310 1 55.57331708807062 50.048555726509974 8.45295641765802 0 0 0
42 1 60.72752464278378 50.66175443757335 10.277614718076906 0 0 -2
32 1 62.58836360618405 47.89627008786314 8.690381400908226 0 0 5
63 1 63.66654996999695 50.597776388891624 9.07787447982712 0 0 -3
282 1 66.35010472427908 50.934729525599906 7.9267799070516265 0 0 -1
406 1 39.567516996292696 51.58091832253507 8.732460869945204 0 0 1
72 1 41.11023202702224 54.109877689730524 9.04038225890178 0 0 3
195 1 44.178403644241875 53.312419091001665 8.461350467146591 0 0 0
142 1 46.31285404656609 51.191489937311026 8.358662969935386 0 0 2
69 1 48.984850606738824 52.16208708364698 9.12144233831328 0 0 2
213 1 56.081192109546016 52.74664116695782 8.248482903037914 0 0 3
78 1 60.170670669621195 52.109545166716366 6.544356722500553 0 0 -3
336 1 58.74477358603853 52.82588008451849 8.91961514553015 0 0 1
110 1 62.3015442741362 52.65486450122684 8.13050879021229 0 0 2
144 1 39.60198211490993 56.44890960538189 8.525533159783954 0 0 2
293 1 44.66864710104359 55.667491432601686 9.83515933457559 0 0 -4
292 1 48.586716229904226 56.09503647858359 8.012744011067914 0 0 1
514 1 51.18781924919825 55.83702364929091 9.4069323783593 0 0 -2
483 1 51.89282603536156 57.738836781375056 7.5913883686852754 0 0 -2
299 1 54.012037688942485 54.719082268841674 9.181205121732875 0 0 1
357 1 55.95060709763882 56.293461169988475 9.989164083521096 0 0 -4
325 1 59.63893215652545 55.45753148666079 9.164893302947696 0 0 0
332 1 62.22015558816798 55.14249505080287 9.588194415438316 0 0 -1
29 1 67.00699005324428 56.63073863763656 7.741787901646358 0 0 -2
66 1 41.431761006574355 58.349902148677415 8.40068503608463 0 0 0
164 1 44.049827295114554 57.68968091695869 7.8439524646338015 0 0 0
39 1 45.718685546737944 59.80067387548906 7.860717741750243 0 0 -2
13 1 51.709525930567494 59.893617139011994 9.559668845742072 0 0 3
375 1 52.7689157502861 59.9651426206338 12.009875030841274 0 0 -2
23 1 54.033479316303115 59.57907639371356 6.854140520483374 0 0 6
60 1 57.818234840391156 57.61160507522586 7.853623662144778 0 0 3
192 1 59.20040770716938 60.010709504328325 8.028235491247125 0 0 -3
311 1 64.03861913303548 56.663984025378014 8.021275981929735 0 0 -1
173 1 63.90382639793328 59.65786096936754 7.356084652709986 0 0 2
436 1 41.44430535902121 60.40863605347647 6.507536508972778 0 0 3
337 1 43.88303606214607 61.61485478388271 7.163140300570996 0 0 1
477 1 49.91313323464685 62.198101242805876 8.50979863619082 0 0 2
391 1 51.67728629958784 63.31725694088011 6.8262415995757415 0 0 -1
276 1 55.25077863141648 61.56723752995178 8.56549316064741 0 0 -8
150 1 62.72965443691294 62.16560992272507 8.209024846595874 0 0 -2
409 1 45.51233448435707 63.85755541410736 6.585858766457847 0 0 1
262 1 49.00792829871755 64.99965843914515 8.52209911411639 0 0 -2
352 1 49.92872539139803 67.63600094715197 8.421171333733179 0 0 -2
389 1 51.894151135451594 66.2656734437165 6.641642189787456 0 0 1
413 1 53.12276293069356 63.04568408494499 9.427514599265606 0 0 0
399 1 57.98428191493671 65.25539187987937 8.231023100986288 0 0 1
435 1 53.81974766496226 67.2208211927939 8.35039004682122 0 0 -4
385 1 56.51162095003612 67.52007202578193 7.5878187011529485 0 0 1
227 1 43.99477747577905 38.2731278077752 11.857695167858221 0 0 0
415 1 53.94885957215335 39.109294575959495 12.95499336589945 0 0 -2
363 1 54.92420608964312 37.6447545004415 10.91137003508334 0 0 2
156 1 59.1324669845392 38.71656814052435 10.832115423702257 0 0 1
474 1 40.08349597089272 40.29589182167163 9.86702742034309 0 0 4
387 1 41.45952654791354 39.52377970847206 12.173140694088444 0 0 -3
12 1 49.113320873724426 39.069569141175016 12.962350056857646 0 0 0
233 1 44.93522669286191 41.35596150310415 11.0114236880858 0 0 0
373 1 49.99297803150732 37.85280598302808 10.733004939933307 0 0 -1
395 1 51.767877518100995 40.34636171807721 11.878707104644809 0 0 0
349 1 56.493004891479494 42.97230442369064 12.6005207012142 0 0 -1
402 1 58.759501969765736 40.585346692366585 13.03556778138021 0 0 0
121 1 59.985172961361286 43.020054271115725 11.862442970575689 0 0 2
54 1 62.21466103205417 41.26074318648231 11.616061688339931 0 0 -2
216 1 38.854499707818825 44.192639224018855 12.852796393249161 0 0 3
392 1 39.82922541879558 43.14317728588585 10.590192680986199 0 0 -3
109 1 42.60165727226706 43.375675970212065 11.59212394510751 0 0 -3
34 1 47.66404068880622 41.596689377164516 11.72611798046374 0 0 4
268 1 54.89049903582755 43.33256513268607 10.332352933219362 0 0 1
199 1 52.9521535829679 43.18260817176014 12.412018661950857 0 0 1
501 1 57.79331213608664 45.622261460142475 11.221728349202124 0 0 -4
401 1 56.966761619208555 47.178388641091125 13.646336499288097 0 0 -3
341 1 60.48426528535486 46.56852752740427 9.995987129178335 0 0 0
316 1 61.15611432379584 45.21881329009085 12.527504375914425 0 0 -5
458 1 64.27477611972932 42.98899937165309 10.467450085614024 0 0 -5
439 1 37.48657460252875 48.406435090648316 10.694621753099208 0 0 5
463 1 39.38220260518015 47.02929949558076 12.445931895363541 0 0 -3
445 1 41.949638653274256 48.52393956573778 11.615895798951009 0 0 1
218 1 44.47207931037651 46.404458145129745 9.783242825501489 0 0 4
344 1 42.914410723826705 46.028286593543314 12.231407852609978 0 0 -2
143 1 46.9238379047771 46.09165856183305 11.473893635279909 0 0 -1
127 1 51.620073359751146 45.35878587773944 11.741207537326314 0 0 0
137 1 52.83041221777515 47.862805266969595 11.323833059040023 0 0 -2
300 1 61.34122801303292 48.599383139548785 12.423965157047101 0 0 -3
166 1 63.87445141507664 45.069732884870014 12.53915542952957 0 0 0
172 1 67.87033127709965 47.54443359127686 12.099974687772576 0 0 4
116 1 65.20585769444519 47.33025278465056 11.739394545612097 0 0 1
447 1 36.46875340876366 50.890875907692795 12.028627206296235 0 0 4
209 1 40.54959642292331 50.45585252759708 13.251561743904093 0 0 2
404 1 44.58849962108205 49.91311996678735 11.06258404034569 0 0 3
284 1 47.07458506997979 48.88539751596808 11.652876436750931 0 0 -4
312 1 50.525121623989655 49.01100437344963 13.024253007537082 0 0 0
151 1 51.90412095629659 50.56610840157604 14.906860913140969 0 0 -5
328 1 56.858354230836376 49.44132562951557 10.80857230050228 0 0 2
487 1 57.68807113288384 51.01088637561741 13.250524897524999 0 0 2
444 1 63.83968049911893 49.41581750252631 12.829221567168478 0 0 0
258 1 64.42673662253809 51.654450436956104 11.24087095813081 0 0 4
449 1 68.80077484067613 47.27608514818972 9.71186149621728 0 0 -2
274 1 39.07075382945808 51.95643076178441 11.379304213260651 0 0 1
37 1 44.02610673623777 52.01635831972498 12.71769393455415 0 0 2
184 1 48.1334709382477 53.739620677189635 11.637074665044345 0 0 1
396 1 50.92559496321644 54.00669853361701 12.23743944975922 0 0 2
163 1 53.043419443028306 52.80512994616416 11.170809118003074 0 0 -2
79 1 55.879040596850224 52.488044791007574 11.247459544701913 0 0 -3
27 1 59.499978485831164 52.58344426319089 11.916252337115342 0 0 3
280 1 67.53747343063985 55.26620899245664 10.284291496434381 0 0 -3
154 1 66.67762630107342 52.507448820806886 9.907051004435363 0 0 -1
510 1 38.76009097649593 56.484131370264855 11.235407970271078 0 0 1
177 1 40.26219168756159 54.38603639886192 11.865944358341013 0 0 1
237 1 43.03702402872661 54.27778605818157 11.560993219272866 0 0 0
429 1 44.210644750337586 56.54390635532928 12.815142501002795 0 0 -2
461 1 47.44551268881011 56.030080205635414 10.65713788117144 0 0 -4
123 1 57.41002489313287 54.52443261886191 11.418957144306566 0 0 3
451 1 62.87854486931913 55.049881548950346 12.262150520310788 0 0 -5
273 1 64.92609835553748 57.166241296988936 12.429745566935804 0 0 0
87 1 41.68562228641772 59.902551528939924 10.79473923375552 0 0 -2
10 1 40.047176314940494 58.32514978887419 12.6875614553671 0 0 -1
176 1 44.11053464014175 59.08441755944269 11.847063184299136 0 0 3
263 1 46.082683473614196 60.37986783476353 10.461986483905896 0 0 2
4 1 47.8793337535357 58.68023073435707 11.86329282352113 0 0 -2
61 1 50.659493403195825 57.717043033825156 11.473210878929658 0 0 3
206 1 55.409238927847355 58.55093350641529 11.723041685738579 0 0 -2
256 1 59.15449492701576 58.18469304170506 10.839728440897625 0 0 1
472 1 59.33725791631285 58.00868603542107 13.573345739053646 0 0 -3
430 1 61.508612787247436 59.55277386878109 11.260800447648403 0 0 0
479 1 64.14585286361441 58.900250326225034 10.081535091278424 0 0 -3
476 1 42.49172251229623 62.464750710659615 9.70386538291284 0 0 -1
456 1 45.12053959472052 63.06308695392936 10.685360300183087 0 0 -2
90 1 48.61289449037948 63.69199033287431 11.289875708116957 0 0 3
364 1 50.48454235227418 64.53092168377313 13.218031707661073 0 0 -8
302 1 52.85789246224733 63.10894792662336 12.247008457466752 0 0 0
201 1 55.29734811436634 63.146698180305826 14.05411391852577 0 0 -3
94 1 56.97255484187991 60.43441812881264 9.932813774199687 0 0 -1
380 1 60.48980931291798 61.73942469873006 9.86364693084424 0 0 3
197 1 58.27282236961486 62.160318987454694 11.445894793429883 0 0 2
478 1 46.26611842782287 64.9877468683495 8.908477407813416 0 0 1
314 1 46.80451594718275 65.42142317958738 12.126289079023284 0 0 3
427 1 50.358716195727986 67.4984880592503 11.407195714820903 0 0 2
21 1 54.353737906221575 65.31345403466186 10.179823005296335 0 0 -5
205 1 57.234717615680765 64.96462704077892 10.742991726190171 0 0 2
231 1 48.268564802937206 67.6162283258829 13.068224544496584 0 0 1
22 1 52.20824538067424 69.23407793924183 9.561185291643586 0 0 2
217 1 57.91633874669444 66.75683727219234 13.016470438653641 0 0 -1
64 1 46.16938892390263 39.56797217856629 13.64646342127015 0 0 1
128 1 46.72838881184143 37.97072106916296 16.089844607682185 0 0 -4
489 1 49.83333553767683 37.268504619510644 15.070725181752152 0 0 -1
493 1 52.63130298801474 37.73437816790312 14.928350804878168 0 0 4
414 1 56.36291334747348 40.212925333895996 16.827297318205982 0 0 -4
362 1 42.203748015055005 41.88230329735303 13.674002303879503 0 0 -1
255 1 44.775036288557615 41.51620663742473 14.453627438672395 0 0 -1
511 1 50.43823104502802 41.99854137417685 14.079458892452475 0 0 0
183 1 56.09789966748922 40.41959947213526 14.01933838343297 0 0 -1
412 1 60.24827368542656 40.829120066388214 15.526153288621156 0 0 3
52 1 62.83963539341057 40.23331358485027 14.357491446399917 0 0 -2
20 1 64.70023854392504 42.03196216147331 16.056860270771445 0 0 -4
275 1 40.280092593956475 43.35459935887326 15.186852855132672 0 0 3
331 1 42.07878431509658 45.14318097737468 16.27782419944665 0 0 0
98 1 47.54894410990853 42.82181352346258 14.373736645818825 0 0 0
131 1 52.17815644022249 44.12757917183534 15.440702336740532 0 0 4
81 1 55.027751581979665 44.47371610834472 14.135286781998776 0 0 0
168 1 59.68949578951879 43.32392126300204 16.122004481177466 0 0 2
343 1 65.1033931394662 44.51262279852344 14.933775189900526 0 0 -6
369 1 44.00504077262559 46.158596311865715 14.88541459869226 0 0 0
242 1 46.57000034902617 45.3889231452474 14.170252938138237 0 0 2
367 1 48.336507416664396 46.890300855706705 15.676099348756006 0 0 -2
346 1 50.509290688914504 46.260484573758255 14.139697501039452 0 0 -1
186 1 54.35798903643314 48.17725876450901 13.56907258596732 0 0 3
368 1 59.76065800763251 45.91306113271402 14.9666587994431 0 0 3
221 1 59.458693737225154 49.17276322055456 14.448161769120405 0 0 0
512 1 61.644623540549894 47.90499878962602 15.944462565944992 0 0 1
35 1 67.69288889985401 44.9494818620345 15.417767444934135 0 0 1
450 1 69.02283099711346 45.04763398303498 12.991011429340757 0 0 1
74 1 36.76909192280489 48.190678335111265 15.888691900880618 0 0 -2
171 1 36.46688058782878 50.69302733455203 14.854873919632803 0 0 4
289 1 39.48001977779491 48.45922836601401 15.12660097170466 0 0 -1
115 1 44.41511273480407 48.540802201523675 15.63590025203829 0 0 -4
482 1 42.99813741893815 50.70876789892456 14.913591476961374 0 0 4
56 1 47.19333444818307 49.50005805203815 16.1398096939533 0 0 -1
335 1 48.11640079855204 50.47727260401639 13.842295318310308 0 0 0
495 1 54.04581536135958 51.173949126574314 13.596466369450981 0 0 -5
251 1 60.539540470722464 51.11260823433295 16.12312762791236 0 0 2
291 1 64.27686895018819 48.95786783006607 15.698366484787488 0 0 -1
468 1 38.94624661421389 51.51273822894957 15.917170410961699 0 0 -9
418 1 42.12193707108342 53.01869217069324 16.48993911607539 0 0 -1
257 1 46.43028521437566 52.951871582627135 13.444159554945584 0 0 4
509 1 50.12164295423464 52.67393362952297 14.486897749818207 0 0 1
187 1 55.99923919238135 52.06820145019306 15.563355265635611 0 0 -2
9 1 59.84004041847165 53.24564013602992 14.602109121849956 0 0 -1
516 1 63.53894356571668 51.77307754256029 16.035666551813446 0 0 -3
306 1 64.37757258778431 52.96283302020641 13.843194234116806 0 0 2
313 1 66.71180171996522 54.28182993035266 14.798100820615046 0 0 -2
285 1 38.25958332728166 55.19631481336308 16.60858338567703 0 0 -4
376 1 39.96012476786701 54.13869617917175 14.849222504588761 0 0 -5
506 1 41.64615707874332 56.50747524626996 14.07760463910084 0 0 -1
165 1 45.947599691787254 55.673172138153106 14.725766185795003 0 0 0
326 1 51.55518146626687 56.29494249972244 13.76834029969769 0 0 -1
238 1 49.78156767333318 56.91147809835715 16.146361580067833 0 0 5
323 1 54.145564875492745 57.90260910638669 14.33077958444989 0 0 1
225 1 56.80921752464718 56.3108548440296 13.492881640965221 0 0 -3
515 1 57.011042653498855 54.68242393647002 15.632217812222494 0 0 0
421 1 61.46972799088732 56.28157858661493 14.271738356003803 0 0 1
189 1 67.56720148378695 56.04653587096747 13.01137740260619 0 0 0
434 1 64.99091715204516 58.462850770696946 17.06724207125176 0 0 2
417 1 38.72932243084911 59.768533381662586 14.872636975427167 0 0 1
38 1 47.63819190159332 57.7535649990946 14.771389798547602 0 0 -2
378 1 55.75904700394752 59.929907611969654 15.941965010862532 0 0 -2
379 1 58.3461306094394 58.7014310044973 16.080306263319795 0 0 0
15 1 61.57871244041765 59.930518708189204 13.936615779249676 0 0 -2
283 1 63.56179262430671 58.20489712048509 14.536998007336052 0 0 -2
470 1 43.249869751253385 62.77044176779441 13.229049783189637 0 0 1
3 1 40.55507443864205 61.8050297222835 13.206221715661687 0 0 -4
158 1 44.26827257997421 60.28221780888193 14.185098075058399 0 0 -3
210 1 47.24064348433641 61.594816754252356 13.107291662108786 0 0 0
279 1 50.360971987387124 61.468508865594174 13.2553359376165 0 0 -1
108 1 50.915643973910726 60.88808002902179 15.705146002174073 0 0 1
317 1 55.52485991428553 65.84215858881075 14.339119485877657 0 0 -2
140 1 57.18393781243008 60.67053594707634 13.302469796139727 0 0 2
455 1 44.47841590917726 64.58562433390324 14.844286180516859 0 0 -2
365 1 46.923527551121765 63.3754146337262 15.467061742914812 0 0 2
182 1 48.5559823682478 65.76548739760968 15.13833706407884 0 0 2
308 1 52.970227041330446 66.26409106383232 12.342450981734384 0 0 3
222 1 57.59477620033319 65.43941023475985 16.52559508978092 0 0 1
386 1 58.704738852461674 63.649148362277124 14.130032586368422 0 0 5
228 1 54.477645995540456 36.61320678720266 19.067580239911095 0 0 1
162 1 44.85952505356785 39.568885690356886 17.72831626984859 0 0 -1
440 1 48.852363351929355 37.38434865322313 0.5043102275919757 0 0 -2
261 1 51.767096542842836 37.08781970368667 0.6577901769826928 0 0 -1
212 1 49.029791983766536 39.00059967254051 17.56987716845591 0 0 -2
132 1 53.97651010046952 38.55137159371679 17.399593443919354 0 0 -3
191 1 59.23494143852905 39.19674524833179 17.264453753147208 0 0 0
133 1 43.13663666583292 39.89240305179024 0.4537062034361979 0 0 1
84 1 45.74409297379322 41.97360669484836 16.833281571057736 0 0 -5
125 1 51.929474434533226 39.6485121176381 19.086262805356203 0 0 2
433 1 50.80980197064056 41.178034789283124 16.720723495970372 0 0 -6
504 1 53.28405294769461 41.33725764469881 1.3579541971164948 0 0 2
252 1 55.42202430501132 42.19628510806512 18.656808303631536 0 0 2
372 1 58.766210614765214 40.989487707610664 19.251275399370698 0 0 -1
459 1 62.274461804042176 43.21858270670715 17.36529268770724 0 0 -1