LAMMPS data file via write_data, version 29 Oct 2020, timestep = 2500000

670 atoms
1 atom types

2.9194517601254972 267.0805482398712 xlo xhi
2.9194517601254972 267.0805482398712 ylo yhi
0.3243835289028798 29.675616471097356 zlo zhi

Masses

1 18.015

Atoms # atomic

364 1 132.90655632069752 123.13239250720854 2.8218784283133735 0 0 -1
402 1 128.00636070570837 127.6617256903894 1.8351142348091494 0 0 2
557 1 128.84488013187553 124.92773199634942 1.2297987177257312 0 0 1
545 1 130.948369045878 125.20197184684561 3.2164133723057597 0 0 1
7 1 134.9408287034167 125.30309073259761 1.0570642502321606 0 0 -1
239 1 125.70491443106285 129.06151882293864 1.4357417067272258 0 0 1
526 1 131.9437796050762 127.91998877454375 2.9979961822238326 0 0 0
276 1 130.29521004481177 128.8516277093872 1.0355367398326643 0 0 1
372 1 134.77373270948019 127.61486715216145 2.938471336696558 0 0 0
130 1 123.62128886066333 133.10151494789852 0.831376464445068 0 0 0
359 1 126.1914598749572 131.94635099419332 1.3936696318363417 0 0 -1
618 1 126.90659823746861 132.3825764109884 4.207893976825454 0 0 0
36 1 131.71036963803704 132.01818820474134 2.9689629669552446 0 0 2
610 1 126.39403603262095 135.90708362390347 1.1628793186688586 0 0 0
40 1 129.3666673032625 133.56898100915575 3.1631854434661224 0 0 1
640 1 133.889927032045 133.72356826204324 3.069422414456953 0 0 0
224 1 123.04179658096885 138.07661342025534 2.3965844307238635 0 0 0
501 1 127.77449144995052 139.23729273632793 2.4466003968257906 0 0 -1
525 1 130.43455469238722 137.6213104687393 2.48793482276477 0 0 1
410 1 133.34056438705656 136.48212533094463 3.023642908982352 0 0 1
64 1 124.8390562305304 146.14816212376252 28.19552773618892 0 0 -1
165 1 122.13673332773452 140.5699343913107 1.551344068556964 0 0 0
642 1 127.48678965916226 141.8884323907873 3.2163442599031455 0 0 1
201 1 131.30960774013408 140.22938961040416 3.028259656143052 0 0 1
336 1 129.91063730901584 142.5170249792132 1.885939094492333 0 0 -1
266 1 132.84528312103149 140.69825529250548 0.5742686908165857 0 0 -2
315 1 125.44110087134615 143.55117311021849 2.633235719350715 0 0 1
199 1 130.7483874500116 145.21844628934195 2.499955937582371 0 0 2
116 1 133.24881646892595 144.82697484802483 3.6368669685280217 0 0 -2
61 1 127.57693554155387 147.15383947133904 2.7443098971593276 0 0 0
590 1 130.37320827449042 148.38524938945937 2.8380937796688794 0 0 2
631 1 133.0275176828957 121.1232343391381 4.7912400402938795 0 0 0
546 1 131.161554438911 122.13920900266811 6.6058732618272975 0 0 0
235 1 127.84752017732814 125.64782611651196 6.460820899914656 0 0 2
616 1 130.2461280411501 124.70234925647921 5.7481893054134625 0 0 2
623 1 131.51696371167583 127.07742715660548 7.240418035333131 0 0 1
561 1 134.24463842684585 126.8629999362606 6.914299347551622 0 0 0
654 1 133.34293112365623 147.73053463202618 28.553834732389127 0 0 0
573 1 124.4086388914356 128.35856891330081 3.886980973841747 0 0 2
275 1 124.45632168758979 131.1503907399103 4.827156568411994 0 0 1
182 1 127.04070545823087 127.42246929318424 4.39590928831085 0 0 1
5 1 128.24967140963955 129.98254395472347 5.145913427371453 0 0 0
159 1 130.63377258039532 129.8239144190168 6.673055912038645 0 0 1
244 1 132.55841418476066 130.20987475927546 4.74443700641232 0 0 2
463 1 122.6468786373028 132.34142486102763 3.4731874479802523 0 0 1
53 1 134.9548843921798 139.66682246505914 9.930743397862834 0 0 1
439 1 122.91740467274272 134.81812803494068 4.847079546074588 0 0 1
181 1 125.44831631829364 134.84450467572017 3.5568799400472795 0 0 1
609 1 130.55072096403362 135.7466030648563 4.9853617682240134 0 0 0
185 1 132.46905300615558 133.99282849582622 5.813958722688941 0 0 1
41 1 121.58554401463331 137.15733996401178 4.478528197013624 0 0 0
552 1 125.60383242723265 138.22647308262282 3.5939797719454507 0 0 1
376 1 127.59921892028936 136.36337817933736 5.085904826925809 0 0 0
572 1 129.55003792670914 147.63397507165604 27.955219777955293 0 0 0
90 1 124.89187454962688 140.39909242869393 5.320946770149683 0 0 1
582 1 123.23528259243729 142.08252027672827 3.4700020501355597 0 0 2
378 1 128.47175712943488 142.49206029087503 5.663626120709267 0 0 -1
532 1 131.15178229993958 141.67827521537203 5.407058880524827 0 0 0
497 1 134.26179072979676 139.92448077096057 3.7359155243561912 0 0 0
238 1 126.36544506387759 145.27341776843897 4.4935104477125805 0 0 2
516 1 126.83980142563556 144.0259416024262 7.307250878845034 0 0 0
624 1 129.21719894879263 145.49673099720266 5.070836561590973 0 0 -1
422 1 130.57557677290137 146.463459190826 7.520861015887186 0 0 2
14 1 131.99937201770558 144.19454408774186 6.040073126708963 0 0 0
365 1 132.36614672650822 148.94288934873148 4.513282346239718 0 0 -1
204 1 130.27189015822123 120.83099389075818 8.871051995915566 0 0 3
413 1 131.20943452201132 149.14498428415726 0.3384708206671192 0 0 2
536 1 133.431979592258 123.74268790597266 7.182426006177472 0 0 0
521 1 124.85272890505685 126.38855561479639 10.615925584621403 0 0 1
366 1 127.23966819851415 126.61347857235661 8.979031651856884 0 0 2
457 1 128.94124664518077 125.10308250894093 10.778867048496256 0 0 0
82 1 131.39932767295755 126.47025545326673 10.042584124203564 0 0 -1
123 1 133.4268432089734 124.95020932911481 9.491867982183276 0 0 0
99 1 124.00479618098898 130.42069299982546 10.358790186156288 0 0 0
396 1 127.94771376752547 129.1021970180862 9.184903713360725 0 0 -1
468 1 123.3903059568588 130.97091158284027 7.546946831910843 0 0 -1
122 1 126.56093067565831 130.6467597968705 7.33534631832751 0 0 -1
644 1 128.21608175474037 132.61420483696836 8.36032819884873 0 0 0
424 1 130.97527551115832 132.7835925527464 8.022017770716475 0 0 -1
490 1 132.78395269579417 131.04404075758595 9.228630416727814 0 0 0
488 1 123.72976092024379 133.75756356308264 7.38394091874595 0 0 -2
551 1 126.56151150149826 134.1837649016138 6.746489995529851 0 0 -2
503 1 132.337730371588 135.4967661156242 9.072446591245253 0 0 0
660 1 134.45065266316232 135.3399756711761 7.342045572719728 0 0 -1
166 1 122.88036067872504 138.7548391112938 6.394187047052611 0 0 0
76 1 123.56206976995873 137.94401313441088 8.995274133468378 0 0 -1
493 1 130.75188871760287 137.46587237568562 7.513281255536996 0 0 1
542 1 126.88333803477107 140.8074389583825 6.992002394740413 0 0 1
619 1 128.03210095722343 138.30882359963127 7.40853782680045 0 0 1
255 1 132.0827629879143 141.08730738758868 10.00545217977571 0 0 0
556 1 131.95248847680386 139.77866805496924 7.5069880801489886 0 0 1
383 1 134.5892999578669 139.79734536809616 6.816083743933249 0 0 1
55 1 125.66850781160937 141.84367623465286 9.300887662132551 0 0 2
340 1 128.62181425476734 145.17251353065635 9.09456066026196 0 0 0
508 1 129.75374879971992 142.89306868103967 10.475860745857396 0 0 0
485 1 133.51112083674704 143.46364622689472 10.553589897683755 0 0 0
68 1 133.4620568675852 145.12554409724285 8.41574217743086 0 0 -1
584 1 130.61064440555302 148.00450506579062 10.095168650348025 0 0 0
382 1 132.075791705764 148.71794529210237 7.307919895836113 0 0 0
479 1 134.34569459697116 147.82204620317842 8.071295800606181 0 0 3
177 1 132.49867589189088 120.05560601877362 13.117620467821325 0 0 -1
9 1 132.7294356145067 119.725480484575 10.2002333211676 0 0 -1
112 1 127.9600925790392 121.29263156054236 13.17007547647482 0 0 0
638 1 129.38946969824718 122.4355038093244 11.113228315387598 0 0 2
560 1 132.185405260695 122.69504224978873 12.372767914708836 0 0 0
579 1 134.59063084474394 123.2080266178643 11.262885947547076 0 0 1
491 1 124.35596660162356 123.80774261928994 11.707165222992643 0 0 1
141 1 128.5725098163608 125.56502682632245 13.369564302139544 0 0 0
458 1 126.42898681315219 123.62301996606254 13.763236405118878 0 0 0
73 1 131.61893672105433 126.98116067859625 12.743429487136416 0 0 0
80 1 134.33274837409465 127.18915953333833 11.969611218466303 0 0 -3
198 1 122.76472435143397 127.70690495264665 11.731092224615832 0 0 -1
417 1 123.17389915082417 129.79849849319388 13.327870438565503 0 0 1
406 1 126.26938732757716 127.17435369818108 13.350874096213015 0 0 1
489 1 130.6953309791313 129.22973775856056 9.865749522857442 0 0 0
531 1 133.94303241430123 123.31273939986228 22.395472909692273 0 0 1
98 1 126.53606617528433 131.36543608523033 11.219536627713913 0 0 -2
649 1 127.54731234318068 129.59694592830843 12.735565809808557 0 0 1
92 1 130.25647259834372 129.6931485417686 12.47195692846205 0 0 -1
296 1 133.8466483556165 135.50122252117384 11.43021960607622 0 0 0
346 1 133.8233962157522 132.63332666378204 11.416990365141197 0 0 0
291 1 131.18331677408764 132.12960663441876 12.444442770017806 0 0 0
515 1 122.90676013300497 134.98185255448155 9.716995429892494 0 0 1
380 1 124.722525642331 134.401146502366 11.723220327351974 0 0 0
194 1 127.4688842121936 134.13196335256373 10.389436098291377 0 0 -1
84 1 129.868099283723 134.79258503457604 11.75358363134005 0 0 1
442 1 130.40600168076557 137.22189306482602 10.691094426369057 0 0 -1
583 1 132.49271786374325 135.25695790487538 13.795099377782433 0 0 2
125 1 124.94390490766042 139.58285327406716 10.850193556060091 0 0 -1
339 1 126.22141697931198 136.43001659752912 8.943084046925602 0 0 -2
431 1 126.2980711526484 136.84072508065552 12.231981509491542 0 0 -1
614 1 131.55818312656862 139.42026662063807 12.126540920771289 0 0 1
411 1 134.26726275525246 138.1847219642177 11.991867852618682 0 0 0
605 1 128.03323562853808 138.72717136071674 10.338570919936634 0 0 -1
219 1 127.78295002034837 141.4303384026037 11.658800026525142 0 0 -1
264 1 126.14884836840476 143.61004705209436 13.044080416691818 0 0 2
12 1 131.26189387709636 144.20985093866167 12.254348713698333 0 0 1
205 1 134.90067104428533 143.132310195353 13.125004998367926 0 0 0
117 1 127.79534187750664 147.38966045347246 10.807210407017026 0 0 1
259 1 132.84586968621142 146.68610243571797 10.946850557682774 0 0 -1
502 1 129.0847655495094 144.45193682027943 28.008466947441438 0 0 0
326 1 127.71212846964639 121.04043116791061 17.927234142073864 0 0 -3
658 1 133.88681771314532 143.29320367176487 0.46010076398716393 0 0 0
278 1 129.16705413010703 121.11310798831157 15.565682349345074 0 0 1
135 1 131.83415902514096 121.84518873798194 15.687430083096658 0 0 2
446 1 128.99340706397243 123.88017248369265 16.061706068392073 0 0 -3
221 1 131.30831358517432 124.66525582394111 14.351880959856787 0 0 1
63 1 134.38491036474744 123.69330676601606 16.409119429002477 0 0 -1
163 1 122.46250406049923 125.01982233959833 13.29271802951278 0 0 1
44 1 122.81726822415695 125.21786143879615 16.712785871711684 0 0 1
157 1 125.68935224249846 124.65604293161772 16.1462435163386 0 0 1
328 1 129.31040142402512 126.26790162293982 18.024401912292998 0 0 2
101 1 132.46637301763707 126.27974527181252 16.872812113358506 0 0 0
650 1 123.93238433696202 127.48051948551897 14.983013679349932 0 0 0
115 1 125.34673159307768 131.54798174025626 16.91136313866723 0 0 0
188 1 128.92105245047725 129.45621592717058 16.699688790120522 0 0 1
353 1 131.0881562665883 128.31366355083756 15.362687206885663 0 0 0
586 1 133.09190410369823 129.94170360248359 15.037483686548889 0 0 1
592 1 123.02838632365278 129.845370755052 16.750928541783477 0 0 -1
322 1 125.05298335180458 131.91627231014473 13.611574332098096 0 0 0
67 1 127.54245743991586 131.40658392507981 15.087778924147747 0 0 -1
283 1 122.82098647211583 135.65817841757968 13.137210838311846 0 0 0
29 1 123.59014633779005 133.92355164676488 15.260768337621041 0 0 -2
530 1 128.76948496108562 133.91794680579318 15.506591238499574 0 0 0
47 1 131.27527650650129 133.02133899875687 15.084315474606186 0 0 2
218 1 123.965830345885 138.1785344470579 13.456992056223113 0 0 -1
175 1 128.2467709207158 136.2727330708651 13.912117048052355 0 0 -1
155 1 127.82404038197558 138.68584645764975 15.658212365104436 0 0 0
423 1 130.81050449140946 137.38569428208652 14.23412791458923 0 0 1
200 1 131.53701502927953 138.58567440841412 16.60049430212717 0 0 0
661 1 128.07846205410826 141.1318244305698 14.558020286610166 0 0 0
454 1 126.34500221656633 143.28876759187875 16.034647878954313 0 0 1
443 1 130.74599661797672 141.6069183669241 14.042951961811518 0 0 0
425 1 132.47013855492239 141.00278020070445 15.905981327387385 0 0 -2
611 1 134.70477141597823 136.24598949064648 26.313222034255755 0 0 2
106 1 128.52426372047807 145.20993206249747 12.859256343788767 0 0 -2
483 1 133.51024353386507 144.93094522027093 15.025414922768205 0 0 0
354 1 129.9551741911156 147.81948437349294 13.181657615972455 0 0 -1
96 1 132.56745252576502 147.27139234021323 13.490870140283397 0 0 0
183 1 134.0039827128924 149.08361267525476 16.99192553909417 0 0 0
473 1 132.40258522991223 120.5492947143932 18.949235807229265 0 0 0
252 1 126.61439697295387 123.69937123873966 18.308568451089137 0 0 0
263 1 127.67956296512807 125.11886201271778 20.39520594942165 0 0 1
33 1 129.77372757177 121.43589171165311 19.82714364339337 0 0 1
575 1 131.07353056384994 123.97738490116623 17.946690979473132 0 0 1
134 1 122.97635926418643 126.69835620962657 19.160954672990517 0 0 0
246 1 125.75299083037272 127.44807475061255 19.155664313932125 0 0 1
279 1 133.6117701105613 123.14921266444755 19.325344922684028 0 0 2
324 1 121.85731864095136 128.81357033005932 18.96983047661462 0 0 0
327 1 126.78049571772287 127.61549458310208 16.438143795056487 0 0 0
345 1 133.20873615774627 127.6303077709027 19.311214198490124 0 0 0
597 1 134.37460297099383 122.58316042571161 29.6736343192671 0 0 1
355 1 126.64287997692401 133.21155833091288 18.687043450920022 0 0 1
306 1 128.38181868762078 134.86922260908037 17.864588784886347 0 0 1
118 1 129.7683301312888 130.4252451796312 19.122437394039338 0 0 -1
337 1 132.44171158600696 130.3344035801432 19.058780776554013 0 0 -1
26 1 133.0431879769315 132.32474247639098 17.23534164288624 0 0 -1
520 1 126.93701739578881 147.67022345467203 29.215086409468693 0 0 2
233 1 121.72661432562133 132.50809844411324 16.808927936528608 0 0 0
342 1 123.82667798434194 136.17905892745114 16.972835806390375 0 0 0
77 1 130.3927161153467 135.69305590214785 19.600832581439462 0 0 -1
630 1 132.89577405741306 134.9042913340222 18.47648103273485 0 0 -1
15 1 125.06532045172871 138.48020671180544 15.951459515970976 0 0 0
272 1 126.5714953339367 137.172247910121 18.4620503909873 0 0 0
74 1 129.2180979220982 138.4805009822769 18.151554080464464 0 0 0
352 1 134.0152839890411 137.17572469700866 17.21052315921169 0 0 -1
147 1 123.84184388404192 141.2432376070418 19.827714337313957 0 0 2
448 1 125.5707003262217 140.9001175265412 17.438168255601823 0 0 -1
484 1 128.06616553488084 141.3381277864186 18.40446264142282 0 0 1
298 1 133.16879315292286 143.23273943895583 17.68343594349351 0 0 1
571 1 130.31207531482715 144.489906865061 15.211873502503417 0 0 -1
289 1 128.6416465486074 144.08450100110198 17.406161044725437 0 0 -2
89 1 133.5092944951524 146.3708748480877 17.56276664207683 0 0 -2
504 1 129.18316395769256 149.01927064916967 15.586363624695943 0 0 0
290 1 129.3183638967575 145.43308599688845 19.61417141618051 0 0 1
379 1 131.39411222026686 149.80780087905376 17.16987534879801 0 0 -1
554 1 130.61650755529968 121.10674133015164 22.806797945489848 0 0 1
281 1 134.723724974704 135.67286907136952 15.377495372697485 0 0 0
524 1 133.10033746107172 120.71541754355925 21.98712784679616 0 0 1
397 1 125.64292509337946 127.37322894234966 22.265999982799176 0 0 1
107 1 130.16907514527188 124.1350104335327 21.239530482169226 0 0 1
310 1 131.780556586309 126.44185729623382 21.283731168705028 0 0 -1
284 1 134.81282131888318 132.05741840691337 26.169604740474856 0 0 -3
441 1 133.68147496090143 126.25026754441518 23.26796590463146 0 0 -1
83 1 123.09581447699554 130.61757666698816 20.512683889392154 0 0 1
265 1 123.06064012527858 130.5809123725728 23.36909608799107 0 0 1
129 1 125.43375873199497 130.10870933152478 19.6347023609623 0 0 0
432 1 125.98543266587423 130.05549996721498 22.788892214310717 0 0 -2
509 1 128.67589238260936 128.28702621641528 20.23126500815919 0 0 -1
655 1 127.71989580882487 131.65812383085188 20.999597675786397 0 0 2
267 1 122.27934719802064 133.22093498201977 19.753640014415453 0 0 0
522 1 124.82233617922071 134.76508904398196 19.771135234168124 0 0 1
527 1 126.15874542239918 133.65075072925137 22.4481349389233 0 0 1
270 1 129.48949411479333 132.16505887779414 23.321643908985745 0 0 1
232 1 132.22585352668744 131.43171701957553 23.564862390197728 0 0 0
370 1 133.5924376126421 131.93831699566167 21.074852466088544 0 0 -1
420 1 121.48042129505026 135.1216523212459 21.580448431149453 0 0 0
103 1 129.7787595495779 135.20675300221006 22.332858374395077 0 0 0
192 1 134.3027991229083 134.57794921813434 20.978359121964644 0 0 -1
418 1 122.01650474272408 136.8750992394653 19.150337396244044 0 0 -1
293 1 123.58027283275229 138.47299309988801 21.00113177072677 0 0 -1
451 1 126.50808717684616 138.06512871447345 20.897768383116475 0 0 2
307 1 132.0713955611491 138.22929223065452 20.02173992253536 0 0 0
430 1 134.49806070831005 120.72096520240072 24.81869740263307 0 0 2
653 1 127.60574650467139 140.55469708325498 21.25521659283056 0 0 0
595 1 130.53376427973535 140.5296027405599 20.76834917032991 0 0 1
498 1 125.70813915459564 142.63133972665378 21.292533814183404 0 0 -1
62 1 127.84945881727467 144.58032861980678 21.618355229788797 0 0 2
261 1 130.42015767055517 143.26509227025315 24.34275499588512 0 0 0
472 1 131.00809332817286 143.16200479465206 19.808614807001966 0 0 0
437 1 131.96518261564935 144.71331773103438 21.49395960977115 0 0 0
254 1 131.35020827243108 147.63476134855037 19.061668885837737 0 0 -1
139 1 130.51118738650513 141.67251055574212 28.370782968413394 0 0 -1
608 1 133.52924215834207 147.7994881168124 20.883392371610988 0 0 0
195 1 131.71041215530485 121.25240194421283 25.318834111587872 0 0 0
169 1 125.02791729812259 143.3847836691405 29.33190846102239 0 0 -2
669 1 128.13087838804503 126.18198779565479 23.397493266486542 0 0 -2
510 1 130.86791944886957 123.67740338896701 25.83545715883562 0 0 -2
387 1 134.8800346326465 137.32106500468586 0.9186834623773146 0 0 0
231 1 129.16521998696996 123.55293967054367 23.734424293977437 0 0 0
408 1 128.1207755369361 127.06599154173196 26.035935070260866 0 0 0
31 1 133.25460213505775 124.87809105128397 25.757803275458684 0 0 -1
294 1 124.07251085620653 127.91118954632526 24.436420558405285 0 0 1
574 1 126.289479420152 130.25351113483276 25.656550516802536 0 0 1
656 1 130.0692417819874 127.94947331935815 22.700553488966467 0 0 -1
341 1 130.17877285938263 128.7632227183413 25.995990874706855 0 0 0
391 1 127.76715404833325 144.66705430615775 0.9690958373717145 0 0 2
110 1 132.58727109751987 128.69278770823672 24.455311165424373 0 0 0
628 1 123.65356502306257 133.1547269880193 24.14702863363855 0 0 1
52 1 124.9092118033206 132.28411837897605 26.551484713401113 0 0 1
606 1 128.8821228447826 131.22621023756182 26.001337585872864 0 0 2
351 1 132.70458070439506 133.94526653140048 25.13851607546016 0 0 0
97 1 123.98093755828901 135.95634495218422 22.245975982268128 0 0 -1
178 1 127.28615884115158 136.30400825265434 22.81170574402019 0 0 0
187 1 127.4474466357858 134.8755830870793 26.391431832205036 0 0 0
399 1 131.97001010006852 137.1924847801943 22.720048969673066 0 0 -1
38 1 129.97017307198155 134.72464237763427 25.154587629199117 0 0 1
191 1 134.1110435824684 135.64468755050737 23.516485644329066 0 0 -4
32 1 131.87752285020517 145.48296201935452 29.05830933840033 0 0 0
368 1 125.11405055358891 138.19030730211423 25.3661507781938 0 0 -2
456 1 127.76661674779656 138.39047174929047 24.8008582412711 0 0 0
189 1 131.42930075619492 139.50462545439902 24.253906287881158 0 0 -2
241 1 123.4737221253196 139.37879386746008 23.611540279263767 0 0 -2
223 1 124.45282133286948 141.89638469310822 23.708252639530222 0 0 -3
105 1 126.63174500885026 141.94082913468168 25.874162015881325 0 0 1
636 1 128.77375084568513 140.8514830626989 23.71011589334206 0 0 -2
392 1 132.34386860765989 141.9688079838151 22.636223219443405 0 0 1
612 1 122.96932297722395 142.9466100432103 25.793723140467687 0 0 -2
335 1 126.96019163937169 144.7743016050961 26.206985785332595 0 0 1
292 1 134.5465023173883 142.94308539579728 26.534277275643287 0 0 0
329 1 132.04622962020264 144.23962551496132 26.521447760247 0 0 1
377 1 128.69141111058047 145.47718570642908 24.072840893285687 0 0 0
576 1 130.25462337235052 147.85513057394252 25.158543387502686 0 0 -1
390 1 134.22883866982735 146.22221481200225 23.49552270562062 0 0 -2
633 1 132.94907476107113 146.9675144158449 25.777983440590447 0 0 -1
214 1 134.26998350540362 149.1652689927288 14.31971137233673 0 0 0
23 1 129.10547496512137 125.05691057698249 27.50686115323984 0 0 0
247 1 131.09558875018394 127.41301176734173 28.300427342950137 0 0 0
400 1 133.75301162598203 126.29709356324811 28.075677188393932 0 0 -1
663 1 124.13198188300058 128.37272216102852 28.863594441414868 0 0 0
362 1 125.47103985381572 127.70137063296454 26.709020789817792 0 0 1
35 1 123.23213645044211 130.87533377100883 27.987371883581392 0 0 2
1 1 127.2814737179208 132.83021764415534 28.32425886142505 0 0 1
72 1 131.4916142125641 131.2396774363711 29.332690099874913 0 0 0
466 1 130.34805017576178 133.1118439224873 27.70260759934836 0 0 -1
121 1 134.58259565152565 147.2576262877321 4.060503725064757 0 0 -1
48 1 134.13279431696807 131.37440914488383 28.83792577186297 0 0 1
434 1 124.56723460104499 135.31233905784998 28.309608070750258 0 0 -2
314 1 125.06068158827475 135.69817328944129 25.331157039749854 0 0 0
388 1 128.92571445175722 134.69847451937252 0.5652591762011916 0 0 -1
4 1 132.7107900157224 134.90556406629835 27.93313795411672 0 0 -1
168 1 134.34107208992938 133.89771007143582 0.5829313061777033 0 0 0
646 1 122.92318611433825 137.36567125498811 28.881951214913176 0 0 1
416 1 124.5049062646604 139.17164205544822 27.674650784683035 0 0 0
398 1 128.68149448794367 137.3519615837496 27.31876319462601 0 0 1
234 1 126.6491692578515 138.57710481443522 29.235090464440553 0 0 -1
173 1 130.965704679812 136.72237962272416 29.162300799386152 0 0 1
100 1 131.1916382978372 139.01180028278594 27.048879986284785 0 0 0
559 1 133.7565831910682 138.4204035126291 27.838636736470338 0 0 -3
184 1 123.10585774391127 141.62713706307687 28.123573916917167 0 0 -1
225 1 127.519747012204 141.61011665258138 28.641205544271845 0 0 1
172 1 134.3857854891293 145.1835544382025 20.220813038912983 0 0 1
151 1 134.81219754444686 119.51003184426573 14.486204746631987 0 0 0
220 1 133.9324771940231 125.15900014550951 4.549355286560541 0 0 1
236 1 134.5031869720481 120.90496622686703 16.96105259545169 0 0 1
421 1 134.6890204733066 139.35543786527234 20.45370335473517 0 0 -1
237 1 134.95807278812555 129.41649384028776 17.190611158044582 0 0 -1
171 1 134.64467254267757 129.90340223047173 12.566303284727882 0 0 0
394 1 134.922037712358 140.83373242227628 14.55544923069228 0 0 -3
253 1 134.73326456496943 122.69530200746283 26.657957834985172 0 0 0
558 1 137.1388771921947 121.87506656086477 3.7469917665867225 0 0 -1
632 1 136.85540115463732 122.07702738849797 1.0417500014507488 0 0 0
54 1 140.78202628941952 123.17962987087816 2.350091889885175 0 0 -1
622 1 143.6413367986104 123.4511196342706 2.5439746719169443 0 0 1
426 1 137.42737318427683 126.03771760914434 1.0379077423969474 0 0 0
242 1 135.44545000876337 120.38415243170385 5.690350954263039 0 0 1
600 1 141.250491571434 127.91124916007657 3.2228795732413396 0 0 2
511 1 144.5275742748214 127.49584923625815 0.7122067450266313 0 0 -1
186 1 136.14882325889616 145.41175774148036 15.359817174302433 0 0 1
24 1 141.05221811194022 132.78685666425892 1.6089887076158453 0 0 0
626 1 138.7747805031504 132.61264991568814 3.762163109128773 0 0 0
395 1 144.3977331716783 131.03287392278497 0.9854447107929172 0 0 -2
433 1 142.4825410855649 131.45827178104258 3.496446172874152 0 0 1
529 1 146.51561454480373 132.91263647005417 1.5017681353714616 0 0 0
455 1 138.8993402042689 135.18957474410965 2.3480867826362686 0 0 0
428 1 140.7218876828991 137.1509471204479 1.632964505146531 0 0 1
164 1 142.3162966478867 135.01439293617298 0.3547035194473736 0 0 1
274 1 145.24937972996116 135.39517540446505 0.5124559563052454 0 0 2
19 1 136.53662007980714 138.95590353639952 2.2281245330562127 0 0 2
148 1 146.7360783062926 138.7629001695105 1.8683757455130137 0 0 -1
300 1 135.5086046415977 140.2153644977077 26.781797848400675 0 0 -2
280 1 139.5532833649767 139.90372759280712 2.8795660411653583 0 0 1
153 1 144.50099051487754 139.69021352156412 0.4426621123902443 0 0 1
140 1 142.60943599707448 140.37252279429208 2.359513504023622 0 0 1
262 1 146.45279075898947 141.6012864011406 2.9710662624556927 0 0 2
564 1 137.72442152230994 142.03190233663165 1.7830003094401945 0 0 -1
49 1 141.03765638913924 142.12701988255748 0.586009192183064 0 0 -1
136 1 145.66099731316214 142.11498545669184 0.43002777478551835 0 0 -2
119 1 142.60091525032004 143.83241620113347 3.7825095546585112 0 0 2
57 1 136.6580273441529 148.72681073730462 2.6026138462936026 0 0 1
474 1 138.70650331625873 147.15037509779535 3.40425308896615 0 0 1
227 1 143.46550891296823 143.69857228952193 1.2224486973907707 0 0 -2
193 1 135.59469589171687 129.98365888648866 1.773791400080518 0 0 0
217 1 136.63608728889656 124.0428003638045 5.427577469850222 0 0 -1
210 1 139.75768277742688 121.35179335813349 4.168751409065851 0 0 -1
93 1 140.35654514555088 122.5444599119052 6.60034049310134 0 0 -1
652 1 137.6645130525316 126.04540856187738 3.888510499706123 0 0 1
305 1 140.44082732900614 125.2827498293371 4.005983743128624 0 0 -1
78 1 142.09565897875348 126.76285958640295 6.103958657230526 0 0 2
317 1 143.93811198817022 125.94203632184548 3.9248205934646943 0 0 3
512 1 146.12483569108858 125.09297482384376 5.070874319230052 0 0 0
607 1 138.28765250900943 146.75421376527632 26.114978967656107 0 0 0
350 1 137.94432138083744 128.60962552480152 5.422687963441657 0 0 0
602 1 139.94382506545764 130.18066741130815 4.410740597669339 0 0 1
495 1 144.04189867656285 129.00633458968676 3.0288710103176704 0 0 1
161 1 145.86966213158126 129.7375826649865 5.175435793981098 0 0 -1
65 1 147.55602917208535 127.39388140379789 5.375548947882029 0 0 0
617 1 141.11325593614342 130.99388674797154 6.813614602209586 0 0 1
471 1 143.8728072786369 132.80153966610925 5.35044845416072 0 0 2
126 1 146.55311601472917 132.7530940298507 4.604530344398201 0 0 0
615 1 139.09862419385283 133.22700036651372 6.557316643998648 0 0 0
449 1 140.3162342948077 135.81697190487935 7.221940168411238 0 0 1
162 1 142.73275818691005 135.3316800171221 5.5765383508815205 0 0 3
384 1 147.82327245288982 135.3411444096072 5.08607219739761 0 0 0
486 1 137.91405804063655 137.440077319868 4.177188876422548 0 0 1
385 1 138.60570585449102 137.9060520315183 6.9191673186971245 0 0 0
2 1 142.88505591178009 137.4846662931067 3.5006704781264855 0 0 0
111 1 145.37593341495955 136.58470432797864 6.128715412664342 0 0 -1
494 1 145.71934839959766 136.52855015966074 3.1547259113810386 0 0 1
332 1 135.95129561732338 147.73876552580512 10.664547988334293 0 0 -1
212 1 139.0258127684942 141.8023752003517 4.924767974970787 0 0 2
648 1 143.40797830085992 139.0199067358028 5.869884887652649 0 0 -2
127 1 140.11583910072505 144.25501772074634 4.675739744085095 0 0 1
20 1 139.6661209648714 144.2277509398356 1.9552012790000208 0 0 1
555 1 144.00736342120007 141.39093218735817 4.509071069752522 0 0 0
138 1 136.36317340814801 146.98664045133359 6.4182675583321105 0 0 1
386 1 136.0708154553345 131.74308722856006 3.867628065327442 0 0 0
331 1 137.01000186027665 145.02519551933196 4.19166997968984 0 0 -1
452 1 140.82347552094737 148.02332397871368 5.129362360336627 0 0 0
620 1 142.85975221783013 146.28473487143663 5.404722041780572 0 0 -1
197 1 135.83022079676226 122.19094091071324 7.8432489683392665 0 0 2
271 1 138.1436118391018 123.55155181234323 8.462130163568641 0 0 2
46 1 142.45166986280577 124.28872186824407 7.712127482110547 0 0 -1
87 1 145.16458259602567 124.64510941534802 7.799742580307124 0 0 -1
544 1 138.0839030769553 125.99011632714331 9.43372759448782 0 0 0
260 1 145.58058735468015 127.06019067526333 9.00955606495409 0 0 0
71 1 149.24149565219912 127.36443954505225 7.797783854983489 0 0 0
470 1 137.36480690392688 129.35797981668188 8.543918253068455 0 0 1
549 1 136.26422478062256 142.09070003800795 5.6025384401446265 0 0 -3
312 1 140.51912800058406 129.59466544194518 9.075780539757462 0 0 -1
167 1 139.65456854376944 127.32457073066045 7.465586148517747 0 0 0
596 1 143.78866790614242 130.94056125879194 7.580743296905855 0 0 2
444 1 144.2385915566249 128.33942543046257 6.9305879958288115 0 0 0
513 1 148.02955370866474 127.98791748057903 10.06923947623457 0 0 -1
318 1 136.32166877511372 133.24587208292002 7.829587642383148 0 0 -1
51 1 147.00740564990986 130.69309995155197 10.255614698754401 0 0 0
621 1 146.70132701750225 131.54555358345428 7.7223318593250285 0 0 2
303 1 136.53897154414057 133.0807954224911 10.542249605257389 0 0 1
593 1 141.22463115031144 135.89822985566445 9.910060594940633 0 0 0
156 1 144.59948783003915 135.07101550997308 9.470439315523812 0 0 0
487 1 147.26617865333864 134.35240210717666 7.646332125841865 0 0 -1
25 1 136.16065618666678 137.4659376243908 8.487049778223824 0 0 0
670 1 138.93414337514795 137.95649375234885 10.029780297814426 0 0 2
229 1 145.56588108059196 138.37900520824078 8.472043710100476 0 0 0
104 1 137.57930579467774 140.7958353322573 10.16864294770354 0 0 -1
528 1 140.4462923192688 139.4708386038672 5.7450470135020755 0 0 0
176 1 140.9495143917351 141.17879669951424 7.952746261019715 0 0 -2
133 1 145.17192717889466 141.35858772667223 8.607773008364646 0 0 -1
320 1 135.99010006590066 144.51196606108073 7.40284611568544 0 0 -2
659 1 138.41867786271675 142.51568697864212 8.17707335750743 0 0 1
598 1 139.5155488105587 145.17969136089687 7.863225940662402 0 0 1
464 1 143.25464505342924 142.36810136216556 7.181046910496078 0 0 0
128 1 139.06537912330586 147.8146553448262 7.319571480333358 0 0 0
589 1 142.27876155512706 145.12998648155414 7.84840032629447 0 0 1
102 1 136.45062147186113 120.39418239130484 12.57739209915952 0 0 -2
356 1 138.09805813318602 122.52145082555205 12.810340474007578 0 0 1