LAMMPS (29 Oct 2020)

variable            NAME string 15A_core
variable            TEMP string 225
variable            PRES string 1
variable            TCOUPL string 5000.0
variable            PCOUPL string 10000.0
variable            TDAMP string 1000.0
variable            PDAMP string 2500.0

units		real
atom_style	atomic
log		log.run_${NAME}
log		log.run_15A_core
