

################################################
#######         Run Simulation         #########
################################################

read_data		data.15A_core
Reading data file ...
  orthogonal box = (2.9194518 2.9194518 0.32438353) to (267.08055 267.08055 29.675616)
  2 by 3 by 1 MPI processor grid
  reading atoms ...
  670 atoms
  reading velocities ...
  670 velocities
  read_data CPU = 0.002 seconds

## Real units, atomic atom style (no bonded interactions)
#
timestep            2.0

# Define potential
#
pair_style          sw
pair_coeff          * * ML_mW.sw mW
Reading sw potential file ML_mW.sw with DATE: 2019-02-27

# Set production fixes - Nose/Hoover
#
fix                 2 all nvt temp ${TEMP} ${TEMP} 1000.0
fix                 2 all nvt temp 225 ${TEMP} 1000.0
fix                 2 all nvt temp 225 225 1000.0

# divide "droplet" into core and surface
region		core_reg cylinder z 135 135 6 INF INF units box
region		surface_reg cylinder z 135 135 6 INF INF units box side out
group		core dynamic all region core_reg
dynamic group core defined
group		surface dynamic all region surface_reg
dynamic group surface defined

# compute pressure core
compute        peratom_core core stress/atom NULL
compute        p_core core reduce sum c_peratom_core[1] c_peratom_core[2] c_peratom_core[3]
variable       press_core equal -(c_p_core[1]+c_p_core[2]+c_p_core[3])/(3*2974.46)


# compute pressure surface
compute        peratom_surf surface stress/atom NULL
compute        p_surf surface reduce sum c_peratom_surf[1] c_peratom_surf[2] c_peratom_surf[3]
variable       press_surf equal -(c_p_surf[1]+c_p_surf[2]+c_p_surf[3])/(3*13220)

# compute order parameter
compute	order all orientorder/atom nnn NULL cutoff 3.5
compute        peratom all stress/atom NULL
compute        p all reduce sum c_peratom[1] c_peratom[2] c_peratom[3]
variable       press equal -(c_p[1]+c_p[2]+c_p[3])/(3*16194.28)

# Run 5ns simulation
thermo_style        custom step temp press vol etotal ke pe v_press v_press_core v_press_surf
thermo              200
dump		        1 all custom 400 prod.${NAME}.dump id type x y z vx vy vz c_order[*] c_peratom[*]
dump		        1 all custom 400 prod.15A_core.dump id type x y z vx vy vz c_order[*] c_peratom[*]
run                 2500000
Neighbor list info ...
  update every 1 steps, delay 10 steps, check yes
  max neighbors/atom: 2000, page size: 100000
  master list distance cutoff = 6.0032907
  ghost atom cutoff = 6.0032907
  binsize = 3.0016454, bins = 89 89 10
  2 neighbor lists, perpetual/occasional/extra = 1 1 0
  (1) pair sw, perpetual
      attributes: full, newton on
      pair build: full/bin/atomonly
      stencil: full/bin/3d
      bin: standard
  (2) compute orientorder/atom, occasional, copy from (1)
      attributes: full, newton on
      pair build: copy
      stencil: none
      bin: none
Per MPI rank memory allocation (min/avg/max) = 5.897 | 6.260 | 6.986 Mbytes
Step Temp Press Volume TotEng KinEng PotEng v_press v_press_core v_press_surf 
       0    224.89362   0.60447412    2048160.9   -6110.8518     448.4743   -6559.3261    76.450465    1306.4849   -200.30459 
     200    215.74264   -5.6667739    2048160.9   -6111.2673    430.22576   -6541.4931   -716.70149   -842.42407   -688.40453 
     400    234.42991    3.0084375    2048160.9   -6110.9332     467.4912   -6578.4244    380.49015    2027.9695    9.8070986 
     600     218.0286   -2.1922921    2048160.9   -6108.7167    434.78434    -6543.501    -277.2687   -1058.3799   -101.51726 
     800    222.66846      6.60639    2048160.9   -6102.6236    444.03696   -6546.6605    835.53882    572.08198    894.80443 
    1000    226.20365     -1.35727    2048160.9   -6090.9616     451.0867   -6542.0483   -171.65982   -1030.6706    21.617334 
    1200    226.79533   -11.657305    2048160.9   -6075.1483    452.26661   -6527.4149     -1474.35    -1984.326   -1359.5868 
    1400    233.47955    1.7141289    2048160.9    -6063.826    465.59603    -6529.422    216.79332    1140.9876    8.8494637 
    1600    237.19926     2.126135    2048160.9   -6059.7625    473.01374   -6532.7762    268.90152    2099.0134   -142.87177 
    1800    226.45364   -5.3421028    2048160.9   -6062.1422    451.58522   -6513.7274   -675.63892    1271.6157   -1113.7561 
    2000    226.44081   -1.4197054    2048160.9   -6069.1419    451.55965   -6520.7016   -179.55631      1087.43   -464.62195 
    2200    233.83624   -2.7665074    2048160.9   -6081.3985    466.30732   -6547.7058    -349.8922    340.14988   -505.14481 
    2400    213.59748   -3.5607574    2048160.9     -6095.91    425.94796    -6521.858   -450.34444   -50.486408   -540.30516 
    2600    226.16068  -0.62585055    2048160.9   -6103.6845    451.00101   -6554.6855   -79.154035   -169.59741   -58.803471 
    2800    223.41958   -3.0713294    2048160.9   -6106.5148    445.53483   -6552.0496   -388.44436   -216.39703    -427.1492 
    3000    227.73142   -4.7922418    2048160.9   -6106.6473    454.13332   -6560.7806   -606.09562    275.17226   -804.36998 
    3200    223.25777    7.6243728    2048160.9    -6105.325    445.21214   -6550.5371    964.28751    2215.0888    682.84788 
    3400    230.59177    -5.249819    2048160.9    -6104.384    459.83733   -6564.2213    -663.9674   -1466.8895   -483.30332 
    3600    222.58779   -4.0260343    2048160.9   -6103.0716    443.87609   -6546.9477   -509.19004   -1434.9404   -300.89207 
    3800    214.23495    1.3517798    2048160.9   -6101.3001    427.21919   -6528.5193    170.96546   -45.974953    219.77407 
    4000    220.36367   0.58978321    2048160.9   -6097.4027    439.44085   -6536.8435    74.592442    478.64936   -16.320157 
    4200    226.97935   -5.4381948    2048160.9   -6092.0873    452.63357   -6544.7209   -687.79209    894.11696   -1043.7075 
    4400    235.52775   -3.6573974    2048160.9   -6086.6623    469.68046   -6556.3427   -462.56692   -720.97317      -404.42 
    4600    225.59497   0.75287822    2048160.9   -6082.1836     449.8729   -6532.0565    95.219776    1968.5184   -326.26804 
    4800    232.12598    1.3025203    2048160.9   -6076.9958    462.89678   -6539.8925    164.73539    522.40937     84.25759 
    5000    231.03791   -3.7401793    2048160.9   -6073.3215      460.727   -6534.0485   -473.03671   -116.42097   -553.26773 
    5200     230.9433    1.8922851    2048160.9   -6074.2805    460.53833   -6534.8188    239.32551    230.59186    241.28729 
    5400    229.19948   -6.6466558    2048160.9   -6081.2189    457.06087   -6538.2797    -840.6314   -862.57641    -835.6824 
    5600    225.42557    2.0478682    2048160.9   -6092.6567    449.53508   -6542.1918    259.00278    1326.3498    18.849413 
    5800     215.4991    2.7488852    2048160.9   -6105.1278    429.74009   -6534.8679    347.66344    1294.7701    134.56257 
    6000    235.48648   -5.7879419    2048160.9   -6114.7605    469.59817   -6584.3586   -732.02613    1038.0802   -1130.2847 
    6200     221.6282   -3.1644758    2048160.9   -6122.1307    441.96252   -6564.0933   -400.22499    3369.3233   -1248.3565 
    6400    222.46842   -2.5345702    2048160.9   -6127.5834    443.63806   -6571.2215    -320.5581    1721.5044   -780.01162 
    6600    235.97764    7.6980163    2048160.9   -6131.1166    470.57763   -6601.6943    973.60153    3741.0553    350.91956 
    6800    210.43226   -12.219714    2048160.9   -6133.9436    419.63601   -6553.5796   -1545.4803   -153.58796   -1858.6308 
    7000    219.15629    9.8776958    2048160.9   -6134.1237    437.03312   -6571.1568    1249.2751    5556.7844    280.08147 
    7200    212.98765   -12.129954    2048160.9   -6135.2776    424.73186   -6560.0095    -1534.128   -929.04575   -1670.2487 
    7400    236.64754    6.5903469    2048160.9   -6134.8137    471.91352   -6606.7272    833.50978    2101.3655    548.23472 
    7600    225.41066  -0.81577882    2048160.9   -6133.9176    449.50536   -6583.4229   -103.17509   -725.34796    36.813331 
    7800    220.04178   -1.2534268    2048160.9   -6132.6215    438.79894   -6571.4204   -158.52633      717.025   -355.52057 
    8000    225.76229    7.1740108    2048160.9    -6129.771    450.20656   -6579.9776    907.32829    4515.0553    95.588263 
    8200    225.11898    -5.764031    2048160.9   -6127.0276     448.9237   -6575.9513   -729.00201   -560.60845   -766.88013 
    8400    226.79556    3.3131779    2048160.9   -6123.5746    452.26707   -6575.8417    419.03199    2442.0148   -36.138731 
    8600    232.59062   0.19818393    2048160.9    -6119.888    463.82336   -6583.7114    25.065181   -282.82986    94.340294 
    8800    228.40057    3.4127251    2048160.9   -6117.8693    455.46771   -6573.3371    431.62216    1409.2425    211.65466 
    9000    232.24502   -6.9067471    2048160.9   -6115.0862    463.13418   -6578.2204   -873.52629   -166.61901   -1032.5664 
    9200    213.95825    3.3819263    2048160.9   -6111.2553    426.66739   -6537.9227     427.7269    2635.1253   -68.936884 
    9400    212.09041   -7.9445958    2048160.9   -6108.0644    422.94261    -6531.007   -1004.7875    626.54404   -1371.8185 
    9600    231.26152    6.9589591    2048160.9   -6104.7335    461.17291   -6565.9064    880.12976    1581.7233    722.26135 
    9800    228.65496   -10.977453    2048160.9   -6100.9117    455.97502   -6556.8867   -1388.3662   -1231.8035   -1423.5734 
   10000    230.80546    2.2911571    2048160.9   -6097.9908    460.26346   -6558.2543    289.77258    1709.4628   -29.657362 
   10200    232.55874  -0.58208552    2048160.9   -6097.4095    463.75978   -6561.1692   -73.618882    1927.0209   -523.75578 
   10400    234.05334   -10.042936    2048160.9   -6101.5986    466.74027   -6568.3389   -1270.1737    1067.5092    -1796.128 
   10600    225.91018    2.3900484    2048160.9   -6111.3659    450.50149   -6561.8673     302.2798    2945.7118   -292.48853 
   10800    232.07043   -8.2265196    2048160.9   -6124.5996    462.78601   -6587.3856   -1040.4436    442.17595   -1374.0144 
   11000    226.72378   -1.0270025    2048160.9   -6137.5042    452.12392   -6589.6282   -129.88947   -674.22519   -7.4138084 
   11200     225.9295    3.1880364    2048160.9   -6146.5326    450.54001   -6597.0726     403.2048    2066.2032    29.029697 
   11400    217.76755   -2.3194534    2048160.9   -6150.8558    434.26375   -6585.1195   -293.35133      869.001    -554.8731 
   11600    223.06385    -7.907246    2048160.9   -6153.8986    444.82544   -6598.7241   -1000.0637    476.47172   -1332.2661 
   11800    214.20408  -0.59995473    2048160.9   -6155.5288    427.15762   -6582.6864   -75.878879    -401.0502   -2.7152824 
   12000    222.96231   -9.2202154    2048160.9   -6155.3511    444.62294    -6599.974   -1166.1207   -2170.3047   -940.16642 
   12200    220.56864   0.67809876    2048160.9   -6153.2696    439.84958   -6593.1192    85.762093   -1260.8586    388.74651 
   12400    217.48195   -2.6714137    2048160.9    -6145.125    433.69423   -6578.8193   -337.86529   -246.12041   -358.50301 
   12600    219.46925   -7.3705221    2048160.9   -6127.2493    437.65723   -6564.9065   -932.18191    496.07043   -1253.5217 
   12800    219.66247  -0.20290139    2048160.9   -6108.3905    438.04252    -6546.433    -25.66182     1285.984    -320.7778 
   13000    237.46826   -4.8681394    2048160.9   -6098.2931    473.55016   -6571.8433   -615.69472    501.24977   -866.99547 
   13200    230.90096    2.4293284    2048160.9    -6096.442    460.45389   -6556.8959     307.2477    1172.7054    112.51815 
   13400    220.55554   -5.4496852    2048160.9    -6099.945    439.82346   -6539.7685   -689.24534   -1321.9325   -546.88327 
   13600    230.65449  -0.23384916    2048160.9    -6105.548    459.96241   -6565.5104   -29.575918     734.0357   -201.38582 
   13800    228.38685   -7.4894572    2048160.9   -6113.1803    455.44036   -6568.6206   -947.22416   -1051.6433   -923.71727 
   14000    224.26778    1.4694124    2048160.9   -6122.1211    447.22627   -6569.3473    185.84297    1676.0673   -149.45553 
   14200    222.84676   -3.0856071    2048160.9   -6130.8728    444.39253   -6575.2653   -390.25013    1116.3564   -729.22673 
   14400    221.56937    3.3021779    2048160.9   -6137.4499     441.8452   -6579.2951    417.64077    602.14653    376.12184 
   14600    214.83158   -5.9324298    2048160.9   -6140.8829    428.40896   -6569.2919   -750.30014   -2107.2467   -444.98105 
   14800    226.38873   -1.0078511    2048160.9   -6141.0534    451.45578   -6592.5092    -127.4673    112.57631   -181.47465 
   15000    217.07452    5.4976169    2048160.9   -6139.7673    432.88174   -6572.6491    695.30748    1551.6014    502.63447 
   15200    221.11261   -7.0780237    2048160.9    -6134.072    440.93434   -6575.0063   -895.18838    431.96483   -1193.7816 
   15400    229.32326   -10.175612    2048160.9   -6113.5157    457.30771   -6570.8234   -1286.9538     531.4312   -1696.0674 
   15600    233.41311    7.3426362    2048160.9   -6090.4383    465.46354   -6555.9019    928.65507    4606.0666    101.23595 
   15800    226.79694   -7.4980934    2048160.9   -6081.8749    452.26982   -6534.1448   -948.31642   -1823.1137   -751.47676 
   16000    238.37189    3.4832381    2048160.9   -6079.9442    475.35214   -6555.2964    440.54024    3109.1687    -159.8991 
   16200    232.39147     1.890372    2048160.9   -6084.6256    463.42622   -6548.0518    239.08355    338.10824    216.80004 
   16400    228.48264     4.711851    2048160.9   -6093.8649    455.63138   -6549.4963    595.92825    712.91687    569.59805 
   16600    226.59653   -5.9125055    2048160.9   -6103.5005    451.87017   -6555.3707   -747.78024   -1293.0846   -625.07821 
   16800    220.38269    1.8906476    2048160.9   -6112.8523    439.47877   -6552.3311    239.11841   -1530.6355    637.30443 
   17000    232.11949     10.80482    2048160.9   -6121.6185    462.88384   -6584.5024    1366.5325    2974.1085    1004.8142 
   17200    226.66397   -15.978461    2048160.9    -6130.211    452.00466   -6582.2156   -2020.8653   -3881.6351   -1602.1703 
   17400     224.5164     8.326379    2048160.9   -6135.9195    447.72206   -6583.6416    1053.0733    2925.4729    631.77471 
   17600    214.66526   -7.7711769    2048160.9   -6138.8799    428.07728   -6566.9572   -982.85447    84.626454   -1223.0211 
   17800    217.93365   -3.6762599    2048160.9   -6136.5361    434.59499   -6571.1311   -464.95254    2373.8726   -1103.6733 
   18000    229.64128   -2.3625709    2048160.9   -6128.8899     457.9419   -6586.8318    -298.8046    665.53158   -515.77326 
   18200    231.79683   -5.1024919    2048160.9   -6116.1075     462.2404   -6578.3479    -645.3343   -1053.5511   -553.47796 
   18400    215.04435   -1.5933984    2048160.9     -6099.14    428.83326   -6527.9733   -201.52402    2299.0016   -764.13197 
   18600    228.83564   -4.6737601    2048160.9   -6084.9345    456.33532   -6541.2699   -591.11072   -1679.2968   -346.26411 
   18800     228.0625    2.5498429    2048160.9   -6078.3258    454.79355   -6533.1193     322.4897    1587.3934    37.885793 
   19000    238.21919  -0.40272256    2048160.9   -6077.9985    475.04764   -6553.0461    -50.93407    461.10008   -166.13951 
   19200     228.3572    2.1215333    2048160.9   -6081.2576    455.38123   -6536.6389    268.31953    2263.3071   -180.55029 
   19400    226.94226    -7.071037    2048160.9   -6085.6859    452.55962   -6538.2455   -894.30474   -1109.1425   -845.95472 
   19600    222.32602    2.8222165    2048160.9    -6091.141    443.35409   -6534.4951    356.93797     1036.041    204.13698 
   19800      222.703     6.490189    2048160.9   -6097.1918    444.10585   -6541.2977    820.84237   -270.38784    1066.3547 
   20000    224.76808    -5.508126    2048160.9   -6102.6187    448.22394   -6550.8426    -696.6366    716.81343   -1014.6491 
   20200    236.86511   -3.2784032    2048160.9   -6107.6017    472.34739   -6579.9491   -414.63388    975.64123   -727.43593 
   20400    212.76046    10.423768    2048160.9   -6114.8951     424.2788   -6539.1739    1318.3392    1860.2688    1196.3887 
   20600    218.30055   -5.7830172    2048160.9   -6122.3597    435.32664   -6557.6863   -731.40328    698.79712   -1053.1841 
   20800    225.63151   -3.7611104    2048160.9   -6130.0469    449.94577   -6579.9927   -475.68395    252.98436   -639.62564 
   21000    210.89838   -1.5473289    2048160.9   -6138.3592    420.56552   -6558.9248    -195.6974    872.62184   -436.06333 
   21200    218.87605   -5.0426003    2048160.9   -6145.7244    436.47428   -6582.1987   -637.75955   -581.98138   -650.30078 
   21400    214.04076   -1.5800851    2048160.9   -6151.1032    426.83194   -6577.9351   -199.84022   -359.20652   -163.98056 
   21600    205.48504   -5.2724455    2048160.9   -6150.9773    409.77044   -6560.7478   -666.82907   -1645.4006   -446.64436 
   21800    213.64318    4.7424572    2048160.9   -6140.0219     426.0391    -6566.061    599.79914    502.20557    621.74923 
   22000    223.50214    1.3510569    2048160.9    -6122.048    445.69946   -6567.7474    170.87403   -936.87036    420.11084 
   22200    223.57888    4.0971134    2048160.9   -6107.9495    445.85248   -6553.8019    518.17971   -23.829354    640.12305 
   22400    219.68741   -1.2347952    2048160.9    -6099.191    438.09227   -6537.2833   -156.16991   -697.44407   -34.382732 
   22600      223.413    6.0141862    2048160.9   -6092.6528     445.5217   -6538.1745    760.64024    2399.9182    391.79729 
   22800    230.03068     1.266406    2048160.9   -6087.7054    458.71843   -6546.4238    160.16786    255.37248    138.74493 
   23000    227.81894   -4.3537078    2048160.9   -6085.2136    454.30785   -6539.5214   -550.63232   -715.31599    -513.5715 
   23200    237.96003    5.2879251    2048160.9   -6084.8575    474.53084   -6559.3884    668.78683    165.32958    782.05409 
   23400    222.24911   0.96309402    2048160.9   -6085.8821    443.20071   -6529.0828    121.80668   -2227.1229    650.30706 
   23600    226.52703    1.5385354    2048160.9    -6089.483    451.73158   -6541.2146    194.58526   -378.45728    323.51544 
   23800    241.68437   -3.9073125    2048160.9   -6094.3941    481.95778   -6576.3519   -494.17478    272.08241   -666.57359 
   24000    227.77648    1.2576964    2048160.9   -6104.8134    454.22318   -6559.0366    159.06632    489.18112    84.789322 
   24200    224.83463   -3.9115595    2048160.9   -6119.8347    448.35667   -6568.1913   -494.71191   -1046.8462   -370.47662 
   24400    214.98126    6.7729519    2048160.9   -6132.1605    428.70745   -6560.8679    856.60463    592.88378    915.92935 
   24600     220.7764   -3.8142012    2048160.9   -6138.4674    440.26389   -6578.7313   -482.39858   -648.62343   -444.99193 
   24800    220.11955    4.3010285    2048160.9   -6140.8816    438.95403   -6579.8356    543.96974    1186.1839    399.46608 
   25000    221.49722     4.017432    2048160.9     -6140.12    441.70132   -6581.8213    508.10206   -1615.1312     985.8162 
   25200    223.02692    5.9073627    2048160.9   -6137.5525     444.7518   -6582.3043    747.12981    2529.2767    346.14198 
   25400     226.3223   -7.2073742    2048160.9   -6134.6144    451.32331   -6585.9377   -911.54789   -955.91407   -901.55323 
   25600    223.54394    6.7572642    2048160.9   -6129.6769    445.78281   -6575.4597    854.62054    2485.8096     487.5963 
   25800    233.88532    -4.444523    2048160.9   -6118.3475     466.4052   -6584.7527   -562.11811    873.51942   -885.12456 
   26000     221.1816  -0.71513181    2048160.9   -6096.8652    441.07193   -6537.9372   -90.445823    987.74809   -333.03496 
   26200    224.71598    6.8296277    2048160.9   -6080.6409    448.12004    -6528.761    863.77266    575.35855     928.6532 
   26400    235.20927    1.5838548    2048160.9   -6073.9983    469.04536   -6543.0437    200.31699   -810.60154    427.76787 
   26600    230.28896   -6.2280317    2048160.9   -6073.9414    459.23347   -6533.1749   -787.68619    29.644522   -971.57241 
   26800    239.75285   -4.4658475    2048160.9   -6077.4298    478.10601   -6555.5358   -564.81511   -957.61521   -476.42859 
   27000    235.17231     -6.92596    2048160.9   -6085.8147    468.97167   -6554.7864   -875.95622    864.69371   -1267.5853 
   27200    234.28201   -4.1240637    2048160.9   -6096.9618    467.19627   -6564.1581   -521.58823   -286.52926   -574.46869 
   27400    220.20297    3.6552141    2048160.9   -6108.5508    439.12038   -6547.6712    462.29079   -344.05877     643.7107 
   27600      226.326   -3.0168821    2048160.9   -6117.3025    451.33069   -6568.6332   -381.55817    1132.2774   -722.16139 
   27800    221.27814    -7.683903    2048160.9   -6121.8851    441.26445   -6563.1496   -971.81657    436.27691   -1288.6201 
   28000    225.70633   -3.9135742    2048160.9   -6124.5472    450.09496   -6574.6422   -494.96671    946.87161   -819.36923 
   28200    228.47319    3.7780975    2048160.9   -6125.8448    455.61253   -6581.4574    477.83239    2265.5463    75.595663 
   28400    228.47187    -5.549425    2048160.9   -6125.8171     455.6099    -6581.427   -701.85987   -319.51284   -787.87723 
   28600    218.38328   -1.8818687    2048160.9   -6125.2661    435.49163   -6560.7577    -238.0081   -1516.2385    49.593125 
   28800     225.9304   -1.3149681    2048160.9   -6124.8348     450.5418   -6575.3766   -166.30972    -707.9892   -44.431214 
   29000    240.61065  -0.79432191    2048160.9   -6124.9942     479.8166   -6604.8108   -100.46134   -2001.3099     327.2252 
   29200    233.30335    7.8516485    2048160.9    -6127.919    465.24465   -6593.1636    993.03206    1337.4859    915.51746 
   29400      225.088    1.0202229    2048160.9     -6136.09    448.86192   -6584.9519    129.03202    645.92694    12.730474 
   29600    225.06558   -2.1125614    2048160.9   -6145.8379    448.81721   -6594.6551   -267.18481   -302.68709   -259.19326 
   29800    229.63097    5.5241621    2048160.9   -6153.6991    457.92133   -6611.6205    698.66475    670.62102    704.96499 
   30000    202.06685   -5.0025295    2048160.9    -6160.497    402.95403   -6563.4511   -632.69161   -420.54573   -680.41518 
   30200      210.821   -8.8623552    2048160.9   -6163.0907    420.41121   -6583.5019   -1120.8605   -273.25863   -1311.5531 
   30400    217.93237   0.15146107    2048160.9     -6160.73    434.59244   -6595.3224    19.155939     324.4069   -49.524865 
   30600    213.32146   -9.6179279    2048160.9   -6151.9484    425.39753    -6577.346   -1216.4211   -1411.4048   -1172.5338 
   30800    215.25105    2.3817112    2048160.9   -6139.1221    429.24544   -6568.3676    301.22536    1743.6755   -23.325659 
   31000    227.23487   -0.9608852    2048160.9   -6126.9566    453.14312   -6580.0997   -121.52732   -261.01102   -90.142257 
   31200     228.4183    2.9222466    2048160.9   -6118.5196    455.50308   -6574.0227    369.58921   -632.59661    595.07296 
   31400    231.09998    4.2020648    2048160.9   -6113.7296    460.85078   -6574.5804    531.45337    189.69434    608.34088 
   31600    213.09962   -8.3500526    2048160.9   -6111.1566    424.95514   -6536.1117   -1056.0674    -749.3603   -1125.0612 
   31800    222.72851   -2.4848745    2048160.9   -6107.0528    444.15672   -6551.2096   -314.27286    62.302657   -398.99694 
   32000    219.47011    3.8670264    2048160.9   -6103.1979    437.65894   -6540.8568    489.07961    933.84681    389.00168 
   32200    222.88103    -9.995921    2048160.9   -6100.9791    444.46086     -6545.44   -1264.2275    186.34323   -1590.5843 
   32400    230.80169   -4.7389102    2048160.9   -6098.2314    460.25595   -6558.4873   -599.35053   -392.59221   -645.86237 
   32600    219.48179    4.8776291    2048160.9   -6095.5035    437.68224   -6533.1858    616.89492     2730.552    141.32007 
   32800    228.88246   -4.4549973    2048160.9    -6090.631    456.42869   -6547.0597   -563.44284    767.24594   -862.83612 
   33000     232.1014    1.4292951    2048160.9   -6080.5555    462.84777   -6543.4033    180.76915    1213.0392   -51.490945 
   33200    235.16775    2.0131899    2048160.9    -6061.615    468.96258   -6530.5776    254.61686   -499.57752    424.30485 
   33400     233.7933   -2.4225622    2048160.9   -6045.0363    466.22169    -6511.258   -306.39196   -2137.7337    105.65856 
   33600    241.64369    3.8641579    2048160.9   -6040.2225    481.87665   -6522.0991    488.71682    1639.9693    229.68185 
   33800    236.40355   0.35911457    2048160.9   -6043.3493    471.42696   -6514.7762    45.418778    834.73805   -132.17629 
   34000    232.62432   -2.9024995    2048160.9   -6052.5025    463.89055   -6516.3931    -367.0917    482.19677   -558.17404 
   34200    233.74703   -1.5588067    2048160.9   -6066.8901    466.12942   -6533.0195   -197.14905    81.141056   -259.76079 
   34400    239.30323    5.9845718    2048160.9   -6080.8828    477.20939   -6558.0922    756.89476    1432.8636    604.79352 
   34600     231.5624   -4.7882139    2048160.9   -6090.2824    461.77291   -6552.0554   -605.58619    877.91294   -939.36076 
   34800    219.09663    3.1177532    2048160.9   -6096.3858    436.91416      -6533.3    394.31577   -306.18625    551.92124 
   35000    237.91412    8.4180463    2048160.9   -6099.8331    474.43928   -6574.2724    1064.6669    94.016977    1283.0456 
   35200     223.1354   -2.7270787    2048160.9   -6103.9686    444.96811   -6548.9367   -344.90548   -946.93932   -209.44499 
   35400    230.25395    4.7353771    2048160.9   -6106.9227    459.16365   -6566.0864    598.90369     412.6257    640.80752 
   35600    226.25452   -4.8802151    2048160.9   -6109.4585    451.18816   -6560.6467   -617.22198    -879.5234   -558.19655 
   35800    227.17027   0.18955062    2048160.9   -6112.6737     453.0143    -6565.688    23.973289    2306.8551   -489.66855 
   36000     217.6938   -12.199376    2048160.9   -6115.2381    434.11669   -6549.3548    -1542.908   -449.30253   -1788.9449 
   36200    220.80989   -7.7744737    2048160.9   -6115.6637    440.33067   -6555.9944   -983.27143    410.44361   -1296.8397 
   36400    221.72415   -7.7601173    2048160.9   -6112.3391    442.15386   -6554.4929   -981.45572    2312.8931   -1722.6609 
   36600    229.88873   -4.3929366    2048160.9   -6107.0344    458.43536   -6565.4698   -555.59375    1027.5227    -911.7826 
   36800    223.07585   -8.5863076    2048160.9   -6102.3644    444.84937   -6547.2138   -1085.9476   -159.73734   -1294.3273 
   37000    233.01488   -9.7188292    2048160.9   -6098.3885     464.6694   -6563.0579   -1229.1825   -1254.3401   -1223.5054 
   37200    219.86281   -9.1624525    2048160.9   -6096.0641    438.44204   -6534.5061   -1158.8151   -1105.8693    -1170.712 
   37400    233.91889    5.6364737    2048160.9   -6093.7132    466.47214   -6560.1853     712.8693    954.54238    658.48388 
   37600    234.97106   -7.3426117    2048160.9   -6094.8002    468.57035   -6563.3705   -928.65197   -2102.5411   -664.51782 
   37800      222.169    1.1928624    2048160.9   -6097.7255    443.04097   -6540.7664    150.86648   -189.24215    227.38784 
   38000    225.38741  0.004021124    2048160.9   -6102.3095    449.45899   -6551.7685   0.50856901    1180.6339   -265.01606 
   38200     219.2158    10.299028    2048160.9   -6107.5099    437.15179   -6544.6617    1302.5628    3207.4559    873.94988 
   38400    227.89029   -10.524299    2048160.9   -6113.5206    454.45013   -6567.9707   -1331.0538    394.23799   -1719.2211 
   38600    233.75092    2.9238383    2048160.9   -6120.6858    466.13719    -6586.823    369.79052   -148.59514    486.42069 
   38800    219.34299    3.7167625    2048160.9   -6132.2805    437.40543   -6569.6859    470.07508    963.40832     359.0702 
   39000    222.35018   -8.6747881    2048160.9   -6142.5796    443.40226   -6585.9818   -1097.1381    492.07766   -1454.6919 
   39200    216.01538   -2.6298494    2048160.9   -6149.0076    430.76965   -6579.7773   -332.60847    1579.3601   -762.79108 
   39400     217.2616    2.1970242    2048160.9   -6152.1784    433.25481   -6585.4332    277.86719    1646.1116   -29.987439 
   39600    222.90216   -8.8693538    2048160.9   -6152.7219      444.503   -6597.2249   -1121.7457   -463.29467   -1269.8799 
   39800    216.72886    5.4763538    2048160.9   -6147.9335    432.19244   -6580.1259    692.61823    1130.1979    594.15471 
   40000     221.6214    1.1386704    2048160.9   -6132.5255    441.94895   -6574.4745    144.01258    -806.0215    357.76542 
   40200    225.24285   -6.2746558    2048160.9   -6110.7887    449.17071   -6559.9594   -793.58295     1263.772   -1256.4708 
   40400    217.74339   -2.6747788    2048160.9    -6097.465    434.21558   -6531.6806   -338.29089    1513.5645   -754.94814 
   40600    230.04506  -0.71262068    2048160.9   -6090.0002     458.7471   -6548.7473    -90.12823    2308.6868   -629.85314 
   40800    231.99726    4.7009613    2048160.9    -6086.122    462.64009   -6548.7621    594.55097    353.94699    648.67805 
   41000    231.70138  -0.57033491    2048160.9   -6087.9111    462.05006   -6549.9612   -72.132731    149.58829   -122.01831 
   41200    234.08196  -0.25118298    2048160.9   -6093.8908    466.79733   -6560.6882   -31.768201    -1376.889    270.88035 
   41400    222.09742   -6.3058852    2048160.9   -6103.4891    442.89821   -6546.3873   -797.53267   -1660.1639    -603.4324 
   41600    216.07298   -2.0025009    2048160.9   -6113.9355     430.8845     -6544.82   -253.26498    2648.9741   -906.25654 
   41800    227.23448   -11.928095    2048160.9   -6123.5283    453.14235   -6576.6706    -1508.598    841.73771   -2037.3959 
   42000    222.32968   -1.2685228    2048160.9   -6129.0486    443.36138     -6572.41   -160.43558    329.40114   -270.64518 
   42200      227.014     6.368316    2048160.9   -6131.2651    452.70268   -6583.9678    805.42856    2304.6401    468.09953 
   42400    221.32997    7.2943909    2048160.9   -6130.6826     441.3678   -6572.0504    922.55327    1635.4003    762.15228 
   42600    214.48462   -2.7308007    2048160.9   -6126.0452    427.71707   -6553.7622   -345.37622    -143.5117   -390.79042 
   42800     218.1189   -1.5474486    2048160.9    -6114.763     434.9644   -6549.7274   -195.71253    -217.9222   -190.71276 
   43000    221.04227   0.87845148    2048160.9   -6094.0071    440.79407   -6534.8012    111.10157    1240.9707   -143.11708 
   43200    221.55803   -11.045698    2048160.9   -6077.7672     441.8226   -6519.5898   -1396.9974    305.22989   -1779.9744 
   43400    239.56497   0.49437078    2048160.9   -6071.8903    477.73135   -6549.6216    62.525218    559.72929   -49.345047 
   43600    240.72231    2.6364898    2048160.9   -6072.6118    480.03926   -6552.6511    333.44831    1737.2939    17.582758 
   43800    229.43634   -0.9586324    2048160.9    -6078.049     457.5332   -6535.5822    -121.2424    217.19317   -197.38773 
   44000    227.62134   -1.2729171    2048160.9   -6087.1145    453.91381   -6541.0283   -160.99135    1621.0534   -561.94384 
   44200    223.27589    8.7587745    2048160.9   -6095.9318    445.24828   -6541.1801    1107.7602    1461.3532    1028.1878 
   44400     217.9079     -2.70357    2048160.9   -6101.6883    434.54364   -6536.2319   -341.93223   -899.70609   -216.43015 
   44600    219.64031   -4.2701232    2048160.9   -6105.9165    437.99834   -6543.9149   -540.06101   -1289.2677   -371.48442 
   44800    226.98215    1.2830496    2048160.9   -6109.6027    452.63917   -6562.2419    162.27286    2181.5385   -292.05801 
   45000     213.4454   -3.3546059    2048160.9   -6110.9945    425.64469   -6536.6391   -424.27157    2257.5522    -1027.668 
   45200    222.74321   -4.8103256    2048160.9   -6108.0913    444.18603   -6552.2773   -608.38276    1765.7413   -1142.5452 
   45400    235.77538    0.8607781    2048160.9   -6099.5563    470.17429   -6569.7306    108.86634    937.46593    -77.56754 
   45600    224.46164   -6.2475868    2048160.9   -6086.2463    447.61286   -6533.8592   -790.15942   -1093.8694   -721.81484 
   45800    231.64498   -7.0015613    2048160.9   -6072.4697    461.93759   -6534.4073   -885.51785   -976.11687   -865.12129 
   46000    233.67347    3.7256641    2048160.9   -6066.0113    465.98274   -6531.9941     471.2009    661.46699     428.3852 
   46200    239.57332   -7.0909416    2048160.9   -6064.5357    477.74799   -6542.2837   -896.82217   -2011.3096   -646.05365 
   46400    231.80463   -2.0207324    2048160.9   -6069.1059    462.25597   -6531.3619    -255.5708    2132.0779   -792.78105 
   46600     231.2537   -6.6215602    2048160.9   -6079.1564    461.15733   -6540.3137   -837.45745    2303.4942   -1544.1507 
   46800    228.55271   -7.5979924    2048160.9   -6093.5037    455.77111   -6549.2748   -960.95107    2248.6919    -1683.098 
   47000    219.26125   -5.9094326    2048160.9   -6106.4088    437.24243   -6543.6512   -747.39159    1483.8373   -1249.4012 
   47200    214.75383     2.552218    2048160.9   -6111.3742    428.25391   -6539.6281    322.79009    2180.7127   -95.241258 
   47400    215.89884   -1.6318147    2048160.9   -6111.7932    430.53725   -6542.3305   -206.38269   -652.81292   -105.93442 
   47600    229.10377    1.4035538    2048160.9   -6110.3369    456.87001   -6567.2069    177.51354   -491.71258    328.08498 
   47800    228.05714    3.7292965    2048160.9    -6109.289    454.78287   -6564.0719    471.66031    485.05418    468.64031 
   48000    224.57749   -1.5913384    2048160.9   -6108.7521    447.84388    -6556.596   -201.26348   -318.16594   -174.95804 
   48200    220.51518   -4.8430494    2048160.9   -6108.0578    439.74298   -6547.8008   -612.52147    1194.2169   -1019.0238 
   48400    221.42995   0.67924416    2048160.9   -6104.5129    441.56718   -6546.0801    85.906957   -526.41016    223.67529 
   48600    229.16009   -2.0633256    2048160.9    -6099.227    456.98232   -6556.2093   -260.95775   -879.28996   -121.83132 
   48800    230.48531    1.8738514    2048160.9   -6093.0828    459.62503   -6552.7078    236.99412    1658.7799   -82.906613 
   49000    238.09141   -7.4998739    2048160.9   -6084.6321    474.79283   -6559.4249    -948.5416    261.25181   -1220.7285 
   49200    246.56429  -0.24004439    2048160.9   -6079.4909    491.68913     -6571.18   -30.359456    2547.2315    -610.3092 
   49400    233.32525 -0.098315114    2048160.9   -6082.6273    465.28834   -6547.9156   -12.434339    2382.8878   -551.37441 
   49600    241.24238   -3.7271852    2048160.9   -6093.4642    481.07637   -6574.5406   -471.39329    2443.6585   -1127.2647 
   49800    239.21508    2.7657878    2048160.9    -6111.283     477.0336   -6588.3166    349.80118    2247.8437   -77.257393 
   50000    214.85459   -7.1148314    2048160.9   -6125.3564    428.45485   -6553.8112    -899.8436    685.34826   -1256.4947 
   50200    233.30666   -4.4804863    2048160.9   -6133.1511    465.25126   -6598.4024   -566.66654   -557.01292   -568.83086 
   50400    219.46183    1.7454638    2048160.9   -6139.0537    437.64243   -6576.6961    220.75638    2604.4637   -315.57355 
   50600    223.36918   -2.4402654    2048160.9   -6142.6559    445.43431   -6588.0902   -308.63096   -531.13505   -258.56401 
   50800    222.94167   0.23669507    2048160.9   -6143.8225     444.5818   -6588.4043    29.935852    1385.7412   -275.11665 
   51000    216.90926  -0.10501089    2048160.9   -6141.0345    432.55218   -6573.5867   -13.281183    476.32799   -123.44159 
   51200    221.67728   -1.5969257    2048160.9   -6132.7898    442.06039   -6574.8502   -201.97013    614.74758   -385.72639 
   51400    233.46864   0.87894854    2048160.9   -6117.8287    465.57428    -6583.403    111.16444   -477.60626    243.63455 
   51600    225.18271   -8.0924092    2048160.9   -6104.4097    449.05079   -6553.4605   -1023.4821   -163.32252   -1217.0015 
   51800    224.27895    3.4900247    2048160.9    -6096.273    447.24854   -6543.5215    441.39857     2589.234   -41.863918 
   52000    226.59675   -4.9868361    2048160.9   -6093.0414    451.87061    -6544.912   -630.70681     556.0711   -897.71966 
   52200     238.1307    3.6643206    2048160.9   -6093.2716    474.87118   -6568.1428    463.44253    1094.2589    321.50445 
   52400    224.50474   -3.0203476    2048160.9   -6097.2738    447.69879   -6544.9726   -381.99647    1795.9856   -872.03065 
   52600    231.15728   -2.2073268    2048160.9   -6101.4816    460.96504   -6562.4466    -279.1702   -755.37722   -172.02126 
   52800     228.1145   -6.7127748    2048160.9   -6105.6902    454.89724   -6560.5875   -848.99377   -737.30549   -874.11173 
   53000    225.84498    6.3807271    2048160.9   -6112.1309    450.37146   -6562.5023    806.99824    1068.4358    748.16461 
   53200     215.2659   -13.413927    2048160.9   -6121.1691    429.27506   -6550.4441   -1696.5176   -1874.1945   -1656.5177 
   53400     223.0691    4.7184947    2048160.9   -6132.7293    444.83591   -6577.5652    596.76851    3101.5733    33.186871 
   53600    211.07816   -10.618086    2048160.9   -6144.9468    420.92403   -6565.8709   -1342.9154    51.361111   -1656.6051 
   53800    223.44199   -9.9714344    2048160.9   -6154.7354     445.5795    -6600.315   -1261.1306   -757.98488   -1374.3197 
   54000    215.81282  -0.58729145    2048160.9   -6163.5874     430.3657   -6593.9531   -74.277299    1609.0101   -453.01085 
   54200    222.43697    0.8912099    2048160.9   -6172.9374    443.57534   -6616.5127    112.71518    2838.7833   -500.64342 
   54400    212.60143     1.130838    2048160.9   -6187.1521    423.96168   -6611.1138    143.02199    3503.9477   -613.17807 
   54600     207.9655   -1.6299161    2048160.9   -6203.9645    414.71688   -6618.6814   -206.14257   -29.690024   -245.84105 
   54800    203.77979      1.30453    2048160.9   -6212.6495    406.36989   -6619.0194    164.98957    -1069.518     442.7478 
   55000    208.60981    6.5671723    2048160.9   -6211.3207    416.00174   -6627.3224    830.57879    1242.6293    737.85735 
   55200    211.93083   -2.7585214    2048160.9   -6200.5014    422.62439   -6623.1258   -348.88218   -611.68577   -289.74741 
   55400    226.90603   -7.4557168    2048160.9   -6186.3039    452.48736   -6638.7913   -942.95686     629.9225   -1296.8371 
   55600    213.61446  -0.64300659    2048160.9   -6176.2731    425.98183   -6602.2549   -81.323834    2678.0817   -702.18063 
   55800    213.55033   -5.9574354    2048160.9   -6168.3692    425.85394   -6594.2232   -753.46272   -514.01691   -807.32704 
   56000     213.4289  0.066280617    2048160.9   -6159.5464    425.61178   -6585.1582    8.3827973    2012.3672   -442.50774 
   56200    218.93548   0.94960376    2048160.9   -6150.2825     436.5928   -6586.8753    120.10051    452.62431    45.282024 
   56400    220.48063   -2.0451788    2048160.9   -6140.0574    439.67408   -6579.7315   -258.66264   -764.76851   -144.78682 
   56600    221.02812    3.3486864    2048160.9   -6132.0789    440.76586   -6572.8448    423.52291    678.11174    366.23542 
   56800    230.38562   -4.0213235    2048160.9    -6124.902    459.42623   -6584.3283   -508.59424    1565.1058   -975.16354 
   57000     217.6916    1.1179498    2048160.9   -6116.2837    434.11229    -6550.396    141.39196     568.0396    45.395604 
   57200    212.27303   -0.4703825    2048160.9   -6106.2708    423.30679   -6529.5776   -59.491316    1602.8088     -433.503 
   57400    233.28589   -8.5265521    2048160.9   -6097.2438    465.20985   -6562.4536   -1078.3901   -455.57164   -1218.5076 
   57600    226.25715    6.7070639    2048160.9   -6093.8598    451.19339   -6545.0532    848.27148     1494.137    702.94214 
   57800    227.64068    3.2651185    2048160.9   -6095.5104    453.95238   -6549.4628    412.95371    508.01983     391.5585 
   58000    224.64014   0.26666677    2048160.9    -6100.123    447.96881   -6548.0918    33.726504    391.23458   -46.712191 
   58200    225.19387   -5.0137648    2048160.9   -6104.6926    449.07305   -6553.7657    -634.1126   -2029.5724   -320.12974 
   58400    225.89382    2.4893889    2048160.9   -6108.5346    450.46886   -6559.0035    314.84382    213.38793     337.6668 
   58600    230.02259   -1.0105786    2048160.9   -6111.9212    458.70228   -6570.6235   -127.81226     13.17148   -159.53144 
   58800    218.55453    8.3417482    2048160.9   -6114.8457    435.83312   -6550.6788    1055.0171    871.01682    1096.4022 
   59000    226.95327   -7.6127492    2048160.9   -6116.0813    452.58158   -6568.6629   -962.81743   -621.53709   -1039.5914 
   59200    217.70835    7.1505619    2048160.9   -6115.9589     434.1457   -6550.1046    904.36259   -574.59445    1237.1111 
   59400    226.14524   -1.1426792    2048160.9   -6114.7548    450.97023    -6565.725   -144.51959   -2209.9404     320.1958 
   59600    235.81459    3.0488765    2048160.9   -6113.1193    470.25247   -6583.3718    385.60464    450.12453    371.08261 
   59800    224.18169  -0.60541135    2048160.9   -6111.9927     447.0546   -6559.0473   -76.569001   -1244.0677    186.11572 
   60000    230.01005   -6.9268017    2048160.9   -6111.3138    458.67728   -6569.9911   -876.06267   -650.93242   -926.70437 
   60200    230.76177    2.1590567    2048160.9   -6109.4182    460.17633   -6569.5945    273.06527     38.17534    325.91108 
   60400    226.95172   -5.6066392    2048160.9   -6107.8341    452.57849   -6560.4125   -709.09599   -1241.1549   -589.37469 
   60600    220.73584    9.3073747    2048160.9   -6106.2154      440.183   -6546.3984    1177.1441    1268.9191     1156.479 
   60800    225.70244   -2.5250093    2048160.9   -6101.8102     450.0872   -6551.8974   -319.34888     498.3465   -503.32352 
   61000    220.98994   0.39981762    2048160.9   -6093.4262    440.68972   -6534.1159     50.56667    1259.6914   -221.48343 
   61200    230.70395   -3.9810697    2048160.9   -6081.4193    460.06104   -6541.4804   -503.50316   -497.79167   -504.78137 
   61400    242.63857  -0.33513988    2048160.9   -6070.5717     483.8606   -6554.4323   -42.386595    1114.2664   -302.62945 
   61600    239.37751     -1.61909    2048160.9   -6065.7445    477.35751    -6543.102   -204.77334    1911.7253   -680.97634 
   61800    244.27617   -5.6732813    2048160.9   -6068.1703    487.12623   -6555.2966   -717.52451    2007.8938   -1330.7256 
   62000    237.51778   -2.4140852    2048160.9   -6078.1975    473.64891   -6551.8464   -305.31983   -62.170805   -360.02347 
   62200    228.52204   -8.4399591    2048160.9    -6094.715    455.70994   -6550.4249   -1067.4383   -1632.5688   -940.27106 
   62400    238.82076    9.9978746    2048160.9   -6107.3268    476.24727   -6583.5741    1264.4746    2577.3948     969.0543 
   62600    222.26824     -6.80267    2048160.9   -6114.0012    443.23887   -6557.2401   -860.36319    496.52619   -1165.6475 
   62800    221.75208   -2.4357992    2048160.9   -6117.9384    442.20955   -6560.1479    -308.0661    514.57877   -493.15451 
   63000    214.99337   -2.1081413    2048160.9   -6120.4446     428.7316   -6549.1762   -266.62578    1459.8555   -655.07523 
   63200    218.16549    3.2825546    2048160.9    -6120.848    435.05732   -6555.9053    415.15893    777.81921    333.55581 
   63400    218.88798   -8.2773218    2048160.9   -6119.4554    436.49808   -6555.9535   -1046.8688   -276.40137   -1220.2074 
   63600     224.3537    9.9181996    2048160.9   -6116.3647    447.39761   -6563.7624    1254.3977     1525.965    1193.2789 
   63800    222.95012   -4.9406362    2048160.9   -6111.3803    444.59864   -6555.9789   -624.86371   -3105.4187   -66.737835 
   64000    224.72947     5.245692    2048160.9   -6100.4824    448.14695   -6548.6294    663.44543    871.29379    616.67114 
   64200    231.71594   -3.3647568    2048160.9   -6084.3664    462.07911   -6546.4455    -425.5554   -1153.5229   -261.75913 
   64400    250.99287   -3.4465455    2048160.9   -6071.4995    500.52042   -6572.0199   -435.89957   -538.66199    -412.7724 
   64600     228.7025   -1.0940573    2048160.9   -6067.2293    456.06981   -6523.2991   -138.37018    1558.6161   -520.18508 
   64800    226.84338   -8.5552194    2048160.9   -6070.6637    452.36244   -6523.0261   -1082.0157   -1925.3877   -892.24484 
   65000    237.51433   0.30264137    2048160.9   -6077.7524    473.64204   -6551.3945    38.276367    656.77453   -100.88437 
   65200    237.59137   -8.0621629    2048160.9   -6086.4275    473.79566   -6560.2232   -1019.6567   -758.29317   -1078.4489 
   65400    223.07815   -1.4335059    2048160.9   -6094.0344    444.85395   -6538.8883   -181.30171    1970.3054   -665.40434 
   65600    235.01948  -0.44961799    2048160.9   -6099.8594     468.6669   -6568.5263   -56.865138    1645.8147   -439.96217 
   65800    231.34327   -10.005726    2048160.9   -6103.2858    461.33595   -6564.6217   -1265.4676   -433.68321   -1452.5993 
   66000    228.11319   -3.4384514    2048160.9   -6107.4489    454.89465   -6562.3435   -434.87587   -816.53721   -348.99731 
   66200    220.45828   -1.9406054    2048160.9    -6111.554    439.62951   -6551.1835   -245.43678   -1035.5439    -67.66172 
   66400    227.37167    7.0858497    2048160.9   -6114.1127    453.41593   -6567.5286    896.17817    1595.1673    738.89554 
   66600    222.13954   -3.1503707    2048160.9   -6116.2041    442.98222   -6559.1863   -398.44106   -685.48759   -333.85103 
   66800    211.08916   -6.1419525    2048160.9   -6120.5229    420.94596   -6541.4689   -776.79939   -300.16566   -884.02996 
   67000    217.08625    7.1774219    2048160.9   -6123.9879    432.90513   -6556.8931     907.7597    1217.1582    838.13361 
   67200     222.1167   0.39461893    2048160.9   -6125.7994    442.93667   -6568.7361    49.909168    1162.3602   -200.38963 
   67400    222.31663    4.3190965    2048160.9   -6122.7339    443.33535   -6566.0692    546.25488    481.36128     560.8483 
   67600    212.82186   -6.4865473    2048160.9   -6113.8735    424.40125   -6538.2747   -820.38179   -536.24747   -884.29998 
   67800    225.84138    6.9671817    2048160.9   -6098.8943    450.36428   -6549.2586    881.16971    2983.7877    408.07504 
   68000    238.32749   -9.7181906    2048160.9   -6086.1783     475.2636   -6561.4419   -1229.1017   0.16108162   -1505.6654 
   68200    232.95831    2.6649387    2048160.9   -6078.8954    464.55658    -6543.452    337.04636    648.05295    267.06623 
   68400    231.52353   -5.5735365    2048160.9   -6075.7856    461.69541    -6537.481   -704.90935    54.241849   -875.70647 
   68600    226.95454   -1.0908967    2048160.9   -6075.6562     452.5841   -6528.2403   -137.97044     -476.331   -61.838454 
   68800    234.21901   0.53361743    2048160.9   -6077.5438    467.07063   -6544.6144    67.488913    1957.8105   -357.82864 
   69000    223.61961   -10.583924    2048160.9   -6082.4538    445.93371   -6528.3875   -1338.5948   -3662.0481   -815.80664 
   69200    225.11374  0.020409017    2048160.9   -6092.7418    448.91326   -6541.6551    2.5812169     726.3904    -160.2737 
   69400    226.89768   -7.6421354    2048160.9   -6108.8723    452.47071    -6561.343   -966.53404   -2579.6781   -603.56834 
   69600    228.37592    10.384349    2048160.9   -6121.6824    455.41855    -6577.101    1313.3537    766.26678    1436.4287 
   69800    216.61993    1.1979913    2048160.9   -6126.6165    431.97521   -6558.5917    151.51516    13.802544    182.49801 
   70000    222.29713  -0.71711916    2048160.9   -6125.4189    443.29646   -6568.7154   -90.697172     253.4527   -168.12862 
   70200    228.63926   -9.2483703    2048160.9   -6123.1154     455.9437   -6579.0591   -1169.6815     205.3254    -1479.038 
   70400    217.70181    10.700455    2048160.9   -6118.7737    434.13267   -6552.9064     1353.333    2995.5796    983.81411 
   70600    223.69924   -6.2318323    2048160.9   -6112.3055    446.09251    -6558.398   -788.16687   -1923.1825   -532.78107 
   70800     225.5287    2.2162489    2048160.9   -6104.6736    449.74074   -6554.4144    280.29861    422.39594    248.32333 
   71000    225.87946   -1.9578952    2048160.9   -6096.9882    450.44022   -6547.4284    -247.6235    840.33329   -492.40712 
   71200    234.31973  -0.73061022    2048160.9   -6091.5709    467.27148   -6558.8423   -92.403445   -2365.1957    418.96919 
   71400    241.28784  -0.59961776    2048160.9   -6088.6022    481.16701   -6569.7692   -75.836261   -1377.2346    216.97547 
   71600    229.20797   -1.0760637    2048160.9   -6087.6678    457.07781   -6544.7457   -136.09445    559.94438   -292.69922 
   71800    235.04705   -7.4973606    2048160.9   -6087.1421    468.72189   -6555.8639   -948.22373   -1033.6289   -928.99491 
   72000    230.15241    5.8477649    2048160.9    -6087.291    458.96117   -6546.2522    739.59221    2350.7764    377.07056 
   72200    227.43335    -6.052238    2048160.9    -6087.611    453.53892     -6541.15   -765.45281   -606.81793   -801.13476 
   72400    224.57275    4.9318681    2048160.9   -6087.9763    447.83443   -6535.8107    623.75476    1324.7008    466.03553 
   72600    230.21384   -1.0780183    2048160.9     -6088.13    459.08368   -6547.2137   -136.34165    1754.9454   -561.87367 
   72800    227.14789    2.0090233    2048160.9    -6087.848    452.96968   -6540.8177    254.08989   -103.68322     334.5843 
   73000    234.68996    1.1366748    2048160.9   -6086.9541    468.00979   -6554.9639     143.7602    367.18965    93.487292 
   73200    230.87479   -1.3385817    2048160.9   -6085.8642    460.40171   -6546.2659   -169.29623    156.75639   -242.65478 
   73400    228.25363   0.44648442    2048160.9   -6087.1596    455.17471   -6542.3343    56.468823   -96.410127    90.865355 
   73600    233.36536 -0.084252953    2048160.9   -6092.8159    465.36832   -6558.1842   -10.655837    531.99355   -132.75016 
   73800    226.63545    4.3738875    2048160.9   -6101.8839    451.94779   -6553.8317    553.18454    254.14675    620.45961 
   74000    233.85439    7.5305374    2048160.9   -6111.8236    466.34352   -6578.1671    952.41975    4813.0306    83.781029 
   74200    213.63244   -9.3938829    2048160.9   -6121.8864    426.01768   -6547.9041   -1188.0851    -1630.004   -1088.6386 
   74400    216.58611    1.9054893    2048160.9   -6129.3894    431.90776   -6561.2972    240.99551    1992.1458   -153.01128 
   74600    223.67942   -5.2301395    2048160.9   -6133.8008    446.05298   -6579.8538   -661.47844    1002.0377   -1035.7555 
   74800    217.97336    1.9416023    2048160.9   -6135.0791    434.67418   -6569.7533    245.56287    3402.1465   -464.66224 
   75000    220.42831   -13.023932    2048160.9   -6133.4452    439.56973    -6573.015   -1647.1932   -779.72281    -1842.349 
   75200    209.58888   -1.6668051    2048160.9   -6125.2861    417.95416   -6543.2403   -210.80808    30.358086   -265.06686 
   75400    219.65587   -12.164766    2048160.9   -6109.9487    438.02937   -6547.9781   -1538.5308   -106.14248   -1860.7929 
   75600    233.86485    12.276545    2048160.9   -6094.0039    466.36438   -6560.3683     1552.668    3241.1497    1172.7436 
   75800    227.93038    -1.475694    2048160.9   -6084.9555    454.53009   -6539.4856   -186.63743   -339.52481   -152.23569 
   76000    228.36205   0.74408058    2048160.9   -6080.5892    455.39091   -6535.9801      94.1071   -688.83309    270.26499 
   76200    230.03267  -0.67122952    2048160.9   -6077.9697     458.7224   -6536.6921   -84.893311    1137.8996   -360.01686 
   76400    233.37568   -5.1355747    2048160.9   -6077.3463    465.38889   -6542.7352   -649.51842    1030.0534   -1027.4082 
   76600    231.96144   -5.2055407    2048160.9   -6080.9839    462.56867   -6543.5526   -658.36732    -1677.578   -429.03905 
   76800    219.35419   -6.9775052    2048160.9   -6086.2539    437.42777   -6523.6817   -882.47536    -635.5488   -938.02108 
   77000    228.03144   -5.7553307    2048160.9   -6092.2677    454.73162   -6546.9993   -727.90165   -718.58228   -729.98857 
   77200    228.02898    7.0488901    2048160.9   -6099.2186    454.72672   -6553.9454    891.50372    1781.2993    691.29029 
   77400    210.06857   -3.1759091    2048160.9   -6106.7699    418.91075   -6525.6807   -401.67101    404.92559   -583.14734 
   77600    219.51178   -1.4820586    2048160.9   -6116.4007    437.74203   -6554.1427   -187.44238    996.17521    -453.7502 
   77800    215.72001   -3.5064381    2048160.9   -6131.4122    430.18062   -6561.5928   -443.47445    1834.7222   -956.05576 
   78000    211.84948   -4.5624933    2048160.9   -6146.2627    422.46216   -6568.7248   -577.03833   -1404.3162   -390.89545 
   78200    197.82594  -0.87810226    2048160.9   -6153.2394    394.49696   -6547.7363    -111.0574     1873.352     -557.542 
   78400    216.03311   -6.5903133    2048160.9   -6150.9746    430.80501   -6581.7796   -833.50553    732.58567     -1185.86 
   78600    215.00847   -5.6310476    2048160.9   -6142.3671    428.76171   -6571.1288   -712.18302    691.08787    -1027.905 
   78800    216.53323   -8.6846304    2048160.9   -6130.7703    431.80233   -6562.5726   -1098.3829    753.99482   -1515.1473 
   79000    216.47905  -0.91691384    2048160.9   -6120.7854    431.69428   -6552.4797   -115.96607    386.29897   -228.97261 
   79200    216.50412   -4.2948847    2048160.9   -6113.3599    431.74428   -6545.1042   -543.19271    482.37668   -773.93533 
   79400    227.93252   -7.7732977    2048160.9   -6106.3268    454.53435   -6560.8612    -983.1227   -709.78192   -1044.6102 
   79600    234.25369    6.1781362    2048160.9   -6099.2454     467.1398   -6566.3852    781.37569    2620.0386    367.67148 
   79800    236.49786   -4.8090115    2048160.9   -6095.0192    471.61502   -6566.6343   -608.21655   -1212.8102   -472.17653 
   80000    230.93375   0.15423521    2048160.9   -6092.9201     460.5193   -6553.4394    19.506796   -1449.1764    349.95581 
   80200     226.5372   -5.7805213    2048160.9   -6090.9932    451.75186    -6542.745   -731.08762   -633.02675   -753.14107 
   80400     219.2106    -5.440966    2048160.9   -6090.2662    437.14142   -6527.4076   -688.14259   -2522.0367    -275.5126 
   80600    230.39098    2.4640469    2048160.9   -6089.9414    459.43692   -6549.3783     311.6387    1614.8199    18.422637 
   80800    238.24104   -2.2464418    2048160.9   -6091.9931    475.09121   -6567.0843   -284.11724   -1168.8117   -85.059799 
   81000    234.74905    5.1089551    2048160.9   -6098.5652    468.12761   -6566.6928    646.15172    1775.8603    391.96191 
   81200    219.23662   -13.157976    2048160.9   -6110.4877    437.19331    -6547.681   -1664.1463   -4027.0735   -1132.4722 
   81400    227.00589     2.796926    2048160.9    -6123.265    452.68651   -6575.9515    353.73937    980.66112    212.67906 
   81600    217.18668   -3.2241347    2048160.9   -6133.5612    433.10541   -6566.6666   -407.77031    1127.8248   -753.26902 
   81800    232.76947    1.1077554    2048160.9   -6139.4246    464.18001   -6603.6046    140.10263    4818.3961   -912.50116 
   82000    202.47341   -6.8244876    2048160.9   -6143.2901    403.76476   -6547.0549   -863.12256   -1388.8714   -744.81891 
   82200    217.16317    4.4416253    2048160.9   -6142.9283    433.05852   -6575.9868    561.75163    283.91443    624.25651 
   82400    221.57771    2.5241176    2048160.9   -6140.0654    441.86183   -6581.9272    319.23611   -2045.1196    851.20463 
   82600    215.18742   -4.7135532    2048160.9   -6133.5978    429.11856   -6562.7163   -596.14353    666.02448   -880.11939 
   82800    225.58634    2.6374096    2048160.9    -6115.688    449.85568   -6565.5437    333.56463    2230.7385   -93.298279 
   83000    234.73636   -3.9664226    2048160.9   -6095.5383    468.10231   -6563.6407   -501.65068    254.44646   -671.76342 
   83200    232.27523    9.9089264    2048160.9   -6087.1366    463.19442    -6550.331    1253.2249    2044.2179    1075.2368 
   83400    222.40202   -3.6200904    2048160.9   -6085.1113    443.50564   -6528.6169   -457.84855    1424.1011   -881.27528 
   83600    235.78796   -4.4966038    2048160.9   -6083.9639    470.19937   -6554.1633     -568.705    542.48244   -818.71107 
   83800    218.71001    3.5680809    2048160.9   -6085.6932    436.14318   -6521.8364    451.27068    -1168.437    815.69385 
   84000    226.07949   0.23287105    2048160.9   -6087.9641    450.83911   -6538.8032    29.452212   -270.02082    96.832338 
   84200    225.96935    5.8862521    2048160.9   -6091.8358    450.61948   -6542.4553    744.45985    624.77338    771.37881 
   84400    227.23942   -6.5795492    2048160.9   -6096.5638     453.1522    -6549.716   -832.14414   -1689.0688   -639.32735 
   84600    231.60313    1.5922622    2048160.9   -6103.4747    461.85414   -6565.3288    201.38032   -1650.9427    618.14465 
   84800    233.86249    7.9948464    2048160.9   -6116.1598    466.35967   -6582.5195    1011.1429    1351.9343    934.45213 
   85000    209.03323    1.4957532    2048160.9   -6129.6463    416.84611   -6546.4924     189.1744   -1153.9263    491.36542 
   85200    216.68792  -0.40252326    2048160.9   -6136.0217     432.1108   -6568.1325   -50.908864   -175.81762   -22.804078 
   85400    214.86848   0.34067372    2048160.9   -6135.1047    428.48254   -6563.5873    43.086484    2338.7039   -473.42107 
   85600    220.44237   -3.5396167    2048160.9   -6128.4688    439.59778   -6568.0666   -447.67069   -62.270233   -534.37853 
   85800    226.35853     -2.03611    2048160.9   -6117.7118    451.39557   -6569.1074   -257.51567    98.325006   -337.57524 
   86000    219.20956   -9.1751558    2048160.9   -6107.5122    437.13935   -6544.6516   -1160.4218    -494.2133   -1310.3009 
   86200    227.11341    2.9330314    2048160.9   -6100.8678    452.90092   -6553.7687    370.95321   -2024.1851    909.84703 
   86400    235.56493    1.6397741    2048160.9    -6099.062    469.75461   -6568.8166    207.38935   -598.46576    388.70148 
   86600    228.00274   -1.4144172    2048160.9   -6101.3665    454.67438   -6556.0408   -178.88748   -335.30388   -143.69183 
   86800    237.56204   -3.4383646    2048160.9   -6105.3838    473.73717   -6579.1209    -434.8649   0.36986767   -532.78548 
   87000    229.39516    7.5353695    2048160.9   -6113.9647    457.45108   -6571.4157    953.03089   -1649.6872    1538.6216 
   87200    224.74278   -4.7258042    2048160.9   -6123.9149     448.1735   -6572.0884   -597.69297   -1534.3168   -386.94732 
   87400    215.83073   -5.5189366    2048160.9   -6132.6301    430.40142   -6563.0316   -698.00386    -630.0261   -713.28915 
   87600    215.60198    6.3034343    2048160.9   -6138.8237    429.94527   -6568.7689     797.2227    201.85509    931.16775 
   87800    227.06358    4.1168978    2048160.9   -6142.2868    452.80154   -6595.0884    520.68194   -474.32542    744.54849 
   88000    219.27616  -0.27933632    2048160.9   -6144.9019    437.27217   -6582.1741   -35.328877    984.91473   -264.88012 
   88200    221.49349   -4.1350447    2048160.9   -6146.3444    441.69388   -6588.0382   -522.97705    1341.3248   -942.43221 
   88400    216.27842    6.9540697    2048160.9   -6145.0441     431.2942   -6576.3383    879.51138    1859.6051    658.98127 
   88600    243.25584    3.1015724    2048160.9   -6137.4513    485.09153   -6622.5429    392.26932    1050.7987    244.09686 
   88800    221.03368   -3.0889774    2048160.9   -6125.2145    440.77695   -6565.9915   -390.67638   -1966.1617   -36.191638 
   89000    223.77788   0.92326562    2048160.9   -6111.9414    446.24934   -6558.1908    116.76941    2101.2493   -329.73416 
   89200     231.2976   -3.6810507    2048160.9   -6102.3276    461.24487   -6563.5724   -465.55846    688.52403   -725.21719 
   89400    231.10814   -6.1443728    2048160.9   -6097.2313    460.86706   -6558.0984    -777.1055    455.72706   -1054.4785 
   89600    247.39726    1.5482897    2048160.9   -6098.5578     493.3502    -6591.908    195.81892    1177.6216   -25.086382 
   89800    222.83364    1.8902966    2048160.9   -6108.8902    444.36636   -6553.2566    239.07401    970.01404    74.611461 
   90000    231.43169    3.0805274    2048160.9   -6122.4743    461.51226   -6583.9866    389.60767    3390.4805   -285.58495 
   90200    228.84004   -11.680951    2048160.9    -6134.164     456.3441   -6590.5081   -1477.3406    299.66346    -1877.141 
   90400    223.11561    7.5833318    2048160.9   -6142.1178    444.92865   -6587.0465    959.09689    2333.9997    649.73485 
   90600    227.10962   -9.6360192    2048160.9   -6146.7478    452.89335   -6599.6411   -1218.7092     698.7338   -1650.1114 
   90800    226.76194   -3.0968096    2048160.9   -6149.3746    452.20002   -6601.5746   -391.66695    377.92845   -564.81825 
   91000    222.53302    -4.554631    2048160.9   -6150.9885    443.76687   -6594.7554   -576.04394   -266.26919   -645.73448 
   91200    210.05772   -6.0221114    2048160.9   -6151.5021    418.88911   -6570.3912   -761.64257   -861.59672   -739.14282 
   91400    230.16001   -5.6336053    2048160.9   -6148.0271    458.97632   -6607.0034   -712.50652    211.15991   -920.31897 
   91600    209.00472   -2.3802746    2048160.9    -6140.316    416.78926   -6557.1052   -301.04367   -945.31457   -156.08056 
   91800    227.91339   -3.4875553    2048160.9   -6126.1059    454.49621   -6580.6021   -441.08625     578.6848   -670.52565 
   92000    228.55475    2.4890396    2048160.9    -6112.076    455.77517   -6567.8512    314.79964    1704.1856    2.1877144 
   92200    217.62595   -10.590316    2048160.9   -6104.3654    433.98138   -6538.3468   -1339.4032    2082.1828   -2109.2315 
   92400    227.24058   -8.4450992    2048160.9   -6102.3369    453.15451   -6555.4914   -1068.0883    254.94359    -1365.752 
   92600    235.12473   -10.280529    2048160.9   -6104.5675    468.87678   -6573.4443   -1300.2232   -783.36722   -1416.4965 
   92800    228.67666     2.708918    2048160.9   -6108.7773    456.01829   -6564.7956    342.60862    2348.0424   -108.61257 
   93000    238.97644   -6.2632781    2048160.9    -6113.559    476.55772   -6590.1167   -792.14396   -482.60097   -861.77941 
   93200    228.22099     1.276951    2048160.9   -6119.3314    455.10961    -6574.441    161.50153    475.16146    90.926796 
   93400    221.85796   -10.093836    2048160.9   -6123.6112     442.4207   -6566.0319   -1276.6113   -1312.2534   -1268.5746 
   93600    226.76192    7.6277241    2048160.9   -6125.7456        452.2   -6577.9456    964.71138    1574.4551    827.50776 
   93800    222.42618    -8.956463    2048160.9   -6128.5685    443.55383   -6572.1223   -1132.7627   -2456.5989   -834.88819 
   94000    224.80275    5.4147042    2048160.9   -6131.4433    448.29308   -6579.7364    684.82114    1853.3255    421.90187 
   94200    226.00366  -0.20865752    2048160.9   -6134.8272    450.68789    -6585.515   -26.389822    1094.3283   -278.54764 
   94400    215.04615  -0.25445741    2048160.9   -6138.0076    428.83684   -6566.8445   -32.182333    81.368547     -57.7305 
   94600    229.56708    4.5022736    2048160.9   -6140.5562    457.79393   -6598.3501    569.42208   -48.220149    708.38197 
   94800    226.91117   -10.190567    2048160.9   -6141.4372    452.49762   -6593.9348   -1288.8453   -1238.9762   -1300.0481 
   95000    216.79575     1.474753    2048160.9   -6141.6775    432.32584   -6574.0033    186.51841    1527.0537   -115.10051 
   95200     217.9694   -6.4634803    2048160.9   -6138.7676    434.66627   -6573.4339    -817.4644     782.9669   -1177.5455 
   95400    212.87057    2.4263379    2048160.9   -6129.2829    424.49839   -6553.7813    306.86948    1502.0595     37.95117 
   95600    234.15298   -3.0399463    2048160.9   -6115.3032    466.93895   -6582.2421    -384.4752   -60.100511   -457.45329 
   95800    221.60277   -6.0767212    2048160.9   -6104.6182     441.9118     -6546.53    -768.5493    483.71201   -1050.2938 
   96000    229.84817   -1.4380015    2048160.9   -6096.6053    458.35446   -6554.9598    -181.8703    1327.1925   -521.40238 
   96200      232.098   -3.4095235    2048160.9    -6091.209      462.841     -6554.05   -431.21724    349.99981   -606.98284 
   96400    234.30222     3.326242    2048160.9    -6088.825    467.23657   -6556.0615    420.68427    2130.0311    36.080669 
   96600    223.70468   -5.4002764    2048160.9   -6090.2607    446.10336   -6536.3641   -682.99639   -686.80193   -682.13086 
   96800    236.08478  -0.34901586    2048160.9   -6094.3005    470.79128   -6565.0918   -44.141551    2767.3735   -676.72334 
   97000    226.73853   -5.9816524    2048160.9   -6103.1796    452.15335    -6555.333   -756.52554    838.45366   -1115.3807 
   97200     215.4448   -8.8499859    2048160.9   -6119.5606    429.63182   -6549.1924   -1119.2961    446.38892   -1471.5553 
   97400    229.09327   -3.8852914    2048160.9    -6134.951    456.84908      -6591.8   -491.38966   -927.39078   -393.28404 
   97600    229.65834   -2.3402679    2048160.9   -6142.8015    457.97591   -6600.7774   -295.98384   -834.31639   -174.85661 
   97800    210.85308    1.7828767    2048160.9   -6145.4696    420.47518   -6565.9448    225.48816    866.18956    81.329209 
   98000    215.10942   0.10594764    2048160.9   -6143.2328    428.96301   -6572.1958    13.399657    2404.4852   -524.58754 
   98200    217.36697   -11.131785    2048160.9   -6138.7817    433.46493   -6572.2466   -1407.8851   -1215.4935   -1451.1535 
   98400    220.13568   -0.4143749    2048160.9   -6131.4846    438.98619   -6570.4707   -52.407792     2960.357   -730.27004 
   98600     228.9308   -8.1548746    2048160.9   -6123.5524    456.52508   -6580.0775   -1031.3824   -1056.0825   -1025.8109 
   98800    223.16578    2.8192323    2048160.9   -6117.5655     445.0287   -6562.5942    356.56054    2231.8283    -65.37389 
   99000    231.90793   -2.3114717    2048160.9   -6113.3749    462.46195   -6575.8368   -292.34186    321.14254   -430.37001 
   99200    220.99574   -5.6896058    2048160.9   -6111.4386    440.70129   -6552.1399   -719.58914    1830.9961   -1293.4533 
   99400    224.88733    2.9247022    2048160.9   -6112.0616    448.46174   -6560.5233    369.89978    2534.4358    -117.1193 
   99600    228.16828   -8.4671941    2048160.9   -6115.3695     455.0045    -6570.374   -1070.8828    674.08532   -1463.4807 
   99800    216.67632    -8.328912    2048160.9    -6123.929    432.08767   -6556.0166   -1053.3937   -27.390784   -1284.2269 
  100000    216.73175   -5.2023349    2048160.9   -6142.4516     432.1982   -6574.6498   -657.96187    788.21457   -983.33823 
  100200    226.19956   -5.5640911    2048160.9   -6163.4549    451.07854   -6614.5334   -703.71475    1292.6622    -1152.884 
  100400    214.70794  -0.99331282    2048160.9   -6171.9137    428.16239   -6600.0761   -125.62858    2389.0797   -691.42862 
  100600    221.91392   -1.9126777    2048160.9   -6172.3636    442.53229   -6614.8958   -241.90465     477.9156   -403.85873 
  100800    217.28312  -0.31743546    2048160.9   -6169.1352    433.29772   -6602.4329   -40.147441    2097.1846   -521.04013 
  101000    227.44599   -3.1383162    2048160.9   -6161.4959    453.56414     -6615.06   -396.91646   -543.07292    -364.0263 
  101200    224.31126    1.2584453    2048160.9   -6151.3936    447.31297   -6598.7066    159.16104    1007.1092   -31.626902 
  101400    227.40396     -2.68243    2048160.9   -6141.4831    453.48032   -6594.9634   -339.25856    262.00283   -474.53593 
  101600     219.9198   -1.8486387    2048160.9    -6132.862    438.55569   -6571.4177   -233.80536    195.02548   -330.28781 
  101800    227.63529   -2.4705695    2048160.9   -6126.6064    453.94163    -6580.548   -312.46365   -325.24102   -309.58452 
  102000    226.12617    4.5326745    2048160.9    -6123.734     450.9322   -6574.6662    573.26701    517.26701    585.85904 
  102200    228.05931   -6.0389065    2048160.9   -6123.3556    454.78719   -6578.1428   -763.76671   -1968.9275   -492.59877 
  102400    220.90525    2.3632528    2048160.9   -6123.8443    440.52083   -6564.3652    298.89084    1920.2829   -65.921539 
  102600    234.07181   -2.1472799    2048160.9   -6122.5601    466.77708   -6589.3372    -271.5758    1564.2047   -684.61716 
  102800    222.09522   -7.0662338    2048160.9   -6120.9399    442.89383   -6563.8337   -893.69726   -604.96913   -958.64804 
  103000    230.10572     1.333943    2048160.9   -6116.9055    458.86806   -6575.7736    168.70956     2298.203   -310.42231 
  103200     222.2995   -4.5246483    2048160.9   -6106.5261    443.30119   -6549.8273   -572.25191   -362.13043   -619.52082 
  103400    236.50941   -3.1501673    2048160.9   -6090.1821    471.63806   -6561.8202   -398.41533    860.10957    -681.5742 
  103600    225.83551    5.2933293    2048160.9    -6078.869    450.35258   -6529.2216    669.47033    1978.2124     374.9982 
  103800    224.46046   -5.8371909    2048160.9   -6074.0924     447.6105   -6521.7029   -738.25487   -3231.4443   -177.28473 
  104000    240.41798    2.4938862    2048160.9    -6073.549    479.43238   -6552.9814    315.41261     105.2095    362.70338 
  104200    221.68263   -4.2377069    2048160.9   -6076.2626    442.07106   -6518.3336   -535.96119   -1005.9551   -430.20668 
  104400    223.48723   -4.5441455    2048160.9   -6082.7383    445.66973    -6528.408    -574.7178   -1037.1767   -470.65813 
  104600    238.05982    7.3841199    2048160.9   -6093.4844    474.72983   -6568.2142    933.90169    1885.1424    719.86269 
  104800     229.6664   -7.6095181    2048160.9   -6108.8707    457.99199   -6566.8627   -962.40878   -1238.9241   -900.18058 
  105000    213.19326   0.74404019    2048160.9   -6120.6367    425.14188   -6545.7785    94.101992    1387.4201   -196.89195 
  105200    213.68909   -0.7596709    2048160.9   -6125.3884    426.13065   -6551.5191   -96.078876    215.21053   -166.11674 
  105400    233.23838   -8.7217329    2048160.9   -6124.3669    465.11509   -6589.4819   -1103.0754   -1266.0266   -1066.3969 
  105600    224.95585    -1.979422    2048160.9   -6121.0824    448.59839   -6569.6808   -250.34609    801.37721   -486.97724 
  105800    226.20871   -1.0437047    2048160.9   -6116.8397    451.09679   -6567.9365   -132.00186    103.57363   -185.00384 
  106000    223.58017   -2.4324028    2048160.9   -6111.1469    445.85505    -6557.002   -307.63654   -802.83275   -196.21471 
  106200    228.33299     7.305468    2048160.9   -6103.8385    455.33296   -6559.1715    923.95425    2096.3199    660.16293 
  106400    228.42333   -10.196893    2048160.9   -6097.3122    455.51311   -6552.8253   -1289.6453   -294.07174   -1513.6288 
  106600    228.41724    5.2024616    2048160.9   -6093.9715    455.50096   -6549.4725     657.9779   -866.22854    1000.9108 
  106800    226.39398    3.1490289    2048160.9   -6092.1545    451.46625   -6543.6207    398.27135   -49.483275    499.00937 
  107000    232.07637   -10.035094    2048160.9   -6089.8773    462.79785   -6552.6752   -1269.1819   -1568.2343   -1201.8787 
  107200     231.5765       9.8581    2048160.9   -6088.2033    461.80103   -6550.0043    1246.7967    3053.7879    840.21218 
  107400      217.303   -16.657033    2048160.9   -6087.5877    433.33738    -6520.925   -2106.6873   -1272.2216   -2294.4108 
  107600    224.00896   -0.8969411    2048160.9   -6085.4487    446.71014   -6532.1589   -113.44003     2034.418   -596.70006 
  107800    230.02057   -10.130677    2048160.9   -6084.2491    458.69827   -6542.9474   -1281.2707   -78.873343   -1551.7891 
  108000    230.64287   -1.9429251    2048160.9   -6083.6428    459.93924    -6543.582   -245.73017   -420.46271   -206.41253 
  108200    232.68513    3.5253809    2048160.9   -6087.2522    464.01182    -6551.264    445.87023    516.83517    429.89726 
  108400    231.49753   -5.7832365    2048160.9   -6093.7787    461.64356   -6555.4223   -731.43102   -1201.3285   -625.69554 
  108600     214.7718    1.4331268    2048160.9   -6100.3023    428.28975   -6528.5921    181.25377    312.16842     151.7959 
  108800    223.94324   0.39775351    2048160.9   -6105.4567    446.57907   -6552.0358    50.305612   -307.26381    130.75696 
  109000    216.97161   -6.7878961    2048160.9   -6109.2348    432.67652   -6541.9114   -858.49468   -49.958393   -1040.4012 
  109200    220.30136    4.5481684    2048160.9   -6110.1793    439.31658   -6549.4958     575.2266      1665.52    329.90606 
  109400    218.69222   -9.9331787    2048160.9   -6107.1862     436.1077   -6543.2939   -1256.2922   -1253.4484    -1256.915 
  109600    228.14354    5.0527418    2048160.9   -6099.7483    454.95517   -6554.7035    639.04218    2488.8166    222.83984 
  109800    225.14621    4.7960877    2048160.9   -6089.5725      448.978   -6538.5505    606.58203    1209.7213    470.86925 
  110000    225.80893    0.5188126    2048160.9   -6076.6172    450.29957   -6526.9168    65.616482   -228.32388    131.75128 
  110200     223.3749    4.5003601    2048160.9   -6063.3464    445.44572   -6508.7921    569.18007    793.90057    518.61089 
  110400    228.95096    5.4399196    2048160.9   -6054.1942    456.56528   -6510.7595    688.01024   -205.92074    889.13264 
  110600    226.84799   -1.6680187    2048160.9   -6048.9378    452.37162   -6501.3094   -210.96157    -1954.896    181.42127 
  110800    231.58682    6.8288087    2048160.9   -6045.6916    461.82161   -6507.5132    863.66907    1850.7989    641.55608 
  111000    237.58408   -7.1370283    2048160.9   -6046.0539    473.78112   -6519.8351   -902.65095   -1193.3446   -837.23347 
  111200    236.37986   -2.6736019    2048160.9   -6051.5292    471.37971   -6522.9089   -338.14204    716.55158   -575.44031 
  111400    238.31191   -1.4352636    2048160.9   -6061.6386    475.23254   -6536.8711   -181.52401    1808.1693   -629.19651 
  111600    231.39199 -0.083509823    2048160.9   -6071.3511    461.43309   -6532.7842    -10.56185      275.819    -74.99653 
  111800    227.73832   -3.9583498    2048160.9   -6078.5541    454.14709   -6532.7012   -500.62968     799.0688   -793.05109 
  112000    222.49733    5.5022475    2048160.9   -6082.3318     443.6957   -6526.0275    695.89312    4064.0172   -61.934079 
  112200     216.7258   -3.4020902    2048160.9   -6083.6758    432.18634   -6515.8621   -430.27711    -1375.136   -217.68087 
  112400    231.60336    0.1465102    2048160.9   -6084.9517     461.8546   -6546.8063    18.529781   -85.501651    41.936286 
  112600    222.73431    5.9870487    2048160.9   -6089.7297    444.16827    -6533.898    757.20804    481.75573    819.17366 
  112800    217.09115   -6.4935809    2048160.9   -6096.6467    432.91491   -6529.5616   -821.27136    591.48082   -1139.1252 
  113000    215.81617  -0.36994452    2048160.9   -6102.6249    430.37239   -6532.9973    -46.78849    1198.5865   -326.99346 
  113200    225.97595   -5.0454159    2048160.9   -6107.9614    450.63264    -6558.594   -638.11565   -1628.5575   -415.26053 
  113400    220.87658   -6.7305048    2048160.9   -6113.3965    440.46366   -6553.8601   -851.23615    97.941382   -1064.7866 
  113600    224.83388   -2.2483017    2048160.9   -6118.4877    448.35516   -6566.8428   -284.35248    3545.5436   -1146.0636 
  113800    225.92355   -11.377332    2048160.9   -6128.3075    450.52814   -6578.8357   -1438.9406    -751.3971   -1593.6162 
  114000    217.30747    6.1144534    2048160.9   -6143.3349    433.34629   -6576.6811    773.32146    1996.4547    498.10966 
  114200    212.73164   -7.4008706    2048160.9   -6155.9483    424.22133   -6580.1697   -936.02023   -2162.8616   -659.97188 
  114400    221.38504   0.64413577    2048160.9   -6160.5475    441.47762   -6602.0251    81.466646    730.69099   -64.607976 
  114600    213.27005    1.3623184    2048160.9   -6160.2997      425.295   -6585.5947    172.29833   -537.17886     331.9262 
  114800    217.12504    2.7716655    2048160.9   -6155.2905    432.98249    -6588.273    350.54457    379.38045    344.05181 
  115000    224.88974   -4.3267055    2048160.9   -6144.7862    448.46655   -6593.2528   -547.21723   -2217.3173    -171.4423 
  115200    215.23665    11.095179    2048160.9   -6129.9802    429.21672    -6559.197    1403.2555    2895.0014    1067.5981 
  115400    225.04925   -3.5024573    2048160.9   -6117.8103    448.78465   -6566.5949   -442.97098      595.924   -676.71317 
  115600     238.1781   -2.1746341    2048160.9   -6114.1695    474.96569   -6589.1351   -275.03541    1833.3651    -749.4154 
  115800    225.19658      4.27649    2048160.9   -6115.1332    449.07844   -6564.2116    540.86625    675.01121    510.67668 
  116000    213.98658   -4.5004862    2048160.9   -6118.4168    426.72388   -6545.1407   -569.19602    1235.1172   -975.15329 
  116200    228.76453   0.40674097    2048160.9   -6122.9934    456.19351   -6579.1869    51.442296   -358.06003    143.57838 
  116400    227.99866    3.5034266    2048160.9   -6129.1261    454.66625   -6583.7923    443.09357    732.24651      378.029 
  116600    225.92383   -3.6465492    2048160.9     -6137.14     450.5287   -6587.6687    -461.1949     2946.075    -1227.814 
  116800    217.26064    1.3559927    2048160.9   -6145.3895     433.2529   -6578.6424    171.49829    2579.8541   -370.37682 
  117000    210.87886   -10.131182    2048160.9   -6151.5849    420.52659   -6572.1115   -1281.3345    3253.2543   -2301.5858 
  117200    229.35106 -0.028856401    2048160.9   -6155.3058    457.36315   -6612.6689   -3.6495942    2229.0961   -506.01057 
  117400    225.55656   -2.0761446    2048160.9   -6156.6941     449.7963   -6606.4904   -262.57902    2655.5226   -919.13948 
  117600    216.66713   -9.5009097    2048160.9   -6155.3922    432.06935   -6587.4615   -1201.6213    1895.6542   -1898.4825 
  117800    216.87352    4.3559466    2048160.9   -6145.3582    432.48091   -6577.8392    550.91547     1122.579    422.28541 
  118000      228.501    3.7851842    2048160.9   -6126.7099      455.668   -6582.3779    478.72867   -315.98857    657.53113 
  118200    236.19621   -7.4064014    2048160.9   -6111.5966    471.01349   -6582.6101   -936.71973   -1521.9202   -805.03864 
  118400     232.4718 -0.022651855    2048160.9   -6105.4161    463.58641   -6569.0025   -2.8648784    1036.2946   -236.67258 
  118600    233.79429    6.6589533    2048160.9   -6105.1752    466.22368   -6571.3989    842.18673     3243.635    301.85666 
  118800    231.01686   -5.1671283    2048160.9   -6110.8392    460.68503   -6571.5242   -653.50914   -562.55399   -673.96488 
  119000    221.59659   -12.485655    2048160.9   -6122.1543    441.89948   -6564.0537    -1579.115   -1438.6913   -1610.6884 
  119200    217.65336    6.5911707    2048160.9   -6133.4049    434.03604   -6567.4409    833.61397    1955.3638     581.2123 
  119400    226.96023   -2.7080735    2048160.9   -6141.5762    452.59545   -6594.1716   -342.50181   -312.57767   -349.22999 
  119600    222.84233   -6.8623884    2048160.9   -6145.7638    444.38369   -6590.1475   -867.91604   -1301.0184    -770.4575 
  119800    225.45256   -1.6976869    2048160.9   -6147.0638    449.58891   -6596.6527   -214.71383   -879.37007   -65.165265 
  120000    234.51114    -4.455497    2048160.9   -6148.0221    467.65319   -6615.6753   -563.50604   -1895.7541   -263.74658 
  120200    209.80498    1.5634548    2048160.9   -6148.5663     418.3851   -6566.9514    197.73691     1533.124   -102.72384 
  120400    221.11642   -5.5083956    2048160.9   -6144.5644    440.94194   -6585.5063    -696.6707    271.83829    -914.5728 
  120600    215.66625   -9.0010361    2048160.9   -6136.1067    430.07343   -6566.1801   -1138.4001    -1224.519   -1119.0081 
  120800    227.69805   0.79080142    2048160.9   -6120.6188    454.06679   -6574.6856    100.01609   -126.12694    150.89622 
  121000    212.88816   -3.9776358    2048160.9   -6104.1465    424.53347     -6528.68   -503.06887   -911.28436   -411.21477 
[...]
 2470800    247.02525   0.93770077    2048160.9    -6038.572    492.60834   -6531.1803    118.59509     1665.367   -229.42553 
 2471000    232.58861   -8.6723089    2048160.9   -6032.7865    463.81935   -6496.6058   -1096.8245    118.99495   -1370.3653 
 2471200     248.0741    10.017256    2048160.9   -6034.7487    494.69992   -6529.4486    1266.9259    3183.3053    835.72905 
 2471400    236.18537   -15.229159    2048160.9   -6047.6348    470.99186   -6518.6266   -1926.0979    67.487843   -2374.6224 
 2471600    228.96341    11.283813    2048160.9   -6067.0645    456.59011   -6523.6546    1427.1128    1225.2186    1472.5189 
 2471800    227.12124   -6.1173367    2048160.9   -6078.2017    452.91652   -6531.1183   -773.68612    735.89202   -1113.3261 
 2472000    212.51031   -5.7846882    2048160.9   -6081.9718    423.77996   -6505.7518   -731.61463    2292.4065   -1412.0003 
 2472200    218.20982   0.62110548    2048160.9   -6083.6357     435.1457   -6518.7814    78.553906     1139.575    -160.1737 
 2472400    224.10176    5.7310498    2048160.9   -6083.8014     446.8952   -6530.6966    724.83075    1920.1152     455.8855 
 2472600    223.65656    2.1659797    2048160.9   -6082.1133     446.0074   -6528.1207    273.94086   -45.755647    345.86787 
 2472800    230.89538    1.5958409    2048160.9   -6078.3476    460.44277   -6538.7904    201.83292     1112.305   -3.0232943 
 2473000    228.59235   -3.1963664    2048160.9    -6072.817    455.85017   -6528.6671   -404.25833   -1692.7844   -114.33835 
 2473200     232.0558    2.7368872    2048160.9   -6068.4997    462.75683   -6531.2565      346.146    1893.5775   -2.0261085 
 2473400    224.11232   -9.1177868    2048160.9    -6067.373    446.91626   -6514.2892   -1153.1661   -2523.7583   -844.77128 
 2473600    231.56976    6.2442807    2048160.9   -6071.5013     461.7876   -6533.2889    789.74128    4564.7159   -59.627335 
 2473800    234.92633    -10.71547    2048160.9   -6083.8636    468.48115   -6552.3448    -1355.232   -1757.3119   -1264.7468 
 2474000    236.70688    2.5587363    2048160.9   -6101.3592    472.03185    -6573.391    323.61448   -578.84844    526.66151 
 2474200    213.82179    -6.430567    2048160.9   -6115.2323    426.39528   -6541.6276   -813.30171   -3685.6249   -167.02661 
 2474400     218.6853    10.182754    2048160.9   -6119.8896     436.0939   -6555.9835     1287.857    711.02423    1417.6251 
 2474600    220.86438   -5.6626537    2048160.9   -6119.8004    440.43933   -6560.2398   -716.18039   -2020.4759   -422.70811 
 2474800    219.86024    -2.494057    2048160.9   -6116.6813    438.43691   -6555.1182   -315.43421   -329.78543   -312.20094 
 2475000    223.44716    3.0673272    2048160.9   -6111.7148    445.58982   -6557.3047    387.93819   -399.32536    565.06482 
 2475200    221.46771    3.5627202    2048160.9   -6104.3002    441.64247   -6545.9426    450.59268    1650.2291    180.67198 
 2475400     206.8601    -5.059543    2048160.9   -6095.4301    412.51253   -6507.9426   -639.90236   -498.04732    -671.8106 
 2475600    234.70733    7.4603917    2048160.9     -6085.04    468.04441   -6553.0844    943.54812    1239.9919    876.83632 
 2475800    232.74846   -3.0122706    2048160.9   -6077.2104    464.13812   -6541.3486   -380.97493   -749.77738   -297.99031 
 2476000    237.08986   -2.0748371    2048160.9   -6074.4303    472.79557   -6547.2259   -262.41365    2045.0379    -781.5797 
 2476200    247.63481    4.3495825    2048160.9   -6080.8392    493.82392   -6574.6631    550.11058     1337.304    372.98696 
 2476400    224.19049   -7.0122007    2048160.9   -6103.9894    447.07215   -6551.0616   -886.86345   -1126.0514   -833.03482 
 2476600    224.42199    2.3289462    2048160.9   -6125.5549     447.5338   -6573.0887    294.55193    1119.8721    108.85338 
 2476800    226.98508   -9.5118845    2048160.9   -6134.0081    452.64501   -6586.6531   -1203.0093   -824.33352   -1288.1938 
 2477000    222.37249   -7.2747948    2048160.9   -6137.6158    443.44675   -6581.0625   -920.07487    1707.9633    -1511.363 
 2477200    219.24076   -6.6317623    2048160.9   -6137.3731    437.20157   -6574.5747   -838.74776    871.19048   -1223.4673 
 2477400    212.26696    2.0589339    2048160.9   -6132.2692    423.29469   -6555.5639    260.40231    1825.0716   -91.647095 
 2477600     230.2046   -5.0465308    2048160.9   -6123.3174    459.06526   -6582.3827   -638.25666   -1049.9145   -545.62619 
 2477800    224.98733   -3.1589944    2048160.9   -6111.6375    448.66117   -6560.2987   -399.53173   -1172.5115    -225.6082 
 2478000    226.31714    4.6851612    2048160.9   -6099.8835    451.31302   -6551.1965    592.55267    1558.5926    375.18853 
 2478200    222.06029    0.6042434    2048160.9   -6090.4962    442.82418   -6533.3204    76.421286   -548.66954    217.06379 
 2478400    229.45069    4.0964222    2048160.9   -6082.7822    457.56182    -6540.344    518.09229    1991.8627    186.49135 
 2478600    228.82975   0.76227869    2048160.9   -6078.5158    456.32357   -6534.8393    96.408695   -1719.8845    505.06786 
 2478800    230.72617    2.5670652    2048160.9   -6075.9114    460.10534   -6536.0167    324.66788    2124.5898   -80.313521 
 2479000     217.3281    7.2734712    2048160.9   -6074.1219    433.38743   -6507.5093    919.90746    594.29456    993.15686 
 2479200    219.24323     2.750279    2048160.9   -6069.8743     437.2065   -6507.0808    347.83972    1335.7604    125.55581 
 2479400    231.42552    1.4340015    2048160.9   -6063.2211    461.49995    -6524.721     181.3644    2646.3221   -373.24609 
 2479600    232.36045   0.92120892    2048160.9   -6056.0434    463.36436   -6519.4077    116.50929    3010.9663   -534.73637 
 2479800     247.2326   -5.0233698    2048160.9   -6044.8409    493.02183   -6537.8628   -635.32738    1509.6506   -1117.9323 
 2480000    228.33397 -0.041344637    2048160.9   -6035.1309    455.33492   -6490.4658   -5.2290356   -647.88786    139.36733 
 2480200    230.58187     5.126257    2048160.9   -6030.9654    459.81759    -6490.783    648.33997    1789.7178    391.52458 
 2480400    247.90577   -3.8571964    2048160.9   -6035.3134    494.36425   -6529.6776   -487.83637   -148.57203   -564.16318 
 2480600     238.4758   -9.8665207    2048160.9   -6050.1218    475.55937   -6525.6812   -1247.8617    4396.8002   -2517.8766 
 2480800    239.10402  -0.48892364    2048160.9   -6069.4721    476.81214   -6546.2842   -61.836295    508.66319   -190.19611 
 2481000     233.5628    3.0470729    2048160.9   -6084.1133    465.76204   -6549.8753    385.37654    1172.4727    208.27704 
 2481200    227.06588   -2.0807248    2048160.9   -6092.9293    452.80614   -6545.7354   -263.15829   -1230.4909   -45.507807 
 2481400    221.09937    5.2393492    2048160.9   -6100.1625    440.90794   -6541.0704    662.64324    1766.4245    414.28677 
 2481600     231.8621   -1.7982541    2048160.9   -6104.6905    462.37057   -6567.0611     -227.433   -846.86627   -88.059288 
 2481800    229.49707    2.1836179    2048160.9   -6107.1934    457.65431   -6564.8477    276.17164    714.91292    177.45241 
 2482000     229.2131  -0.60291527    2048160.9   -6109.6303    457.08804   -6566.7183   -76.253311    603.78322   -229.25843 
 2482200    224.44295  -0.64574321    2048160.9   -6111.6471    447.57558   -6559.2227   -81.669947    527.52126   -218.73501 
 2482400    223.68333    1.8774492    2048160.9   -6113.0832    446.06077   -6559.1439    237.44915   -1129.1237    544.92066 
 2482600    222.81428   0.56324702    2048160.9   -6114.1153    444.32775    -6558.443    71.236295   -1240.5156    366.37553 
 2482800    222.15481   -2.5313274    2048160.9   -6116.2319    443.01266   -6559.2445   -320.14796    1262.0581   -676.13517 
 2483000    223.11735   -4.2422796    2048160.9   -6119.7785    444.93212   -6564.7106   -536.53952    677.81616   -809.75856 
 2483200    214.26422   0.39646346    2048160.9   -6124.7948    427.27755   -6552.0723    50.142454   -726.78225    224.94748 
 2483400    211.22666    1.7824431    2048160.9   -6130.6968    421.22017    -6551.917    225.43332    2602.0148   -309.29338 
 2483600    220.35788    4.3051872    2048160.9   -6133.2584     439.4293   -6572.6877    544.49572   -423.67963    762.32483 
 2483800    229.73313    3.1118827    2048160.9    -6134.288    458.12506    -6592.413    393.57331    348.57375    403.69272 
 2484000     217.4506   -4.8037053    2048160.9   -6133.6638     433.6317   -6567.2955   -607.54546    842.44822   -933.78137 
 2484200    209.96092   -3.9561328    2048160.9    -6128.748    418.69608   -6547.4441   -500.34929     980.2216   -833.46645 
 2484400    218.90225   -9.4960381    2048160.9   -6116.6624    436.52654   -6553.1889   -1201.0052   -225.86357   -1420.3927 
 2484600    229.50862  -0.33355385    2048160.9     -6101.42    457.67736   -6559.0974   -42.186004    1514.5636   -392.44939 
 2484800    233.06251   -4.2436794    2048160.9   -6092.0242    464.76438   -6556.7885   -536.71655   -351.99443   -578.27116 
 2485000    228.15365   -3.8398193    2048160.9   -6088.2215    454.97531   -6543.1968   -485.63862    1100.3065   -842.46487 
 2485200    234.04745    -5.560499    2048160.9   -6088.2623    466.72852   -6554.9909   -703.26044    402.46973   -952.03681 
 2485400    231.72835   -14.926151    2048160.9   -6091.6082    462.10385    -6553.712   -1887.7751   -1368.7059   -2004.5383 
 2485600    225.16857    1.3225019    2048160.9   -6096.9794    449.02259    -6546.002    167.26256    3338.6034   -546.28182 
 2485800    222.14169   -11.718902    2048160.9   -6104.1197     442.9865   -6547.1062   -1482.1404    826.49053   -2001.5552 
 2486000    220.30897  -0.12334107    2048160.9   -6115.3547    439.33177   -6554.6864    -15.59948    2527.8317   -587.86358 
 2486200      221.358   -2.5155419    2048160.9   -6131.9621     441.4237   -6573.3858    -318.1515   -471.91887   -283.54997 
 2486400    213.95158   -7.9813593    2048160.9   -6147.7341     426.6541   -6574.3882   -1009.4371   -1735.4713   -846.06791 
 2486600    216.02008     3.271497    2048160.9   -6154.3587    430.77903   -6585.1377    413.76042    784.10694    330.42794 
 2486800    223.09931    2.2181205    2048160.9   -6154.7853    444.89614   -6599.6815    280.53532    602.71295    208.04251 
 2487000      226.789   -1.4001824    2048160.9   -6153.6948    452.25399   -6605.9488   -177.08715    876.41735   -414.12006 
 2487200    218.02935   -9.4995132    2048160.9    -6150.954    434.78584   -6585.7398   -1201.4447   -157.91176   -1436.2201 
 2487400    223.36674     1.319245    2048160.9   -6146.0738    445.42946   -6591.5032    166.85065    1873.1822   -217.07105 
 2487600    220.80874   -10.529595    2048160.9   -6139.4109    440.32839   -6579.7393   -1331.7236    185.98242   -1673.1847 
 2487800    226.47152    6.7530275    2048160.9   -6132.0339    451.62088   -6583.6548     854.0847    1712.6385    660.90107 
 2488000     233.8536   -8.2380351    2048160.9   -6125.6515    466.34194   -6591.9935   -1041.9001   -1444.9832   -951.19338 
 2488200    224.47231    7.2299266    2048160.9   -6118.8589    447.63414   -6566.4931     914.4002   -190.89907    1163.0767 
 2488400    229.60351   0.14615292    2048160.9   -6110.0691    457.86658   -6567.9357    18.484594   -1209.2117    294.71229 
 2488600    233.15934   -7.3195538    2048160.9     -6099.46    464.95747   -6564.4175   -925.73573   -1179.5705   -868.61108 
 2488800    226.92054   -1.9333247    2048160.9   -6087.2034    452.51629   -6539.7197   -244.51597     -673.505   -147.99141 
 2489000    229.21901     5.516294    2048160.9    -6075.699    457.09982   -6532.7988    697.66965     819.7337    670.19611 
 2489200    234.08841   -3.7114715    2048160.9   -6070.5688     466.8102    -6537.379   -469.40591    -148.5361   -541.59425 
 2489400    232.70339   -9.1214234    2048160.9   -6071.8665    464.04823   -6535.9147    -1153.626    -306.3197   -1344.2517 
 2489600    230.30508   -3.8686404    2048160.9   -6082.4658    459.26562   -6541.7315   -489.28375    668.38893   -749.74994 
 2489800    225.80747    4.5237135    2048160.9   -6101.6935    450.29665   -6551.9901    572.13368    2276.6958    188.60456 
 2490000    232.17717   -5.5429592    2048160.9   -6118.2084    462.99888   -6581.2073    -701.0421   -1400.0639   -543.75476 
 2490200    218.12325    4.0455819    2048160.9   -6126.6929    434.97307    -6561.666     511.6623     670.0547    476.01753 
 2490400    219.03386   -7.3767967    2048160.9   -6129.1317    436.78898   -6565.9207    -932.9755    323.77453   -1215.7277 
 2490600    219.35169   -1.9526996    2048160.9   -6127.5798     437.4228   -6565.0026    -246.9664    1136.1467    -558.1593 
 2490800    211.08629   0.99233678    2048160.9   -6122.7057    420.94025    -6543.646    125.50514    1539.8782   -192.72624 
 2491000    220.09062   -5.1977164    2048160.9    -6113.458    438.89633   -6552.3543   -657.37775    887.32303   -1004.9218 
 2491200    229.22443   -3.0025741    2048160.9    -6101.149    457.11064   -6558.2596   -379.74858   -399.63576   -375.26885 
 2491400    233.66573   -5.4052225    2048160.9   -6090.8233    465.96729   -6556.7906   -683.62195   -1494.0711   -501.26404 
 2491600    234.99006    9.2736673    2048160.9   -6085.2011    468.60822   -6553.8094     1172.881    2585.4416    855.04312 
 2491800    223.46858   -13.717897    2048160.9   -6086.2929    445.63254   -6531.9254    -1734.962   -2446.3572   -1574.8766 
 2492000    224.95128    10.607571    2048160.9   -6090.4868    448.58928    -6539.076    1341.5855    5878.7592    320.71689 
 2492200      216.005   -11.205169    2048160.9   -6096.8222    430.74894   -6527.5712   -1417.1664   -1247.4052   -1455.3429 
 2492400     226.5931    3.3371515    2048160.9   -6102.6598    451.86334   -6554.5231    422.06403    881.49339    318.68807 
 2492600    222.46885    5.7463435    2048160.9   -6107.7443     443.6389   -6551.3832      726.765    1780.8233    489.59516 
 2492800    220.62125   -6.3375016    2048160.9   -6111.8337    439.95449   -6551.7882   -801.53134    -444.2034   -881.91813 
 2493000    221.15384    5.4278838    2048160.9   -6112.9633    441.01657   -6553.9799    686.48802    828.31296    654.56849 
 2493200    230.04371   -5.2843798    2048160.9   -6112.7069     458.7444   -6571.4513   -668.33845   -800.38119   -638.62013 
 2493400    238.98446   -3.1831865    2048160.9   -6113.7774    476.57371   -6590.3511   -402.59141      1576.39   -847.85076 
 2493600    220.92642   -1.2538141    2048160.9   -6116.8629    440.56305    -6557.426   -158.57531    3741.2835   -1036.0296 
 2493800    228.80193   -4.7009279    2048160.9    -6120.435     456.2681   -6576.7031   -594.54675    457.94958   -831.34715 
 2494000    221.67011   -1.2808554    2048160.9   -6124.8799    442.04609    -6566.926   -161.99534   -728.06907   -34.628257 
 2494200    225.75309  -0.48072024    2048160.9   -6127.0579    450.18821   -6577.2461   -60.798775    493.43505   -185.49888 
 2494400    226.84549    -5.720531    2048160.9   -6127.5688    452.36664   -6579.9354   -723.50038    1201.7103   -1156.6571 
 2494600    221.27005   -1.6802672    2048160.9   -6126.1199    441.24831   -6567.3682   -212.51068    134.63019   -290.61344 
 2494800    213.58329    1.3341633    2048160.9   -6118.1419    425.91966   -6544.0616    168.73743    2373.8016   -327.39763 
 2495000    220.97082   -10.149379    2048160.9   -6100.6176     440.6516   -6541.2692    -1283.636   -1809.4982   -1165.3011 
 2495200    240.78042  -0.77321399    2048160.9    -6082.472    480.15514   -6562.6272    -97.79173   -14.518209   -116.52669 
 2495400    223.97614   0.50591055    2048160.9    -6073.977    446.64469   -6520.6217    63.984703    1460.7075   -250.27457 
 2495600    224.27422   -3.4992146    2048160.9   -6071.0594    447.23911   -6518.2986   -442.56086   -1337.6925   -241.15292 
 2495800    233.50151     8.749704    2048160.9   -6072.2423    465.63983   -6537.8821     1106.613    3323.2457    607.86234 
 2496000    239.25065    6.0479838    2048160.9   -6077.1704    477.10453    -6554.275    764.91477     1449.497    610.87542 
 2496200    227.68798   -4.5519911    2048160.9   -6086.2997    454.04671   -6540.3464   -575.71007     456.7909   -808.01183 
 2496400    222.87779   0.96507742    2048160.9   -6097.5486     444.4544    -6542.003    122.05753   -262.08798    208.48744 
 2496600    220.48154   -2.2259312    2048160.9   -6107.0221    439.67589   -6546.6979   -281.52318    2892.7595   -995.72334 
 2496800    222.49613   -9.8095505    2048160.9    -6113.189     443.6933   -6556.8823   -1240.6564    -1319.132   -1222.9828 
 2497000    220.41544   -1.6016163    2048160.9   -6116.3335    439.54408   -6555.8776   -202.56337    337.91388   -324.16635 
 2497200    222.14084   -1.8998789    2048160.9   -6117.1709     442.9848   -6560.1556   -240.28593   -520.65457   -177.20056 
 2497400     215.1777   -2.2012241    2048160.9   -6116.2952    429.09917   -6545.3944   -278.39837   -578.01994   -210.98063 
 2497600    220.40632    1.6278348    2048160.9     -6113.31    439.52588   -6552.8359    205.87933   -686.16669    406.58419 
 2497800    231.83594  -0.20813723    2048160.9   -6110.3294     462.3184   -6572.6478   -26.324019   -663.59871    117.06122 
 2498000    229.09461  -0.47967546    2048160.9   -6109.2369    456.85174   -6566.0887   -60.666638    1001.1795   -299.57798 
 2498200    224.91332  -0.13917535    2048160.9   -6108.5827    448.51358   -6557.0962    -17.60211    1454.7619   -348.87932 
 2498400     230.9988   -3.8726561    2048160.9   -6108.3358      460.649   -6568.9848   -489.79163   -1123.6056   -347.17874 
 2498600    229.87012     5.519437    2048160.9   -6109.7806    458.39825   -6568.1788    698.06716    2016.3706    401.44336 
 2498800    212.75255   -2.5668685    2048160.9   -6112.9988    424.26304   -6537.2618   -324.64301    1034.3369   -630.40495 
 2499000    219.33788   -3.5972888    2048160.9   -6117.9852    437.39525   -6555.3804   -454.96473   -1524.4185   -214.33468 
 2499200    220.52153   0.30670806    2048160.9   -6129.7353    439.75565    -6569.491      38.7907    350.41277   -31.323851 
 2499400    216.75657    2.5433186    2048160.9   -6151.1202    432.24771   -6583.3679    321.66454    2242.9352   -110.61992 
 2499600    228.14554    2.8993384    2048160.9   -6164.9408    454.95915   -6619.8999    366.69191    2357.4111   -81.218887 
 2499800    216.92415   0.79862153    2048160.9   -6170.7636    432.58189   -6603.3455    101.00513    2353.0318   -405.69544 
 2500000    209.41962    5.1582253    2048160.9   -6171.0387    417.61664   -6588.6554    652.38314    55.429902    786.68694 
Loop time of 962.821 on 6 procs for 2500000 steps with 670 atoms

Performance: 448.682 ns/day, 0.053 hours/ns, 2596.537 timesteps/s
99.8% CPU use with 6 MPI tasks x no OpenMP threads

MPI task timing breakdown:
Section |  min time  |  avg time  |  max time  |%varavg| %total
---------------------------------------------------------------
Pair    | 0.083364   | 274.48     | 859.13     |2345.6 | 28.51
Neigh   | 0.64723    | 7.3618     | 21.478     | 350.1 |  0.76
Comm    | 1.2403     | 22.133     | 100.2      | 769.9 |  2.30
Output  | 24.845     | 24.857     | 24.903     |   0.4 |  2.58
Modify  | 24.744     | 619.68     | 917.22     |1688.9 | 64.36
Other   |            | 14.31      |            |       |  1.49

Nlocal:        111.667 ave         342 max           0 min
Histogram: 4 0 0 0 0 0 0 0 0 2
Nghost:        121.167 ave         367 max           0 min
Histogram: 4 0 0 0 0 0 0 0 0 2
Neighs:        0.00000 ave           0 max           0 min
Histogram: 6 0 0 0 0 0 0 0 0 0
FullNghs:      2748.67 ave        8443 max           0 min
Histogram: 4 0 0 0 0 0 0 0 0 2

Total # of neighbors = 16492
Ave neighs/atom = 24.614925
Neighbor list builds = 49472
Dangerous builds = 0
write_data 		data.${NAME}_run
write_data 		data.15A_core_run
System init for write_data ...
Total wall time: 0:16:02
