
# Set production fixes - Nose/Hoover
#
fix                 2 all nvt temp ${TEMP} ${TEMP} 1000.0
fix                 2 all nvt temp 225 ${TEMP} 1000.0
fix                 2 all nvt temp 225 225 1000.0

# compute order parameter
compute		2 all stress/atom NULL
compute        peratom all stress/atom NULL
compute        p all reduce sum c_peratom[1] c_peratom[2] c_peratom[3]
variable       press equal -(c_p[1]+c_p[2]+c_p[3])/(3*14137)
thermo_style        custom step temp press vol etotal ke pe v_press
compute             3 all orientorder/atom nnn NULL cutoff 3.5

# Run 5ns simulation
thermo              200
dump		        1 all custom 400 prod.${NAME}.dump id type x y z vx vy vz c_3[*] c_peratom[*]
dump		        1 all custom 400 prod.10A_pres.dump id type x y z vx vy vz c_3[*] c_peratom[*]
run                 2500000
Neighbor list info ...
  update every 1 steps, delay 0 steps, check yes
  max neighbors/atom: 2000, page size: 100000
  master list distance cutoff = 6.0032907
  ghost atom cutoff = 6.0032907
  binsize = 3.0016454, bins = 88 88 7
  2 neighbor lists, perpetual/occasional/extra = 1 1 0
  (1) pair sw, perpetual
      attributes: full, newton on
      pair build: full/bin/atomonly
      stencil: full/bin/3d
      bin: standard
  (2) compute orientorder/atom, occasional, copy from (1)
      attributes: full, newton on
      pair build: copy
      stencil: none
      bin: none
Per MPI rank memory allocation (min/avg/max) = 1.048 | 2.037 | 6.986 Mbytes
Step Temp Press Volume TotEng KinEng PotEng v_press 
       0    223.92486   -1.8863838    1364565.3   -4768.9103    345.75334   -5114.6636   -182.08205 
     200    219.70417   0.52480762    1364565.3   -4767.8009    339.23633   -5107.0373    50.656736 
     400     221.9331    -13.80126    1364565.3   -4764.6959    342.67794   -5107.3738   -1332.1582 
     600    231.27663    2.7449859    1364565.3   -4759.3616     357.1049   -5116.4665    264.95809 
     800    234.00388   -6.9511533    1364565.3   -4751.1521    361.31594   -5112.4681   -670.95583 
    1000    247.04698   -7.7268092    1364565.3   -4740.4929    381.45526   -5121.9482   -745.82555 
    1200    236.56052   -8.7711583    1364565.3   -4731.1209    365.26354   -5096.3844   -846.63071 
    1400    247.25876    9.4287117    1364565.3   -4724.9844    381.78227   -5106.7666    910.10065 
    1600    238.54196    8.4205236    1364565.3   -4724.3784      368.323   -5092.7014    812.78591 
    1800     235.0878   -9.5799713    1364565.3   -4730.5094    362.98958    -5093.499   -924.70089 
    2000    219.84035     5.733286    1364565.3   -4746.2776    339.44661   -5085.7243    553.40193 
    2200    214.50467    3.0589696    1364565.3   -4762.2194      331.208   -5093.4274    295.26517 
    2400    222.01457   -7.9082341    1364565.3   -4769.2756    342.80373   -5112.0793   -763.33747 
    2600    235.98243    6.3370228    1364565.3   -4771.3752    364.37094   -5135.7462    611.67726 
    2800    222.54337   -1.6554383    1364565.3   -4771.3322    343.62022   -5114.9524   -159.79018 
    3000    214.19111   -8.6727803    1364565.3   -4768.7352    330.72385    -5099.459   -837.13483 
    3200    214.24845   -12.538029    1364565.3   -4763.0938    330.81238   -5093.9062   -1210.2256 
    3400    221.96188     7.497054    1364565.3    -4755.299    342.72237   -5098.0214    723.64857 
    3600    227.98813    7.6329446    1364565.3   -4746.0293    352.02726   -5098.0566    736.76532 
    3800    235.84732    4.3789449    1364565.3   -4737.7428    364.16232   -5101.9051    422.67498 
    4000    230.31018   0.27786936    1364565.3   -4733.0609    355.61264   -5088.6735     26.82117 
    4200    232.55595   -13.787206    1364565.3   -4731.3159    359.08024   -5090.3962   -1330.8016 
    4400    239.95819   -3.0258441    1364565.3    -4735.321    370.50975   -5105.8308   -292.06775 
    4600    221.44666   -5.1855016    1364565.3   -4752.2895    341.92684   -5094.2164   -500.52738 
    4800    233.57835   -9.5090643    1364565.3   -4773.4288     360.6589   -5134.0877   -917.85664 
    5000    222.16181  -0.73983004    1364565.3   -4782.4327    343.03108   -5125.4638   -71.411643 
    5200    230.80806   0.70258136    1364565.3   -4787.2102     356.3814   -5143.5916    67.816237 
    5400    228.88152  -0.60403935    1364565.3    -4789.702    353.40671   -5143.1087    -58.30453 
    5600    223.60038   -5.8775614    1364565.3   -4792.4234    345.25232   -5137.6757   -567.32803 
    5800    224.54589   -6.0651292    1364565.3   -4794.6047    346.71224   -5141.3169    -585.4329 
    6000    227.43492   -2.5440878    1364565.3   -4793.2392    351.17308   -5144.4123   -245.56652 
    6200    223.98931    8.9672722    1364565.3   -4789.0976    345.85284   -5134.9505    865.56048 
    6400    230.70388   -4.6006635    1364565.3     -4779.99    356.22054   -5136.2106   -444.07624 
    6600    231.15277     7.042747    1364565.3   -4768.2338    356.91366   -5125.1475    679.79686 
    6800    220.97371   -6.4186885    1364565.3   -4758.8993    341.19657   -5100.0959   -619.55999 
    7000    227.30337    5.8801835    1364565.3   -4751.3681    350.96995    -5102.338    567.58113 
    7200    219.79342    5.1104139    1364565.3   -4747.2935    339.37415   -5086.6677    493.27959 
    7400    224.32737   -9.0978836    1364565.3   -4746.2221    346.37482   -5092.5969   -878.16766 
    7600    227.24223   -8.0246843    1364565.3   -4745.6842    350.87555   -5096.5598   -774.57776 
    7800    226.10901   -13.075362    1364565.3   -4746.6747    349.12579   -5095.8005   -1262.0913 
    8000    215.97113   -2.7260448    1364565.3   -4749.2904     333.4723   -5082.7627   -263.12981 
    8200    223.23063   -19.292886    1364565.3   -4753.1468     344.6814   -5097.8282   -1862.2341 
    8400    227.32461    2.5281465    1364565.3   -4759.2501    351.00274   -5110.2529    244.02779 
    8600    222.39038   -2.0385171    1364565.3   -4769.8143      343.384   -5113.1983   -196.76662 
    8800    200.99035   -3.2225902    1364565.3   -4786.7955    310.34108   -5097.1366   -311.05855 
    9000    207.08993   -1.3017136    1364565.3    -4798.262    319.75919   -5118.0212   -125.64711 
    9200    214.29034   -10.816743    1364565.3   -4801.3065    330.87706   -5132.1836   -1044.0795 
    9400    211.39049   -10.291743    1364565.3   -4797.7696    326.39951   -5124.1691    -993.4042 
    9600    207.74426   -6.0255339    1364565.3   -4789.4549    320.76951   -5110.2244   -581.61098 
    9800    216.94436   -4.7793451    1364565.3     -4779.62    334.97502    -5114.595   -461.32337 
   10000    212.41041   -1.5878727    1364565.3    -4771.447    327.97434   -5099.4213   -153.26845 
   10200    219.66794   0.28756079    1364565.3   -4765.5165    339.18039   -5104.6969    27.756629 
   10400    230.02344  -0.10308078    1364565.3   -4760.3622    355.16991   -5115.5321   -9.9498094 
   10600    222.50871     -1.09598    1364565.3    -4755.161    343.56671   -5098.7277    -105.7888 
   10800    222.04649   -2.5996837    1364565.3   -4748.4909    342.85302    -5091.344   -250.93289 
   11000    219.57609    5.4470039    1364565.3   -4740.6036    339.03857   -5079.6421    525.76873 
   11200    222.81542    5.3421427    1364565.3   -4734.3157    344.04028    -5078.356    515.64707 
   11400    230.39114   -2.7325856    1364565.3   -4730.8921    355.73766   -5086.6298   -263.76116 
   11600    236.84671   -6.3937527    1364565.3   -4730.3658    365.70543   -5096.0712   -617.15308 
   11800    231.57619  -0.92957593    1364565.3   -4733.8294    357.56743   -5091.3968    -89.72675 
   12000    233.65152   -6.6131044    1364565.3   -4743.7198    360.77187   -5104.4917   -638.32587 
   12200    230.24063   -5.6038974    1364565.3   -4762.8628    355.50526   -5118.3681   -540.91277 
   12400    218.23935    7.4343046    1364565.3   -4776.6332    336.97457   -5113.6078    717.59172 
   12600    201.27077   -4.1356266    1364565.3    -4779.778    310.77407   -5090.5521   -399.18884 
   12800    221.24504   -4.5808197    1364565.3   -4777.4945    341.61553   -5119.1101   -442.16083 
   13000    212.17667   -1.4644901    1364565.3   -4774.1802    327.61342   -5101.7936   -141.35901 
   13200     217.5759   -5.2103597    1364565.3   -4769.5661    335.95016   -5105.5163   -502.92679 
   13400    220.97797    9.4923241    1364565.3   -4762.4258    341.20315   -5103.6289     916.2408 
   13600    230.96591   -4.7402777    1364565.3   -4754.4497    356.62513   -5111.0748   -457.55241 
   13800    221.52586  -0.58589047    1364565.3   -4747.4418    342.04913   -5089.4909    -56.55272 
   14000    222.57441   -10.949676    1364565.3   -4740.8834    343.66815   -5084.5516   -1056.9108 
   14200    234.83036    5.7238016    1364565.3    -4733.754    362.59208   -5096.3461    552.48646 
   14400    227.80355   -7.3375331    1364565.3   -4730.0648    351.74226   -5081.8071   -708.25091 
   14600    240.47986    5.2118392    1364565.3   -4731.2332    371.31524   -5102.5484     503.0696 
   14800    238.10583   -9.3984128    1364565.3   -4739.4826    367.64959   -5107.1322   -907.17606 
   15000    223.21864   -5.5506273    1364565.3    -4758.234    344.66289   -5102.8969   -535.77092 
   15200    220.71948    6.4064911    1364565.3   -4773.8119    340.80403    -5114.616    618.38265 
   15400    211.48451   -2.1395165    1364565.3   -4779.3808    326.54468   -5105.9255   -206.51553 
   15600    217.56247   -1.6349329    1364565.3   -4780.0966    335.92941   -5116.0261    -157.8109 
   15800    211.76307   -5.5917445    1364565.3   -4777.6591     326.9748   -5104.6339   -539.73972 
   16000    221.88127   -1.8872822    1364565.3   -4772.2755     342.5979   -5114.8734   -182.16877 
   16200    218.02991    3.3582125    1364565.3   -4765.4157    336.65118   -5102.0669    324.14941 
   16400    227.77022    6.0052737    1364565.3   -4758.5096     351.6908   -5110.2004    579.65538 
   16600     217.9524    4.7375388    1364565.3   -4753.2041    336.53149   -5089.7356    457.28805 
   16800    228.97345    6.1863544    1364565.3   -4747.8485    353.54865   -5101.3972    597.13408 
   17000    230.56241    4.8960177    1364565.3   -4742.7874     356.0021   -5098.7895    472.58513 
   17200    219.07636   -6.1353273    1364565.3   -4736.7486    338.26696   -5075.0156   -592.20873 
   17400    214.42576     8.312656    1364565.3   -4725.7659    331.08615    -5056.852    802.37405 
   17600    228.66903   -10.852997    1364565.3   -4710.8454    353.07861    -5063.924   -1047.5789 
   17800    235.99471     3.795419    1364565.3   -4699.1291    364.38989    -5063.519    366.35051 
   18000    250.00111   -10.098034    1364565.3    -4696.283    386.01661   -5082.2996   -974.70657 
   18200    267.50078    12.563173    1364565.3   -4702.0203    413.03715   -5115.0574    1212.6526 
   18400    232.73184   -5.3180949    1364565.3   -4714.5781    359.35183     -5073.93   -513.32587 
   18600    237.68601    4.2316669    1364565.3   -4725.8419    367.00137   -5092.8433    408.45907 
   18800    216.30868   -10.498793    1364565.3   -4735.3488     333.9935   -5069.3423   -1013.3896 
   19000    226.91196   -2.8456739    1364565.3   -4743.1391    350.36559   -5093.5046   -274.67694 
   19200    233.62024    -14.90816    1364565.3    -4751.066    360.72358   -5111.7895    -1439.001 
   19400    233.60493   -1.1115455    1364565.3   -4759.9684    360.69993   -5120.6683   -107.29125 
   19600    238.49316    6.2679952    1364565.3   -4768.8477    368.24765   -5137.0953    605.01441 
   19800    227.58319   -6.3390016    1364565.3   -4776.1956    351.40202   -5127.5976   -611.86827 
   20000    217.05658    1.3255927    1364565.3   -4781.9743     335.1483   -5117.1226    127.95203 
   20200    225.52171   -1.1729675    1364565.3   -4784.2589    348.21896   -5132.4779   -113.21998 
   20400    217.37001    1.6104571    1364565.3   -4784.8049    335.63226   -5120.4372    155.44839 
   20600    224.06653    9.9205628    1364565.3   -4784.4208    345.97208   -5130.3929    957.57628 
   20800    221.33775   -11.295122    1364565.3   -4782.0804    341.75868    -5123.839   -1090.2548 
   21000    229.87346    1.4425736    1364565.3    -4774.275    354.93833   -5129.2133    139.24354 
   21200    243.18812   -2.1787384    1364565.3   -4761.6914    375.49695   -5137.1884    -210.3014 
   21400    231.83623   -7.0772535    1364565.3    -4750.794    357.96895    -5108.763   -683.12758 
   21600    236.67694   -7.0739133    1364565.3   -4742.8321     365.4433   -5108.2754   -682.80517 
   21800     237.1274   -9.7207758    1364565.3   -4739.8188    366.13884   -5105.9576   -938.29196 
   22000    236.19534   -4.1411859    1364565.3   -4741.2724    364.69969    -5105.972   -399.72544 
   22200    224.50393  -0.68412586    1364565.3   -4747.5976    346.64746   -5094.2451   -66.034832 
   22400    225.30124   -9.4387825    1364565.3   -4757.4713    347.87854   -5105.3498   -911.07272 
   22600    219.53738    6.5804882    1364565.3   -4770.3311     338.9788   -5109.3099    635.17761 
   22800       217.72   -3.3131796    1364565.3   -4781.6591    336.17265   -5117.8318   -319.80264 
   23000    209.60212   -7.3116856    1364565.3   -4786.5373    323.63817   -5110.1754     -705.756 
   23200    209.85572  -0.39201104    1364565.3   -4785.8396    324.02974   -5109.8693   -37.838626 
   23400    220.63668    5.2691782    1364565.3   -4782.6303    340.67619   -5123.3065    508.60422 
   23600    234.81926    -8.333978    1364565.3   -4779.4135    362.57493   -5141.9885   -804.43215 
   23800    219.54679   -3.4596198    1364565.3   -4777.7371    338.99334   -5116.7304   -333.93769 
   24000    218.34711   -2.2689561    1364565.3   -4775.1298    337.14095   -5112.2708   -219.00961 
   24200    219.99307    3.3841053    1364565.3   -4770.5061    339.68242   -5110.1885     326.6487 
   24400    229.01196    2.9111939    1364565.3   -4765.5288    353.60812   -5119.1369    281.00122 
   24600    230.09797    1.0247673    1364565.3   -4761.2095    355.28497   -5116.4944    98.915043 
   24800    221.67842   -5.5565862    1364565.3   -4755.4943     342.2847    -5097.779    -536.3461 
   25000    228.54216    0.5031151    1364565.3   -4746.5249    352.88271   -5099.4076    48.562879 
   25200    234.18607    9.9079807    1364565.3   -4736.0525    361.59725   -5097.6498    956.36179 
   25400    224.88083    -1.114249    1364565.3   -4726.1681    347.22941   -5073.3975   -107.55221 
   25600    240.35073    8.8765486    1364565.3   -4718.8492    371.11585    -5089.965    856.80344 
   25800     237.5049   -11.567599    1364565.3   -4716.8295    366.72172   -5083.5513   -1116.5554 
   26000    235.34144    7.6031156    1364565.3   -4721.0722    363.38121   -5084.4534     733.8861 
   26200    228.88332    -11.00503    1364565.3   -4734.6856    353.40948   -5088.0951   -1062.2538 
   26400    234.14304    9.7505886    1364565.3    -4750.803    361.53081   -5112.3338    941.16962 
   26600    222.77425   -3.4081266    1364565.3   -4762.0973    343.97672   -5106.0741   -328.96734 
   26800    216.62075    -4.166678    1364565.3   -4767.5084    334.47536   -5101.9837   -402.18605 
   27000    213.30449    10.226273    1364565.3   -4769.6824    329.35484   -5099.0373    987.08474 
   27200    222.92909   -4.2292818    1364565.3   -4767.5523     344.2158   -5111.7681   -408.22885 
   27400    220.17871   -7.5546655    1364565.3   -4761.8166    339.96905   -5101.7857   -729.20948 
   27600    219.53179   -6.4940139    1364565.3   -4752.3215    338.97017   -5091.2917   -626.83073 
   27800    229.27216   -8.6927095    1364565.3   -4741.7856    354.00988   -5095.7955   -839.05849 
   28000    230.93664  -0.93819387    1364565.3   -4732.9018    356.57994   -5089.4817   -90.558591 
   28200    237.40338   0.95447764    1364565.3   -4727.3271    366.56497   -5093.8921    92.130372 
   28400    230.08822   0.90660166    1364565.3   -4724.4808    355.26992   -5079.7507    87.509172 
   28600    227.24281   -9.5075541    1364565.3   -4723.5525    350.87645   -5074.4289   -917.71087 
   28800    228.21584   -8.2158644    1364565.3   -4726.2278    352.37886   -5078.6067    -793.0313 
   29000    235.46382   -2.4172202    1364565.3   -4731.8441    363.57017   -5095.4143    -233.3207 
   29200    225.40179    3.3553176    1364565.3   -4737.5041     348.0338   -5085.5379    323.86998 
   29400    223.72533    -4.180805    1364565.3   -4741.9153    345.44525   -5087.3605   -403.54965 
   29600    221.70569   -1.8516343    1364565.3   -4744.4006     342.3268   -5086.7274   -178.72788 
   29800    229.71395   -2.9125471    1364565.3   -4744.6229    354.69203   -5099.3149   -281.13184 
   30000    233.45316    6.6931013    1364565.3   -4743.8117    360.46559   -5104.2773    646.04753 
   30200    218.49189    2.8747577    1364565.3   -4742.0531     337.3645   -5079.4176    277.48424 
   30400    224.54562   -3.1231186    1364565.3    -4739.392    346.71182   -5086.1038   -301.45712 
   30600    222.79057  -0.36665198    1364565.3   -4738.0016    344.00192   -5082.0035   -35.390858 
   30800    226.20279    3.5955315    1364565.3   -4737.0489    349.27059   -5086.3195    347.05649 
   31000    224.91816   -4.1161722    1364565.3   -4736.6873    347.28704   -5083.9744   -397.31101 
   31200     228.9035    2.4186333    1364565.3   -4738.0017    353.44065   -5091.4424     233.4571 
   31400    222.45396   -9.7618094    1364565.3    -4739.553    343.48217   -5083.0352    -942.2527 
   31600     243.4109    10.280594    1364565.3    -4741.375    375.84094   -5117.2159    992.32809 
   31800    225.04706   -5.8755677    1364565.3   -4750.3529    347.48607    -5097.839   -567.13559 
   32000    228.37845     3.725119    1364565.3   -4766.0695    352.62993   -5118.6994    359.56484 
   32200    223.20426    2.2020552    1364565.3   -4778.2019    344.64068   -5122.8426    212.55204 
   32400    220.29328   -5.8073061    1364565.3   -4784.7696    340.14595   -5124.9156   -560.54668 
   32600    214.33843    5.0539121    1364565.3   -4787.8483    330.95131   -5118.7996    487.82578 
   32800    230.51639   -4.0398305    1364565.3   -4787.8315    355.93104   -5143.7626   -389.94217 
   33000    223.61255   -11.531066    1364565.3   -4785.0814    345.27111   -5130.3525   -1113.0292 
   33200    226.12137   -1.8536703    1364565.3   -4778.9107    349.14487   -5128.0555    -178.9244 
   33400    217.51822   -12.675708    1364565.3   -4769.5317    335.86109   -5105.3928    -1223.515 
   33600    226.58196   -4.3937328    1364565.3   -4759.4621    349.85605   -5109.3181   -424.10238 
   33800    231.90648   -8.7662758    1364565.3   -4750.2402    358.07743   -5108.3177   -846.15942 
   34000    238.03319   -7.4454579    1364565.3   -4742.6951    367.53744   -5110.2326   -718.66828 
   34200    233.34444    3.6629158    1364565.3    -4738.799    360.29772   -5099.0967    353.56072 
   34400     235.4019  -0.42837466    1364565.3   -4739.7485    363.47456   -5103.2231   -41.348603 
   34600    229.72301    4.0043756    1364565.3   -4744.3448    354.70602   -5099.0508    386.51991 
   34800    226.26397   -4.1873019    1364565.3   -4750.2018    349.36505   -5099.5668   -404.17676 
   35000    225.13675    7.0784116    1364565.3   -4754.2458    347.62456   -5101.8704    683.23936 
   35200     224.3073   -1.1653517    1364565.3   -4758.4226    346.34384   -5104.7665   -112.48486 
   35400    228.24223   -9.6135993    1364565.3   -4762.5646    352.41961   -5114.9842   -927.94681 
   35600    225.43226   -9.7257722    1364565.3   -4766.2374    348.08085   -5114.3182   -938.77423 
   35800    238.42807    12.464265    1364565.3   -4771.5097    368.14714   -5139.6569    1203.1056 
   36000    226.84952   -7.2487404    1364565.3   -4779.5601    350.26918   -5129.8292   -699.68025 
   36200     223.0539    10.423295    1364565.3   -4786.8655    344.40851    -5131.274    1006.1022 
   36400    205.07945   -5.6454049    1364565.3   -4792.4738     316.6549   -5109.1287   -544.91926 
   36600    221.52627    1.3996211    1364565.3    -4794.108    342.04976   -5136.1578    135.09758 
   36800    230.84474    2.2147782    1364565.3   -4792.3785    356.43803   -5148.8165    213.78012 
   37000    222.90669   -2.7770619    1364565.3   -4785.9108    344.18121    -5130.092   -268.05421 
   37200    228.73725   0.29754614    1364565.3   -4766.9286    353.18394   -5120.1125     28.72046 
   37400    223.99618  -0.61202147    1364565.3   -4749.4233    345.86345   -5095.2867   -59.074999 
   37600     239.1754   -2.3807236    1364565.3   -4743.2223    369.30108   -5112.5234   -229.79789 
   37800    224.01138    1.4545448    1364565.3   -4743.0747    345.88693   -5088.9616    140.39905 
   38000    223.06439    -1.235892    1364565.3   -4747.7197    344.42472   -5092.1444   -119.29373 
   38200    229.35545   -8.6369683    1364565.3     -4755.42    354.13848   -5109.5585    -833.6781 
   38400    233.14129    3.8395821    1364565.3   -4765.7854    359.98404   -5125.7694    370.61332 
   38600    224.47341   -13.762585    1364565.3   -4775.0926    346.60032   -5121.6929   -1328.4251 
   38800    216.40326   -6.9694639    1364565.3   -4780.7367    334.13953   -5114.8762   -672.72326 
   39000    216.65763    17.119739    1364565.3   -4783.1682    334.53229   -5117.7005    1652.4724 
   39200    220.25956    -3.099167    1364565.3   -4781.8374    340.09389   -5121.9313    -299.1452 
   39400    227.25665  -0.42015057    1364565.3   -4775.9414    350.89782   -5126.8392   -40.554778 
   39600    223.46859   -2.8480986    1364565.3   -4768.0683    345.04882   -5113.1171   -274.91098 
   39800    223.73224    2.0853649    1364565.3   -4758.3994    345.45591   -5103.8553    201.28858 
   40000    223.23779   -1.4458223    1364565.3   -4746.8873    344.69246   -5091.5797   -139.55711 
   40200    233.84264     -5.07013    1364565.3   -4738.8964    361.06697   -5099.9634   -489.39121 
   40400    232.48804   0.99492046    1364565.3   -4737.0701    358.97539   -5096.0455    96.034091 
   40600    231.89361   -1.7417808    1364565.3   -4738.1245    358.05755    -5096.182   -168.12433 
   40800    235.33708    5.3778092    1364565.3   -4740.0118    363.37448   -5103.3863    519.08975 
   41000    228.72081   -6.3434153    1364565.3   -4742.9694    353.15857    -5096.128   -612.29429 
   41200     228.1567    11.169586    1364565.3    -4746.629    352.28755   -5098.9166    1078.1375 
   41400    211.83081   -5.6331885    1364565.3    -4749.673     327.0794   -5076.7524   -543.74008 
   41600    235.73382   -8.8352172    1364565.3   -4753.0384    363.98706   -5117.0254   -852.81395 
   41800     224.5476    5.2169936    1364565.3   -4759.1893    346.71488   -5105.9042    503.56713 
   42000    232.16155  0.047072203    1364565.3   -4767.8192    358.47127   -5126.2905    4.5436156 
   42200    223.00588  -0.26631028    1364565.3   -4777.5648    344.33438   -5121.8992   -25.705438 
   42400    209.41337   -9.7325037    1364565.3   -4785.6588    323.34672   -5109.0055   -939.42399 
   42600    213.13183   -8.4305304    1364565.3   -4791.1623    329.08825   -5120.2505   -813.75181 
   42800    218.68435   -1.5305398    1364565.3   -4794.1923    337.66167   -5131.8539   -147.73442 
   43000    215.86573    -9.121371    1364565.3   -4795.0954    333.30956    -5128.405   -880.43478 
   43200    212.83171    5.8523863    1364565.3   -4792.7966    328.62485   -5121.4215    564.89802 
   43400    221.68566   -6.5994493    1364565.3   -4782.3353    342.29587   -5124.6312   -637.00782 
   43600    218.54423   -3.4732536    1364565.3   -4763.0971    337.44531   -5100.5424   -335.25369 
   43800     233.0517    2.4117189    1364565.3   -4749.9386    359.84572   -5109.7843    232.78969 
   44000    239.05444   -1.9849353    1364565.3   -4744.0813     369.1143   -5113.1956   -191.59467 
   44200    230.48689   -16.196545    1364565.3   -4745.1743     355.8855   -5101.0598   -1563.3616 
   44400    226.15557    4.7218069    1364565.3   -4751.2392    349.19767   -5100.4368    455.76953 
   44600    238.02121   -4.8582957    1364565.3   -4761.1918    367.51893   -5128.7107   -468.94403 
   44800    209.91697    1.0895442    1364565.3   -4772.7027    324.12431    -5096.827    105.16759 
   45000    219.77538   -2.1886058    1364565.3   -4782.0902    339.34628   -5121.4365   -211.25384 
   45200    226.56923   -2.5441454    1364565.3   -4787.8392    349.83639   -5137.6755   -245.57208 
   45400    222.31795  -0.65329034    1364565.3   -4790.4218    343.27216    -5133.694   -63.058452 
   45600    221.16644   -5.2145912    1364565.3   -4790.3874    341.49416   -5131.8816   -503.33523 
   45800    216.61837   -6.3200314    1364565.3   -4787.9078    334.47167   -5122.3794   -610.03717 
   46000    212.21195    4.6402212    1364565.3    -4782.141    327.66791    -5109.809    447.89452 
   46200    235.08759   -1.6581855    1364565.3   -4770.4878    362.98925   -5133.4771   -160.05535 
   46400    229.29916     20.40701    1364565.3   -4758.5487    354.05157   -5112.6003    1969.7742 
   46600    222.67754   -5.6647667    1364565.3   -4751.9876     343.8274    -5095.815   -546.78816 
   46800     228.5855    7.3327517    1364565.3   -4749.2655    352.94964   -5102.2151    707.78939 
   47000    224.08827   -1.1942859    1364565.3   -4748.6066    346.00565   -5094.6123   -115.27772 
   47200    220.94011   -1.7296237    1364565.3   -4749.3407     341.1447   -5090.4854   -166.95087 
   47400    229.80201   -1.4871876    1364565.3   -4752.0348    354.82801   -5106.8628   -143.54987 
   47600    243.53538   -2.3021124    1364565.3   -4755.1347    376.03314   -5131.1678   -222.20999 
   47800     220.3951   -2.3740235    1364565.3   -4758.2611    340.30317   -5098.5642   -229.15117 
   48000    215.36174   -13.746767    1364565.3   -4760.0447    332.53137    -5092.576   -1326.8983 
   48200    213.13571    1.3687631    1364565.3   -4760.3954    329.09424   -5089.4897    132.11903 
   48400    220.86453   -9.4094748    1364565.3   -4759.2054      341.028   -5100.2334   -908.24382 
   48600    213.73559  -0.16332432    1364565.3   -4755.0503     330.0205   -5085.0708    -15.76478 
   48800    223.45648   -2.9861395    1364565.3   -4747.3631    345.03012   -5092.3933    -288.2353 
   49000    233.42652   -1.4200118    1364565.3   -4737.3962    360.42446   -5097.8207   -137.06577 
   49200    250.07045   0.30090546    1364565.3   -4730.4696    386.12369   -5116.5933    29.044716 
   49400    229.86017   -2.4406336    1364565.3   -4730.0891     354.9178   -5085.0069   -235.58067 
   49600    233.27738    2.6357722    1364565.3   -4735.7932    360.19418   -5095.9873     254.4163 
   49800    230.86965   -1.6468161    1364565.3   -4745.7904    356.47649   -5102.2669   -158.95792 
   50000    239.65499   -1.3977887    1364565.3   -4758.2132    370.04159   -5128.2548    -134.9207 
   50200    227.34273  -0.79079381    1364565.3   -4768.6414    351.03073   -5119.6721    -76.33089 
   50400    221.36512   -4.9610221    1364565.3   -4773.9864    341.80094   -5115.7873   -478.85963 
   50600    219.68335    1.1240782    1364565.3   -4774.9701    339.20419   -5114.1743    108.50097 
   50800    233.03142    3.0729245    1364565.3   -4773.2771     359.8144   -5133.0915    296.61216 
   51000    225.10181   -4.3995207    1364565.3   -4771.0785    347.57062   -5118.6491   -424.66105 
   51200    212.95181    2.2345663    1364565.3   -4768.3944    328.81029   -5097.2047    215.69015 
   51400    225.57467    6.9169876    1364565.3   -4763.9697    348.30074   -5112.2705    667.65801 
   51600    226.80254   -2.9344035    1364565.3   -4758.3856    350.19664   -5108.5822   -283.24151 
   51800    243.25683    3.0688072    1364565.3   -4752.5992    375.60304   -5128.2022    296.21474 
   52000     230.8187   -15.610378    1364565.3   -4746.3468    356.39783   -5102.7446   -1506.7822 
   52200    223.88758    3.2556657    1364565.3   -4735.3072    345.69577    -5081.003    314.25115 
   52400    237.61937   -1.4836458    1364565.3   -4721.0707    366.89847   -5087.9691     -143.208 
   52600    257.70938   -8.0128026    1364565.3   -4713.0086    397.91865   -5110.9273   -773.43089 
   52800    230.95104    4.8526001    1364565.3   -4714.3035    356.60218   -5070.9057    468.39427 
   53000    246.98446   -1.1053807    1364565.3   -4722.8229    381.35872   -5104.1817   -106.69619 
   53200    221.10623   -4.0381158    1364565.3   -4736.8089    341.40121   -5078.2101   -389.77667 
   53400    226.84503  -0.15083744    1364565.3   -4746.8305    350.26224   -5097.0927   -14.559492 
   53600    231.34722     2.562073    1364565.3    -4752.038     357.2139   -5109.2519    247.30254 
   53800    213.86817   -16.018975    1364565.3   -4756.6491     330.2252   -5086.8743   -1546.2218 
   54000    217.39785    1.3789766    1364565.3    -4759.138    335.67524   -5094.8133    133.10487 
   54200    223.95602    3.5749062    1364565.3    -4760.199    345.80145   -5106.0005    345.06565 
   54400    224.12326    3.6162452    1364565.3   -4761.3753    346.05967    -5107.435    349.05586 
   54600    227.49761    5.1471718    1364565.3   -4761.6236    351.26987   -5112.8935    496.82762 
   54800    224.96883    0.1324182    1364565.3   -4760.0048    347.36528   -5107.3701    12.781586 
   55000    221.03548    2.3875233    1364565.3   -4755.7072    341.29196   -5096.9992    230.45423 
   55200    215.27367    3.7488913    1364565.3     -4748.15    332.39537   -5080.5454    361.85945 
   55400      223.491    3.4094894    1364565.3   -4736.6563    345.08342   -5081.7397    329.09889 
   55600      235.231   -7.5375516    1364565.3   -4724.9651    363.21069   -5088.1758   -727.55757 
   55800    227.21435   0.43215672    1364565.3   -4717.9643    350.83249   -5068.7968    41.713663 
   56000    231.96179   -9.9797416    1364565.3   -4715.2015    358.16283   -5073.3643   -963.28847 
   56200    230.91518    3.8886687    1364565.3    -4716.877     356.5468   -5073.4238    375.35138 
   56400    230.58602   -19.462365    1364565.3   -4724.6475    356.03856   -5080.6861    -1878.593 
   56600    229.32873    2.1968838    1364565.3   -4736.4316    354.09722   -5090.5289    212.05287 
   56800    209.37595    2.4297158    1364565.3   -4747.7335    323.28895   -5071.0224    234.52684 
   57000    217.57033     1.849803    1364565.3   -4753.9868    335.94157   -5089.9284     178.5511 
   57200    213.29411   0.96705754    1364565.3   -4755.3435    329.33881   -5084.6823    93.344639 
   57400    233.34954    4.4513109    1364565.3   -4754.0317    360.30559   -5114.3373    429.66007 
   57600    218.98899   -7.8957399    1364565.3   -4752.4139    338.13206   -5090.5459   -762.13148 
   57800    219.16664    4.0662715    1364565.3   -4748.6202    338.40636   -5087.0266    392.49438 
   58000    230.15998      3.50116    1364565.3   -4743.8807    355.38073   -5099.2615    337.94734 
   58200    221.05894   -1.3317597    1364565.3   -4738.9173    341.32819   -5080.2455    -128.5473 
   58400    212.18068    7.8334094    1364565.3   -4735.0799    327.61962   -5062.6996    756.11507 
   58600    224.65019     0.841496    1364565.3   -4729.2716    346.87328   -5076.1449    81.224888 
   58800    226.98994   -13.975515    1364565.3   -4721.0325    350.48599   -5071.5185   -1348.9781 
   59000    235.33418     3.950123    1364565.3   -4709.9375       363.37   -5073.3075    381.28321 
   59200    233.71491   -8.6517021    1364565.3   -4697.5419    360.86976   -5058.4117   -835.10027 
   59400    234.94298  -0.13935903    1364565.3   -4687.7064    362.76597   -5050.4724   -13.451546 
   59600    230.32998      5.69538    1364565.3   -4683.0152    355.64321   -5038.6584    549.74308 
   59800    237.88614   -2.0664334    1364565.3   -4683.8283    367.31038   -5051.1387   -199.46122 
   60000    233.34734   -1.2240982    1364565.3   -4694.3034     360.3022   -5054.6056   -118.15533 
   60200    220.39715    7.6467404    1364565.3   -4714.7755    340.30633   -5055.0819    738.09695 
   60400    225.26668   -10.774957    1364565.3   -4727.7785    347.82518   -5075.6037   -1040.0461 
   60600    224.26785    5.7424721    1364565.3   -4733.3474    346.28293   -5079.6303    554.28861 
   60800    219.79155     6.695537    1364565.3   -4738.7761    339.37126   -5078.1474    646.28263 
   61000    227.63078    6.4703221    1364565.3   -4743.9894    351.47549   -5095.4649    624.54389 
   61200    215.73025   -2.9824852    1364565.3   -4748.4907    333.10036    -5081.591   -287.88257 
   61400    218.76038   -2.5991699    1364565.3   -4752.2338    337.77906   -5090.0129   -250.88329 
   61600    223.90439    14.193806    1364565.3   -4754.8827    345.72172   -5100.6044    1370.0485 
   61800    218.61936   -14.151978    1364565.3   -4757.3842    337.56132   -5094.9456   -1366.0111 
   62000    223.44222 -0.036257149    1364565.3   -4760.2295    345.00811   -5105.2376   -3.4996992 
   62200     225.5266    -9.145938    1364565.3   -4764.1753    348.22652   -5112.4018   -882.80609 
   62400    229.50445   -1.6347274    1364565.3   -4770.1937    354.36855   -5124.5623   -157.79106 
   62600    221.18813    7.7557668    1364565.3   -4778.4096    341.52766   -5119.9373    748.62066 
   62800    210.49238   0.71560451    1364565.3   -4786.6926    325.01278   -5111.7053    69.073289 
   63000    227.04433   -3.0442847    1364565.3   -4792.9835    350.56999   -5143.5535   -293.84772 
   63200    209.47338   -17.725703    1364565.3   -4796.7978    323.43938   -5120.2371   -1710.9626 
   63400    218.39322    6.3676933    1364565.3   -4797.2545    337.21214   -5134.4667    614.63771 
   63600    217.24906    -7.207846    1364565.3   -4792.6306     335.4455   -5128.0761   -695.73294 
   63800    224.60081   -5.1269624    1364565.3   -4779.6348    346.79704   -5126.4318   -494.87692 
   64000    235.84578    -4.215768    1364565.3   -4764.2242    364.15994   -5128.3841   -406.92444 
   64200    230.58205  0.060953637    1364565.3   -4756.0927    356.03242   -5112.1251    5.8835126 
   64400    236.12561    -7.086358    1364565.3   -4753.2557    364.59202   -5117.8477   -684.00639 
   64600    232.16956    5.0568212    1364565.3   -4754.8566    358.48364   -5113.3402    488.10658 
   64800    237.95924    2.4147393    1364565.3    -4759.091    367.42325   -5126.5142    233.08124 
   65000    225.74319   -1.6431604    1364565.3   -4765.7644    348.56093   -5114.3253   -158.60505 
   65200    220.44837   -1.1463837    1364565.3   -4771.8858    340.38542   -5112.2712   -110.65399 
   65400    212.60302   -1.7760877    1364565.3   -4778.2192    328.27173   -5106.4909   -171.43578 
   65600    206.22154   -1.7144285    1364565.3   -4785.4044    318.41834   -5103.8228   -165.48416 
   65800    229.17842   -9.0378521    1364565.3   -4790.8765    353.86514   -5144.7416   -872.37316 
   66000    215.41607   -3.5972287    1364565.3   -4795.5356    332.61525   -5128.1509   -347.22031 
   66200    208.34017    1.9115247    1364565.3   -4797.7447    321.68964   -5119.4343    184.50875 
   66400    225.42213   -4.1945417    1364565.3   -4796.8428     348.0652    -5144.908   -404.87558 
   66600    217.99814   -11.722728    1364565.3   -4789.4657    336.60212   -5126.0678   -1131.5292 
   66800    216.78946   -12.656782    1364565.3    -4776.573    334.73585   -5111.3089   -1221.6882 
   67000    225.85634   -7.2326423    1364565.3   -4764.1287    348.73565   -5112.8644   -698.12639 
   67200    241.30267    -11.92921    1364565.3   -4756.3515     372.5857   -5128.9372   -1151.4598 
   67400    229.81625   -7.1397251    1364565.3   -4752.2743    354.84999   -5107.1243   -689.15761 
   67600    226.72185    1.9653653    1364565.3   -4749.6743    350.07206   -5099.7464    189.70568 
   67800    219.25821  -0.91886421    1364565.3   -4748.2777    338.54774   -5086.8255   -88.692808 
   68000    233.92773    5.8217515    1364565.3   -4746.4338    361.19836   -5107.6321    561.94101 
   68200    237.02595    17.191988    1364565.3   -4745.6772    365.98219   -5111.6594    1659.4461 
   68400    217.38901   -7.4911192    1364565.3   -4746.6816    335.66159   -5082.3432   -723.07571 
   68600     227.3652    10.194495    1364565.3   -4749.1992    351.06543   -5100.2646     984.0174 
   68800    220.40971  -0.94595177    1364565.3    -4755.175    340.32573   -5095.5007   -91.307418 
   69000    228.59388  -0.08938256    1364565.3   -4764.8017    352.96258   -5117.7643   -8.6275971 
   69200    233.89412   -7.8386697    1364565.3   -4777.4722    361.14646   -5138.6187   -756.62281 
   69400    224.03255   -5.8112516    1364565.3   -4787.8812    345.91961   -5133.8008   -560.92752 
   69600    223.36281   -6.2500124    1364565.3   -4793.6427    344.88549   -5138.5282   -603.27864 
   69800    227.75444    2.8523135    1364565.3   -4796.9226    351.66643    -5148.589    275.31782 
   70000     218.9615     1.350449    1364565.3   -4797.7821    338.08961   -5135.8717    130.35126 
   70200    221.67336   -5.1029258    1364565.3   -4798.5138    342.27688   -5140.7907    -492.5568 
   70400    221.23793    3.9199713    1364565.3   -4798.2745    341.60455   -5139.8791    378.37284 
   70600     210.6219   -11.469146    1364565.3   -4793.4533    325.21277   -5118.6661   -1107.0523 
   70800    223.50192   -12.411845    1364565.3   -4779.7017    345.10028   -5124.8019   -1198.0457 
   71000    232.10126    12.783129    1364565.3   -4761.8343    358.37818   -5120.2125    1233.8837 
   71200    231.37507   -9.0010031    1364565.3   -4752.7402     357.2569   -5109.9971   -868.81634 
   71400    220.52862    2.3891571    1364565.3   -4749.4289    340.50933   -5089.9383    230.61193 
   71600    217.92598   -6.0504255    1364565.3   -4747.6102     336.4907   -5084.1009   -584.01363 
   71800    219.01006  0.067316978    1364565.3   -4746.2875    338.16459   -5084.4521    6.4977302 
   72000    235.79504    6.3112507    1364565.3   -4746.0097    364.08159   -5110.0913    609.18963 
   72200    239.56449  -0.47892785    1364565.3   -4747.0745    369.90185   -5116.9763   -46.228219 
   72400    232.00693  -0.64503179    1364565.3   -4748.8571    358.23253   -5107.0896   -62.261301 
   72600    227.30503    2.9907321    1364565.3   -4751.0459    350.97252   -5102.0184    288.67859 
   72800     216.0942   -3.2924026    1364565.3   -4752.2116    333.66232   -5085.8739   -317.79715 
   73000    222.74514    10.520432    1364565.3   -4751.1749    343.93177   -5095.1067    1015.4783 
   73200     220.3581  -0.59639858    1364565.3   -4746.0301    340.24605   -5086.2761   -57.567009 
   73400    205.37538   -7.3809561    1364565.3   -4736.2865    317.11183   -5053.3984   -712.44228 
   73600    220.08836   -6.9514909    1364565.3   -4724.5144    339.82955   -5064.3439   -670.98842 
   73800     228.8479    5.9193876    1364565.3   -4714.0531    353.35479   -5067.4079    571.36528 
   74000    219.46489   -24.160037    1364565.3   -4708.9564    338.86687   -5047.8232   -2332.0328 
   74200    223.00643   -7.7212556    1364565.3   -4706.7184    344.33522   -5051.0537   -745.28949 
   74400    233.71309    4.1094537    1364565.3    -4707.577    360.86694   -5068.4439    396.66252 
   74600    224.37001     -5.92913    1364565.3   -4712.6527    346.44067   -5059.0934   -572.30566 
   74800    231.11483    6.4092951    1364565.3   -4719.5424    356.85508   -5076.3975     618.6533 
   75000    216.53483    7.0252433    1364565.3   -4726.2576    334.34268   -5060.6003    678.10732 
   75200     213.5351   -5.8661371    1364565.3   -4733.0582    329.71092   -5062.7691    -566.2253 
   75400    210.35361   -4.7753664    1364565.3   -4741.9189    324.79851   -5066.7175   -460.93933 
   75600    214.16463    9.8254911    1364565.3   -4752.4836    330.68296   -5083.1665    948.39953 
   75800    227.42767    -9.138231    1364565.3   -4761.5697    351.16188   -5112.7315   -882.06218 
   76000    218.31721    10.321532    1364565.3   -4765.6759    337.09479   -5102.7707    996.27958 
   76200    213.65028   -6.9600524    1364565.3   -4764.7029    329.88876   -5094.5916   -671.81481 
   76400    216.19772   -10.258728    1364565.3   -4759.8785    333.82217   -5093.7007   -990.21747 
   76600    221.96213    12.746946    1364565.3   -4749.2606    342.72277   -5091.9833    1230.3912 
   76800    230.61174   -11.581186    1364565.3   -4734.6146    356.07828   -5090.6929   -1117.8669 
   77000    237.57668   -1.8316825    1364565.3   -4724.8867    366.83256   -5091.7193   -176.80204 
   77200    231.58692 -0.074911668    1364565.3   -4721.9752    357.58401   -5079.5592    -7.230803 
   77400    238.89375   -2.6831344    1364565.3   -4722.1143    368.86618   -5090.9805   -258.98792 
   77600    224.85218   0.89158921    1364565.3   -4725.6362    347.18517   -5072.8214    86.060105 
   77800    232.78551    3.0914376    1364565.3    -4729.702    359.43471   -5089.1367    298.39913 
   78000    225.23747     11.92536    1364565.3    -4734.495    347.78009   -5082.2751    1151.0881 
   78200    224.71372   -10.551587    1364565.3   -4739.3099    346.97138   -5086.2813   -1018.4855 
   78400    209.28878   -1.1804968    1364565.3   -4743.3628    323.15435   -5066.5172   -113.94673 
   78600    228.81362    1.6193454    1364565.3   -4745.5067    353.30187   -5098.8086    156.30633 
   78800    215.65134   -4.2898048    1364565.3   -4745.9401    332.97853   -5078.9186   -414.07079 
   79000    219.25425    3.2496469    1364565.3    -4745.754    338.54163   -5084.2957    313.67018 
   79200    222.90676    1.4585812    1364565.3   -4745.1521    344.18133   -5089.3335    140.78866 
   79400     222.7782   -4.8562516    1364565.3   -4744.3443    343.98282   -5088.3271   -468.74672 
   79600    229.89175    8.8917522    1364565.3   -4741.1698    354.96657   -5096.1364    858.27096 
   79800    233.48077   -11.660278    1364565.3   -4737.4148    360.50823    -5097.923   -1125.5012 
   80000    226.31883    2.0975671    1364565.3   -4733.8318    349.44977   -5083.2815    202.46638 
   80200    221.08877    1.7385512    1364565.3   -4731.3911    341.37423   -5072.7653     167.8126 
   80400    243.63134    14.178133    1364565.3     -4729.27     376.1813   -5105.4513    1368.5356 
   80600    223.54488    -5.979651    1364565.3   -4730.7115    345.16662   -5075.8781   -577.18217 
   80800    227.82014    4.1051808    1364565.3   -4736.3411    351.76788    -5088.109    396.25008 
   81000    222.24168    5.7103979    1364565.3   -4747.1281    343.15441   -5090.2825    551.19268 
   81200    224.58412    1.5049101    1364565.3   -4758.1532    346.77127   -5104.9245    145.26053 
   81400    218.10273   -7.7245871    1364565.3   -4766.7711    336.76362   -5103.5347   -745.61106 
   81600    210.30185     6.165957    1364565.3   -4771.5738    324.71859   -5096.2924    595.16524 
   81800     223.6086    2.1022665    1364565.3   -4772.0473      345.265   -5117.3123       202.92 
   82000    221.05793   -13.094812    1364565.3   -4770.8664    341.32662    -5112.193   -1263.9688 
   82200    222.19607   -4.0010196    1364565.3   -4766.4207    343.08398   -5109.5047   -386.19598 
   82400    224.27438   -3.7321072    1364565.3   -4755.6871    346.29301   -5101.9801   -360.23937 
   82600    237.04702   -1.0634205    1364565.3   -4742.5699    366.01473   -5108.5846   -102.64601 
   82800    234.79555   0.42933754    1364565.3   -4733.7908    362.53832   -5096.3291    41.441545 
   83000    239.46188    11.334199    1364565.3   -4731.2742    369.74342   -5101.0176    1094.0266 
   83200    225.41826   -15.678759    1364565.3   -4733.1801    348.05922   -5081.2393   -1513.3827 
   83400     226.3849     2.404798    1364565.3   -4734.7638    349.55178   -5084.3156    232.12166 
   83600    228.66025    -5.165197    1364565.3   -4737.5061    353.06506   -5090.5712   -498.56749 
   83800    228.71039    4.1849376    1364565.3     -4739.51    353.14248   -5092.6525    403.94855 
   84000    249.30318   -11.468744    1364565.3   -4740.2447    384.93897   -5125.1837   -1107.0135 
   84200    219.12563   0.89737621    1364565.3   -4741.2989    338.34303   -5079.6419    86.618692 
   84400    217.84295   -1.6534431    1364565.3   -4742.1305    336.36249    -5078.493   -159.59759 
   84600    230.51174   -4.2713623    1364565.3    -4740.727    355.92387   -5096.6509   -412.29064 
   84800    234.64514   -5.2662718    1364565.3   -4736.6831    362.30608   -5098.9892   -508.32367 
   85000    222.76205   -4.0190134    1364565.3   -4725.4575    343.95788   -5069.4154   -387.93282 
   85200    237.06926    12.886906    1364565.3   -4707.7969    366.04907    -5073.846    1243.9007 
   85400    232.25606   -2.4790361    1364565.3   -4696.6334     358.6172   -5055.2506   -239.28745 
   85600     248.4726    9.9391285    1364565.3   -4693.4513    383.65651   -5077.1078    959.36832 
   85800    240.32385     2.215621    1364565.3   -4696.0338    371.07434   -5067.1081    213.86146 
   86000    229.88316    -2.193905    1364565.3   -4703.5816    354.95331   -5058.5349   -211.76534 
   86200     217.7844    1.8393336    1364565.3   -4715.0781    336.27209   -5051.3502    177.54055 
   86400    238.75649    2.4189451    1364565.3   -4724.6109    368.65425   -5093.2652     233.4872 
   86600    229.70265    6.8949679    1364565.3    -4732.121    354.67458   -5086.7956    665.53257 
   86800    225.26782   -15.649842    1364565.3   -4737.0935    347.82693   -5084.9204   -1510.5914 
   87000     224.4446   -5.0286424    1364565.3   -4742.9341    346.55584   -5089.4899   -485.38664 
   87200    229.45719   -10.001374    1364565.3    -4748.682    354.29558   -5102.9776   -965.37656 
   87400    230.39151    8.3592117    1364565.3   -4753.6879    355.73822   -5109.4261    806.86781 
   87600    221.37123   -3.2238709    1364565.3   -4758.3392    341.81038   -5100.1495   -311.18217 
   87800    224.32314   -6.3738004    1364565.3   -4761.8279    346.36829   -5108.1962    -615.2272 
   88000     221.6017   -4.1253229    1364565.3   -4765.0872    342.16624   -5107.2534   -398.19427 
   88200    219.32836    5.5644373    1364565.3   -4767.2022    338.65606   -5105.8582    537.10391 
   88400    215.79433    6.9375347    1364565.3   -4768.0173     333.1993   -5101.2166    669.64131 
   88600    221.14989   -4.4904142    1364565.3   -4768.2739    341.46861   -5109.7425    -433.4345 
   88800    223.44104    1.2001945    1364565.3   -4768.5105    345.00629   -5113.5168    115.84804 
   89000    232.49201    3.4111594    1364565.3   -4768.4923    358.98152   -5127.4738    329.26008 
   89200    225.58831   -5.5792475    1364565.3   -4769.6346    348.32179   -5117.9564   -538.53346 
   89400    226.05215   -2.4435642    1364565.3   -4771.5732    349.03799   -5120.6112   -235.86354 
   89600    223.33242    -3.203831    1364565.3   -4775.0702    344.83856   -5119.9087   -309.24783 
   89800    230.20933    10.956842    1364565.3   -4779.3429    355.45693   -5134.7998    1057.6025 
   90000    218.25722    12.633205    1364565.3   -4783.5712    337.00216   -5120.5733    1219.4124 
   90200    224.12201   -5.7911797    1364565.3   -4787.3293    346.05774   -5133.3871   -558.99008 
   90400    224.15422    2.7170321    1364565.3   -4789.7292    346.10748   -5135.8367    262.25987 
   90600    219.07891   -8.1166337    1364565.3   -4790.8542    338.27089   -5129.1251   -783.45312 
   90800     225.7577  -0.18584628    1364565.3   -4786.7536    348.58334    -5135.337   -17.938699 
   91000    221.73462   -7.3700035    1364565.3   -4777.7936    342.37147   -5120.1651    -711.3851 
   91200    240.93019   -8.3381834    1364565.3   -4764.7879    372.01057   -5136.7985   -804.83807 
   91400    222.59664  -0.56289575    1364565.3   -4754.3278    343.70248   -5098.0303   -54.333169 
   91600    230.77127   -4.5382856    1364565.3   -4747.8886    356.32459   -5104.2132   -438.05525 
   91800    229.17181    8.9970464    1364565.3   -4744.9882    353.85494   -5098.8431    868.43442 
   92000    228.68629    -8.577741    1364565.3   -4746.0467    353.10526   -5099.1519   -827.96122 
   92200    232.18685    2.8866655    1364565.3   -4750.0585    358.51033   -5108.5688    278.63362 
   92400     223.3474    9.1926443    1364565.3   -4757.8647     344.8617   -5102.7264    887.31438 
   92600    229.20652   -15.634819    1364565.3   -4767.5364    353.90853   -5121.4449   -1509.1414 
   92800    230.25075    7.9449452    1364565.3   -4779.1422    355.52088    -5134.663    766.88099 
   93000    222.30047   -4.3155332    1364565.3   -4787.4669    343.24517    -5130.712   -416.55421 
   93200    218.20348     -8.56349    1364565.3   -4790.7522    336.91918   -5127.6713   -826.58565 
   93400    217.33121    3.0028086    1364565.3   -4791.8196    335.57234    -5127.392    289.84427 
   93600     221.9748   -9.9589624    1364565.3   -4791.0227    342.74233   -5133.7651   -961.28277 
   93800    203.93375   -6.0554751    1364565.3   -4788.5333    314.88587   -5103.4192   -584.50104 
   94000    208.20371    8.6377917    1364565.3   -4785.4514    321.47894   -5106.9303    833.75758 
   94200    225.83922    -13.68366    1364565.3   -4782.9746    348.70921   -5131.6838    -1320.807 
   94400    223.98428   -6.3295189    1364565.3   -4780.7701    345.84508   -5126.6152   -610.95295 
   94600    234.88421   -6.4942553    1364565.3   -4778.5215    362.67523   -5141.1967   -626.85403 
   94800    221.27579   0.18292309    1364565.3   -4776.2283    341.66301   -5117.8913     17.65654 
   95000    222.73594   -1.4010796    1364565.3   -4773.4076    343.91757   -5117.3251   -135.23836 
   95200    231.46601   -11.683469    1364565.3   -4768.5767    357.39732    -5125.974   -1127.7397 
   95400    223.69745   -7.5600921    1364565.3   -4761.1052    345.40219   -5106.5074   -729.73328 
   95600     226.1726    14.136648    1364565.3   -4748.1968    349.22397   -5097.4208    1364.5313 
   95800    225.26291   -16.791778    1364565.3   -4734.1084    347.81937   -5081.9278   -1620.8161 
   96000    244.25663   -8.3896006    1364565.3   -4725.5781     377.1468   -5102.7249   -809.80109 
   96200    228.49348    7.9170452    1364565.3   -4724.7394    352.80756    -5077.547    764.18796 
   96400    236.97281   -6.1333331    1364565.3   -4727.7212    365.90015   -5093.6213   -592.01624 
   96600     226.6138   0.69806072    1364565.3    -4733.478    349.90522   -5083.3832    67.379885 
   96800    225.71302    3.9554398    1364565.3   -4740.7124    348.51436   -5089.2268    381.79641 
   97000    220.19255    3.1545196    1364565.3   -4748.0756    339.99043   -5088.0661    304.48808 
   97200    224.45689   -5.4394991    1364565.3   -4751.7025    346.57482   -5098.2773   -525.04434 
   97400    212.12877     1.100249    1364565.3   -4754.0477    327.53947   -5081.5871    106.20086 
   97600     218.6757   -2.7247719    1364565.3   -4754.7883    337.64831   -5092.4367   -263.00695 
   97800    215.59871   -9.6955992    1364565.3   -4753.4696    332.89726   -5086.3669    -935.8618 
   98000    220.38938    1.9270844    1364565.3   -4751.7834    340.29433   -5092.0777    186.01065 
   98200    221.43116   -12.491093    1364565.3   -4751.3041     341.9029    -5093.207   -1205.6952 
   98400    228.95066   -1.5674399    1364565.3   -4752.2553    353.51347   -5105.7687   -151.29618 
   98600    220.28499    9.6536964    1364565.3   -4755.3174    340.13316   -5095.4505    931.81716 
   98800    231.51375   -14.503246    1364565.3   -4762.2727    357.47104   -5119.7437    -1399.917 
   99000    217.04677   -2.2672521    1364565.3   -4775.3657    335.13315   -5110.4988   -218.84513 
   99200    206.98717   -2.6736973    1364565.3   -4788.6776    319.60053   -5108.2781     -258.077 
   99400    209.61065   -1.2645603    1364565.3    -4796.022    323.65133   -5119.6734   -122.06091 
   99600    210.66968    2.1404649    1364565.3   -4798.7601    325.28654   -5124.0466    206.60707 
   99800    215.90996   -1.4915006    1364565.3   -4796.6383    333.37785   -5130.0162   -143.96618 
  100000    209.62132   -8.8337459    1364565.3   -4790.7861    323.66782   -5114.4539   -852.67194 
  100200    219.77818   -1.4468655    1364565.3    -4780.193    339.35061   -5119.5437   -139.65781 
  100400    223.19397   -2.4676523    1364565.3   -4768.6485     344.6248   -5113.2733   -238.18864 
  100600    234.25485   -2.6044181    1364565.3   -4759.8318    361.70346   -5121.5353   -251.38987 
  100800    220.63812   -6.2382024    1364565.3   -4754.6441     340.6784   -5095.3225   -602.13868 
  101000    218.20266    3.8602366    1364565.3   -4750.9719    336.91792   -5087.8898    372.60698 
  101200    219.63903   -8.3388545    1364565.3   -4747.6107    339.13576   -5086.7464   -804.90285 
  101400    237.79996    4.3319933    1364565.3   -4745.0128    367.17732   -5112.1901    418.14302 
  101600    229.46126    3.3981789    1364565.3   -4745.1661    354.30186   -5099.4679    328.00715 
  101800    226.96037   -2.5465787    1364565.3   -4748.3297    350.44034     -5098.77   -245.80696 
  102000    210.94983   -1.1627073    1364565.3   -4752.8543    325.71911   -5078.5734   -112.22961 
  102200    215.03898   -5.7396911    1364565.3   -4756.6513    332.03301   -5088.6843   -554.02018 
  102400    223.74041   -7.2270725    1364565.3   -4760.9774    345.46853   -5106.4459   -697.58877 
  102600    216.62159   -4.4525455    1364565.3   -4766.3465    334.47665   -5100.8232   -429.77924 
  102800    215.53242  -0.79466651    1364565.3   -4771.7208    332.79491   -5104.5157     -76.7047 
  103000    215.73885    8.1569304    1364565.3   -4777.6485    333.11364   -5110.7621    787.34274 
  103200    203.79557   -17.937328    1364565.3   -4782.2611     314.6725   -5096.9336   -1731.3896 
  103400    219.12999    3.2749077    1364565.3   -4782.0759    338.34976   -5120.4256    316.10847 
  103600    220.49022   -2.6029089    1364565.3   -4775.3392    340.45005   -5115.7892   -251.24419 
  103800     215.5816   -2.5102499    1364565.3   -4762.5967    332.87084   -5095.4675   -242.30034 
  104000    225.85995 -0.083829513    1364565.3   -4749.4923    348.74122   -5098.2335   -8.0915926 
  104200    223.52562   0.34067917    1364565.3   -4740.8836    345.13688   -5086.0205    32.883849 
  104400    231.33762   -5.3655388    1364565.3    -4735.919    357.19907   -5093.1181   -517.90536 
  104600    239.22568   -1.4038527    1364565.3   -4733.3714    369.37871   -5102.7501   -135.50602 
  104800    225.38637   -12.941196    1364565.3   -4733.3585    348.00998   -5081.3685   -1249.1411 
  105000    231.65774   -3.6508111    1364565.3   -4733.3581    357.69336   -5091.0515   -352.39231 
  105200    226.45206    1.5866052    1364565.3   -4731.7469    349.65547   -5081.4024     153.1461 
  105400    219.99246   -3.3680713    1364565.3   -4727.5373    339.68146   -5067.2188   -325.10103 
  105600     234.8061   -3.2886092    1364565.3   -4720.1536    362.55461   -5082.7082     -317.431 
  105800    245.70123    -8.404026    1364565.3   -4710.0867    379.37735   -5089.4641   -811.19348 
  106000     242.8671   -1.0918877    1364565.3   -4701.1793    375.00128   -5076.1805   -105.39379 
  106200    224.75146    2.5204688    1364565.3   -4695.2267    347.02965   -5042.2564    243.28671 
  106400    225.41201   -10.842774    1364565.3   -4693.1814    348.04957   -5041.2309   -1046.5922 
  106600    230.43101    6.5513614    1364565.3   -4695.7491    355.79922   -5051.5483    632.36617 
  106800    233.12981    -7.448397    1364565.3   -4703.5474    359.96632   -5063.5138   -718.95198 
  107000    230.29766    10.556349    1364565.3   -4718.7252    355.59332   -5074.3186    1018.9452 
  107200    227.41155   -3.4104874    1364565.3   -4734.1599    351.13699   -5085.2969   -329.19521 
  107400    227.23456     6.654879    1364565.3   -4742.6566    350.86371   -5093.5203    642.35813 
  107600    216.46795   -2.5084478    1364565.3   -4747.2049    334.23942   -5081.4443   -242.12639 
  107800    224.26422   -8.8399569    1364565.3   -4750.4824    346.27732   -5096.7598   -853.27145 
  108000    220.27767    16.151192    1364565.3   -4753.2544    340.12186   -5093.3763    1558.9839 
  108200    231.32614   -5.1523964    1364565.3    -4756.319    357.18134   -5113.5003   -497.33192 
  108400    223.72142    3.5338697    1364565.3   -4759.3951     345.4392   -5104.8343    341.10462 
  108600    217.39387   -1.7722768    1364565.3   -4759.9823    335.66909   -5095.6514   -171.06794 
  108800    221.53337    -10.14689    1364565.3   -4756.7813    342.06074    -5098.842   -979.42241 
  109000    228.33984   0.94068266    1364565.3   -4747.4715    352.57032   -5100.0419     90.79882 
  109200    211.50692   -7.5577338    1364565.3   -4732.5868    326.57929   -5059.1661   -729.50565 
  109400    231.73639   -10.509696    1364565.3   -4720.6705     357.8148   -5078.4853    -1014.442 
  109600    228.41687    12.742286    1364565.3   -4715.4894    352.68926   -5068.1786    1229.9414 
  109800     237.1823   -9.7613972    1364565.3    -4715.009    366.22361   -5081.2327   -942.21291 
  110000    231.95931    1.1400198    1364565.3   -4717.2763    358.15901   -5075.4354    110.03971 
  110200    237.19085    6.9164116    1364565.3   -4721.8312    366.23682    -5088.068    667.60241 
  110400     220.9238   0.99038043    1364565.3   -4729.7563    341.11952   -5070.8758    95.595867 
  110600    227.50315  0.026872265    1364565.3   -4737.2115    351.27842   -5088.4899     2.593829 
  110800    220.51025    4.4726217    1364565.3   -4743.4471    340.48097   -5083.9281    431.71709 
  111000    203.89565   -13.059945    1364565.3   -4747.4279    314.82703    -5062.255   -1260.6033 
  111200    214.60845     6.398508    1364565.3   -4744.4628    331.36825   -5075.8311    617.61208 
  111400    220.25589   -5.8118435    1364565.3   -4730.4781    340.08822   -5070.5663   -560.98465 
  111600    240.62039   -3.6246108    1364565.3   -4711.3661    371.53222   -5082.8983   -349.86334 
  111800     225.2699   -3.4848434    1364565.3   -4703.1143    347.83015   -5050.9445   -336.37239 
  112000    244.32663    -7.576941    1364565.3   -4702.2158    377.25487   -5079.4707   -731.35961 
  112200    246.42066   -1.0802025    1364565.3   -4707.4324    380.48819   -5087.9206   -104.26588 
  112400    226.39269    1.5302622    1364565.3   -4717.9934     349.5638   -5067.5572    147.70763 
  112600    228.75983    5.8538508    1364565.3   -4728.5277    353.21881   -5081.7465    565.03938 
  112800    215.44752   -5.8340772    1364565.3   -4736.9553    332.66382   -5069.6191   -563.13075 
  113000    232.81372   -3.8306851    1364565.3   -4741.7019    359.47825   -5101.1801   -369.75454 
  113200     228.1296   -11.368724    1364565.3    -4746.054    352.24569   -5098.2997   -1097.3592 
  113400    225.51631   -5.0749761    1364565.3   -4749.1023    348.21063   -5097.3129   -489.85898 
  113600    222.19456    1.9409479    1364565.3   -4751.7149    343.08165   -5094.7966    187.34882 
  113800    232.31224   -8.9697183    1364565.3   -4754.0635    358.70395   -5112.7675   -865.79659 
  114000     220.5508   -8.2587114    1364565.3   -4756.9567    340.54358   -5097.5003   -797.16708 
  114200    213.33269    3.6252799    1364565.3   -4759.3339    329.39838   -5088.7323    349.92793 
  114400    230.03598   -12.409304    1364565.3   -4760.7256    355.18926   -5115.9149   -1197.8005 
  114600    211.10594    3.8081119    1364565.3   -4760.7755    325.96016   -5086.7356    367.57568 
  114800    219.43921    -1.224805    1364565.3   -4756.5163    338.82722   -5095.3435   -118.22355 
  115000     231.3501  -0.27199908    1364565.3    -4749.144    357.21835   -5106.3623   -26.254545 
  115200    221.42067     4.095978    1364565.3   -4739.9839    341.88672   -5081.8707    395.36178 
  115400    229.80245   0.11256063    1364565.3   -4729.6766    354.82869   -5084.5053    10.864847 
  115600    229.18132   -8.4345182    1364565.3   -4721.5598    353.86962   -5075.4295   -814.13672 
  115800    229.70176   -16.045656    1364565.3   -4716.9415     354.6732   -5071.6147   -1548.7972 
  116000     234.1381   0.39143565    1364565.3   -4714.7998    361.52318    -5076.323    37.783088 
  116200     232.7452   -8.6402462    1364565.3   -4717.6496    359.37246    -5077.022    -833.9945 
  116400     228.7979     -2.65123    1364565.3   -4724.4953     353.2776   -5077.7729   -255.90836 
  116600    221.13835   -10.563579    1364565.3   -4734.9236     341.4508   -5076.3744    -1019.643 
  116800    226.29213     12.30672    1364565.3   -4746.8527    349.40854   -5096.2613    1187.8986 
  117000    214.50424   -12.049315    1364565.3   -4754.9489    331.20733   -5086.1562   -1163.0527 
  117200    218.79572    14.691124    1364565.3   -4757.1497    337.83364   -5094.9833    1418.0518 
  117400    222.84069   -10.682633    1364565.3   -4757.3917    344.07931    -5101.471   -1031.1346 
  117600    223.78493    1.9673532    1364565.3   -4755.8733    345.53728   -5101.4106    189.89757 
  117800    229.64092    -3.766621    1364565.3   -4752.8884    354.57927   -5107.4677    -363.5708 
  118000     232.0261   -4.3394034    1364565.3   -4750.7856    358.26212   -5109.0477   -418.85826 
  118200    219.25404    6.0951663    1364565.3   -4749.1828     338.5413   -5087.7241    588.33221 
  118400    234.59364  -0.59294765    1364565.3   -4746.8856    362.22656   -5109.1122    -57.23391 
  118600    223.45418    1.7955254    1364565.3   -4746.9981    345.02658   -5092.0247      173.312 
  118800    227.26891    -3.534643    1364565.3   -4747.4956    350.91675   -5098.4123   -341.17926 
  119000    227.10715   -3.0279579    1364565.3   -4749.1566    350.66698   -5099.8236   -292.27179 
  119200    230.89366    1.6030662    1364565.3   -4751.0106    356.51357   -5107.5242    154.73499 
  119400    215.84387    1.6018644    1364565.3   -4754.5733     333.2758   -5087.8491    154.61899 
  119600    225.88299   -1.8655367    1364565.3   -4760.5268     348.7768   -5109.3036   -180.06979 
  119800     220.4749    6.6865844    1364565.3   -4769.7087    340.42639   -5110.1351    645.41848 
  120000    220.98549   -3.8358515    1364565.3   -4777.3204    341.21477   -5118.5352   -370.25322 
  120200    220.87062     5.553886    1364565.3   -4781.8038    341.03741   -5122.8412    536.08546 
  120400    214.27794    7.7491733    1364565.3   -4782.0544    330.85791   -5112.9123    747.98423 
  120600    218.97885   -10.627877    1364565.3   -4777.8693    338.11639   -5115.9857   -1025.8494 
  120800    216.81621    4.8816722    1364565.3   -4770.5613    334.77715   -5105.3384    471.20043 
  121000    223.66248   0.82315703    1364565.3   -4760.8617     345.3482   -5106.2099     79.45473 
  121200    232.99463    -16.59258    1364565.3   -4750.3785     359.7576   -5110.1361   -1601.5887 
  121400    222.95055    7.0724203    1364565.3   -4743.3099    344.24894   -5087.5588    682.66106 
  121600    221.42738   -10.137516    1364565.3   -4738.0505    341.89707   -5079.9476   -978.51753 
  121800     228.1053   -4.4733126    1364565.3   -4733.2973    352.20818   -5085.5055   -431.78377 
  122000    237.99086   -1.8257059    1364565.3   -4729.0228    367.47207   -5096.4948   -176.22515 
  122200     236.5335  -0.25126483    1364565.3    -4725.796    365.22182   -5091.0178   -24.253185 
  122400    220.78299    -9.935102    1364565.3    -4722.866    340.90209   -5063.7681   -958.97966 
  122600    228.43418    1.6884165    1364565.3    -4716.327    352.71599    -5069.043    162.97337 
  122800    231.96746    3.8908998    1364565.3   -4699.5734    358.17158   -5057.7449    375.56673 
  123000      232.425   -2.5817121    1364565.3    -4682.942    358.87806   -5041.8201   -249.19818 
  123200    230.14293   -1.9538276    1364565.3   -4676.5839     355.3544   -5031.9383   -188.59202 
  123400    238.31229   -8.1299484    1364565.3    -4677.073    367.96838   -5045.0413   -784.73831 
  123600    239.52267     11.78254    1364565.3   -4684.7543    369.83727   -5054.5916    1137.3025 
  123800    220.89519   -9.9984642    1364565.3   -4697.4238    341.07534   -5038.4991   -965.09566 
  124000    229.79017    4.9926061    1364565.3   -4708.5934    354.80972   -5063.4031    481.90826 
  124200    232.66878    7.0762134    1364565.3   -4717.0547    359.25446   -5076.3092    683.02718 
  124400    233.84126    6.5020556    1364565.3   -4722.5387    361.06485   -5083.6035    627.60695 
  124600    228.80089   -7.4563546    1364565.3   -4727.7977    353.28221   -5081.0799   -719.72008 
  124800    219.40259   -1.1260399    1364565.3   -4733.5132    338.77068   -5072.2839   -108.69031 
  125000    231.06063   -8.5683967    1364565.3   -4738.5678    356.77138   -5095.3392   -827.05927 
  125200    229.28589   -5.5981157    1364565.3   -4744.6066    354.03107   -5098.6377   -540.35471 
  125400    226.25428    2.6487715    1364565.3   -4750.9563    349.35009   -5100.3064    255.67105 
  125600    214.66876   -16.669636    1364565.3   -4755.8725    331.46136   -5087.3339   -1609.0265 
  125800    217.37388    1.3149646    1364565.3   -4757.2807    335.63823   -5092.9189    126.92615 
  126000    201.62493   -15.573938    1364565.3   -4752.0248    311.32092   -5063.3457   -1503.2649 
  126200    231.62136    9.8974276    1364565.3   -4731.2084    357.63719   -5088.8456    955.34316 
  126400    237.40285    -5.589317    1364565.3   -4714.3574    366.56416   -5080.9216   -539.50541 
  126600    217.45292    2.2500313    1364565.3   -4707.8715    335.76027   -5043.6318     217.1829 
  126800    235.12272   -6.9317099    1364565.3   -4706.0707    363.04349   -5069.1142   -669.07907 
  127000    238.54249  -0.97131995    1364565.3   -4708.6562    368.32383   -5076.9801   -93.756065 
  127200    224.27705     -4.16923    1364565.3   -4714.0317    346.29713   -5060.3288   -402.43239 
  127400    225.81651    -3.776052    1364565.3   -4722.3675    348.67414   -5071.0416   -364.48111 
  127600    216.23661   -5.7103807    1364565.3   -4730.7292    333.88221   -5064.6114   -551.19102 
  127800    223.52058    8.3062887    1364565.3   -4737.6493     345.1291   -5082.7784    801.75945 
  128000    212.43377   -6.2097471    1364565.3   -4741.4697    328.01041   -5069.4801   -599.39206 
  128200    217.86808     6.794995    1364565.3   -4741.6565     336.4013   -5078.0578    655.88275 
  128400    222.41173  -0.32470369    1364565.3   -4738.7301    343.41697   -5082.1471   -31.341826 
  128600    236.14413   0.17156067    1364565.3   -4730.7899    364.62061   -5095.4105    16.559789 
  128800    220.26339    8.6877293    1364565.3   -4716.0293     340.0998   -5056.1291    838.57777 
  129000    224.68276   -2.5637848    1364565.3   -4701.9438    346.92358   -5048.8674   -247.46777 
  129200     236.8629   -1.5381342    1364565.3   -4694.4007    365.73044   -5060.1311   -148.46747 
  129400    228.31552     3.380484    1364565.3   -4691.9361    352.53277   -5044.4688    326.29916 
  129600    235.21841      4.12748    1364565.3   -4693.0503    363.19125   -5056.2415    398.40249 
  129800    222.38724   -17.157334    1364565.3   -4696.0333    343.37915   -5039.4125   -1656.1012 
  130000     217.4799  -0.55715281    1364565.3   -4699.5514    335.80194   -5035.3534   -53.778835 
  130200    221.54135    1.3764529    1364565.3   -4704.4729    342.07305    -5046.546    132.86128 
  130400    238.80763   -7.0020983    1364565.3   -4710.4124    368.73322   -5079.1456   -675.87327 
  130600    226.97179   -3.2044007    1364565.3   -4717.2372    350.45797   -5067.6952   -309.30283 
  130800    224.91802    5.1238258    1364565.3   -4723.3778    347.28683   -5070.6646    494.57416 
  131000    216.61705    3.3696827    1364565.3   -4729.6104    334.46964     -5064.08    325.25657 
  131200    215.09852   -5.4818611    1364565.3   -4736.3045    332.12493   -5068.4295    -529.1333 
  131400    211.68783     2.044596    1364565.3   -4742.5949    326.85863   -5069.4535    197.35338 
  131600    215.53357  -0.20415963    1364565.3   -4747.1481    332.79668   -5079.9448   -19.706384 
  131800    216.40626   -5.9638309    1364565.3   -4748.8909    334.14417   -5083.0351   -575.65514 
  132000    220.90967    2.1158429    1364565.3   -4744.3823     341.0977     -5085.48    204.23044 
  132200    217.08922   -1.9707752    1364565.3   -4734.9415    335.19869   -5070.1402   -190.22788 
  132400    215.54258     2.535776    1364565.3   -4723.0994    332.81059     -5055.91    244.76423 
  132600    231.57333   -5.4486765    1364565.3   -4712.9041    357.56302   -5070.4672   -525.93018 
  132800    228.07609   -4.4514541    1364565.3   -4706.4454    352.16308   -5058.6085   -429.67389 
  133000    226.29932   -9.0377094    1364565.3    -4705.529    349.41963   -5054.9486   -872.35939 
  133200    228.79833   -2.5678115    1364565.3   -4707.1364    353.27826   -5060.4147   -247.85644 
  133400    221.66142   -13.353117    1364565.3   -4710.9811    342.25844   -5053.2396   -1288.9014 
  133600    232.39153      1.73342    1364565.3   -4717.3885    358.82637   -5076.2149     167.3173 
  133800    226.76049 -0.056705419    1364565.3   -4727.0548    350.13171   -5077.1865    -5.473456 
  134000    228.66552   -5.1429907    1364565.3   -4736.7261    353.07319   -5089.7993   -496.42404 
  134200    220.55567    12.638606    1364565.3   -4743.6869     340.5511    -5084.238    1219.9338 
  134400    215.27788    1.6734758    1364565.3   -4745.7542    332.40188   -5078.1561    161.53123 
  134600    224.41493   -4.2625442    1364565.3    -4744.484    346.51003    -5090.994   -411.43948 
  134800    228.24995   -3.1931408    1364565.3   -4742.5779    352.43153   -5095.0094   -308.21597 
  135000    221.58605   -1.7793175    1364565.3    -4740.243    342.14206   -5082.3851   -171.74754 
  135200    227.09332   -11.042805    1364565.3   -4739.7853    350.64561   -5090.4309      -1065.9 
  135400    223.70874    3.7161147    1364565.3   -4739.8362    345.41964   -5085.2559    358.69571 
  135600    227.39037   -6.7995903    1364565.3   -4740.4841    351.10428   -5091.5884   -656.32631 
  135800    224.10002    1.5558611    1364565.3    -4741.684    346.02379   -5087.7078    150.17855 
  136000    232.42865    3.7068321    1364565.3   -4742.9533     358.8837    -5101.837    357.79971 
  136200    229.89727   -5.2706426    1364565.3   -4745.8999    354.97509    -5100.875   -508.74556 
  136400    214.78277    3.2944269    1364565.3   -4753.0039     331.6374   -5084.6414    317.99255 
  136600    229.60332   -5.5928644    1364565.3   -4762.7114    354.52122   -5117.2326   -539.84782 
  136800    223.71367   -1.5711198    1364565.3    -4772.565    345.42724   -5117.9922   -151.65138 
  137000     218.8715   -7.5709741    1364565.3   -4779.4646    337.95064   -5117.4152   -730.78366 
  137200    223.07044    2.0898849    1364565.3   -4782.4234    344.43406   -5126.8574    201.72486 
  137400    226.55825   -14.377524    1364565.3    -4781.792    349.81944   -5131.6114   -1387.7818 
  137600    221.90033   -4.1893562    1364565.3   -4777.9454    342.62734   -5120.5728   -404.37505 
  137800    213.73028   -10.881956    1364565.3   -4768.6353    330.01229   -5098.6476   -1050.3742 
  138000    215.42829   -1.4946286    1364565.3    -4751.539    332.63412   -5084.1731   -144.26811 
  138200    219.81513     0.641899    1364565.3   -4738.3093    339.40767    -5077.717     61.95891 
  138400    224.74808   -3.8308794    1364565.3   -4732.4085    347.02444    -5079.433    -369.7733 
  138600    224.90881    18.177432    1364565.3   -4729.2366    347.27261   -5076.5092    1754.5655 
  138800    222.90419   -10.774274    1364565.3   -4727.7448    344.17736   -5071.9222   -1039.9802 
  139000    231.59555   -6.5878823    1364565.3   -4727.1275    357.59733   -5084.7248   -635.89132 
  139200    220.77955   -7.7140433    1364565.3   -4727.5702    340.89678    -5068.467   -744.59333 
  139400    225.84996      7.00409    1364565.3    -4728.936    348.72581   -5077.6618    676.06552 
  139600    215.98628   -2.1127796    1364565.3   -4732.3496    333.49569   -5065.8453   -203.93476 
  139800    219.94103   -3.5186401    1364565.3   -4738.3007    339.60206   -5077.9028   -339.63459 
  140000    221.63769  -0.92433426    1364565.3   -4747.2625     342.2218   -5089.4843   -89.220801 
  140200    225.24095    1.7334791    1364565.3   -4756.7695    347.78544    -5104.555    167.32301 
  140400    225.27477   -9.5556564    1364565.3   -4765.2869    347.83767   -5113.1246    -922.3539 
  140600    222.57043    3.0661912    1364565.3   -4771.9339    343.66201   -5115.5959    295.96223 
  140800    232.36774  -0.96454661    1364565.3    -4776.523    358.78964   -5135.3126   -93.102273 
  141000    212.77732   -14.073427    1364565.3   -4779.1235    328.54086   -5107.6644    -1358.429 
  141200    222.18564    15.548255    1364565.3   -4777.8833    343.06787   -5120.9512    1500.7859 
  141400    218.69843   -6.7555855    1364565.3   -4769.6851    337.68341   -5107.3685   -652.07877 
  141600    224.92741   -8.8622971    1364565.3    -4751.983    347.30133   -5099.2843   -855.42782 
  141800    218.27273 -0.038955088    1364565.3   -4737.6586    337.02611   -5074.6847   -3.7601161 
  142000     224.6705   -7.5183506    1364565.3   -4730.2912    346.90464   -5077.1958   -725.70421 
  142200    233.13205    20.707402    1364565.3   -4728.3976    359.96979   -5088.3674    1998.7693 
  142400    225.05378   -13.692891    1364565.3   -4731.1464    347.49645   -5078.6429    -1321.698 
  142600     213.0824   -11.637551    1364565.3   -4735.8056    329.01193   -5064.8175   -1123.3075 
  142800    214.41918  -0.13744826    1364565.3   -4740.9833      331.076   -5072.0593   -13.267109 
  143000    219.10863   -2.4910636    1364565.3   -4745.1545    338.31679   -5083.4712   -240.44839 
  143200    228.95311   -1.5737483    1364565.3   -4747.1171    353.51724   -5100.6343    -151.9051 
  143400    222.65855   -7.6060233    1364565.3   -4747.0038    343.79808   -5090.8018   -734.16676 
  143600    230.94509    20.527696    1364565.3     -4744.34    356.59299    -5100.933    1981.4233 
  143800    227.54444   -18.921434    1364565.3   -4741.1961    351.34218   -5092.5383   -1826.3799 
  144000    220.77547    5.0446719    1364565.3   -4737.6082    340.89048   -5078.4987    486.93387 
  144200    233.84876     9.936337    1364565.3   -4735.7187    361.07642   -5096.7951    959.09887 
  144400    239.90888    -1.100356    1364565.3   -4737.8856    370.43361   -5108.3192   -106.21119 
  144600    232.08938   -10.942529    1364565.3   -4746.9413    358.35984   -5105.3012    -1056.221 
  144800    224.68214  -0.60493542    1364565.3   -4758.8472    346.92262   -5105.7698   -58.391023 
  145000    232.13464  -0.11430053    1364565.3   -4768.8038    358.42971   -5127.2336   -11.032789 
  145200    221.63951   -5.4611056    1364565.3   -4776.6219    342.22461   -5118.8465   -527.12989 
  145400    223.56355    6.9546785    1364565.3   -4780.5833    345.19544   -5125.7788     671.2961 
  145600    226.06536    -2.988077    1364565.3   -4779.0938     349.0584   -5128.1522   -288.42231 
  145800    214.32622    11.661128    1364565.3   -4775.2267    330.93245   -5106.1591    1125.5833 
  146000    215.01238   -2.1952602    1364565.3   -4768.9772    331.99193   -5100.9691   -211.89615 
  146200    228.26153   -4.2590078    1364565.3   -4758.6242    352.44941   -5111.0736   -411.09813 
  146400    221.15801   -12.741187    1364565.3   -4748.4321    341.48115   -5089.9133   -1229.8353 
  146600    229.10282   0.93261678    1364565.3   -4741.8798    353.74841   -5095.6282    90.020266 
  146800    225.14318   -5.5548345    1364565.3   -4739.8001    347.63449   -5087.4346   -536.17701 
  147000    219.97314    5.9325734    1364565.3   -4739.2542    339.65164   -5078.9058    572.63803 
  147200    224.04264    8.6444414    1364565.3   -4739.7528    345.93519    -5085.688    834.39944 
  147400    232.46821   -6.4442145    1364565.3   -4739.7587    358.94477   -5098.7035   -622.02387 
  147600    218.69283    2.8505925    1364565.3   -4739.9187    337.67476   -5077.5934    275.15171 
  147800    230.85608  -0.71944444    1364565.3   -4738.5885    356.45555   -5095.0441   -69.443936 
  148000    227.08014    -1.922532    1364565.3   -4735.9158    350.62527    -5086.541   -185.57123 
  148200    235.11795   -8.2137418    1364565.3   -4730.9318    363.03613   -5093.9679   -792.82642 
  148400    228.04397     11.95954    1364565.3   -4724.5964    352.11349   -5076.7099    1154.3873 
  148600    226.73789   -16.442463    1364565.3   -4717.5696    350.09682   -5067.6665   -1587.0987 
  148800    226.52162   -3.0057164    1364565.3   -4710.6956    349.76288   -5060.4585   -290.12495 
  149000    237.78388    8.2380462    1364565.3   -4704.4799    367.15249   -5071.6324    795.17239 
  149200    230.37522   -23.255407    1364565.3   -4701.9494    355.71306   -5057.6624    -2244.714 
  149400    229.42361    5.2437107    1364565.3   -4703.9589    354.24373   -5058.2026    506.14598 
  149600    234.30746   -6.7951654    1364565.3   -4710.9878    361.78468   -5072.7725    -655.8992 
  149800    209.27809    2.2670179    1364565.3   -4720.7739    323.13785   -5043.9118    218.82252 
  150000    227.10316    6.9837789    1364565.3    -4730.263    350.66081   -5080.9238      674.105 
  150200    208.61945   -5.9902242    1364565.3    -4738.543    322.12086   -5060.6639   -578.20274 
  150400    207.34111    4.7435522    1364565.3   -4743.7899    320.14703    -5063.937    457.86848 
  150600    222.99439   -5.4760583    1364565.3   -4747.0488    344.31664   -5091.3654   -528.57319 
  150800    212.26078   0.21815546    1364565.3   -4748.0198     327.7433   -5075.7631    21.057323 
  151000    223.24674    8.2191864    1364565.3   -4743.4816    344.70627   -5088.1878    793.35196 
  151200    222.93717    3.2821028    1364565.3   -4729.0676    344.22827   -5073.2959    316.80297 
  151400    242.84433      4.24548    1364565.3   -4710.3807    374.96612   -5085.3468    409.79237 
  151600    243.00055   -1.0308106    1364565.3   -4701.7369    375.20733   -5076.9443   -99.498368 
  151800    233.27232   0.57653837    1364565.3   -4701.2616    360.18637    -5061.448    55.650015 
  152000     221.4742    1.0014439    1364565.3   -4705.5462    341.96936   -5047.5156     96.66376 
  152200    226.12003   -8.7839051    1364565.3   -4713.6342     349.1428    -5062.777   -847.86108 
  152400    220.83181     1.223533    1364565.3   -4723.7117    340.97748   -5064.6892    118.10078 
  152600     223.2919   -14.813663    1364565.3   -4732.7787    344.77601   -5077.5547   -1429.8798 
  152800    235.13004    1.8244406    1364565.3   -4740.2405    363.05479   -5103.2953    176.10302 
  153000    221.32661    7.0406076    1364565.3    -4747.165    341.74148   -5088.9065    679.59036 
  153200    232.82442   -5.0597597    1364565.3   -4751.3991    359.49479   -5110.8939   -488.39021 
  153400    220.25765  -0.41414834    1364565.3   -4752.8023    340.09093   -5092.8932   -39.975416 
  153600    220.15614    3.0740293    1364565.3   -4753.2372    339.93421   -5093.1715     296.7188 
  153800    216.51383   -10.555585    1364565.3   -4751.6451    334.31026   -5085.9553   -1018.8714 
  154000    225.33082    2.9825511    1364565.3   -4747.1348    347.92421    -5095.059    287.88892 
  154200    223.79802    8.2777265    1364565.3    -4741.393    345.55749   -5086.9505     799.0025 
  154400    236.78177  -0.21546008    1364565.3   -4731.5833    365.60517   -5097.1884   -20.797153 
  154600    237.54836    2.8431627    1364565.3     -4716.89    366.78883   -5083.6788    274.43455 
  154800    230.47924   -2.1991527    1364565.3   -4701.5824    355.87369    -5057.456   -212.27187 
  155000    221.52594 -0.033400104    1364565.3   -4692.2904    342.04926   -5034.3397   -3.2239247 
[...]
 2463200    240.97306     4.424482    1364565.3   -4697.4624    372.07677   -5069.5392    427.07043 
 2463400    225.05033   -1.2939362    1364565.3   -4703.0444    347.49112   -5050.5355   -124.89641 
 2463600    235.68995    5.5305074    1364565.3   -4712.4997    363.91934   -5076.4191    533.82886 
 2463800    221.80665    -9.250824    1364565.3   -4722.6788    342.48268   -5065.1614   -892.93014 
 2464000     211.6352   -2.9479433    1364565.3   -4727.9602    326.77737   -5054.7375   -284.54843 
 2464200    221.52332    12.325008    1364565.3   -4728.9384    342.04521   -5070.9836    1189.6639 
 2464400    225.84272   -3.8123455    1364565.3     -4729.09    348.71463   -5077.8047   -367.98432 
 2464600    228.85751   -1.6268645    1364565.3   -4729.3755    353.36963   -5082.7452   -157.03211 
 2464800    241.41775    2.3347739    1364565.3   -4731.4859     372.7634   -5104.2493    225.36263 
 2465000    227.28022   -3.9394269    1364565.3   -4737.1182     350.9342   -5088.0524   -380.25078 
 2465200    227.63036    2.9328561    1364565.3   -4744.9038    351.47484   -5096.3786    283.09214 
 2465400    226.68915   -12.116033    1364565.3   -4753.5989    350.02156   -5103.6204   -1169.4927 
 2465600     235.9724    3.0808164    1364565.3   -4759.6299    364.35545   -5123.9853    297.37392 
 2465800    221.88273   -17.325817    1364565.3   -4762.6486    342.60017   -5105.2488   -1672.3639 
 2466000    227.19392    6.3726638    1364565.3   -4763.4631    350.80096   -5114.2641    615.11748 
 2466200    219.36966   -10.106932    1364565.3   -4764.4524    338.71983   -5103.1722   -975.56546 
 2466400    220.43952    2.8412126    1364565.3   -4764.5967    340.37176   -5104.9685    274.24632 
 2466600    211.15154   -7.7055701    1364565.3   -4764.3662    326.03057   -5090.3968   -743.77545 
 2466800    210.96086   -1.1034816    1364565.3    -4762.272    325.73613   -5088.0081   -106.51289 
 2467000    212.75395    9.0601323    1364565.3   -4758.3196    328.50477   -5086.8243    874.52375 
 2467200    232.93223    -10.00949    1364565.3   -4752.2679    359.66124   -5111.9291    -966.1599 
 2467400    229.57504   -1.6560485    1364565.3   -4746.1938    354.47755   -5100.6714   -159.84907 
 2467600    223.51823    12.479796    1364565.3   -4741.6088    345.12546   -5086.7343    1204.6047 
 2467800    224.09901     -8.56239    1364565.3   -4738.0018    346.02222    -5084.024   -826.47947 
 2468000    223.78372   -17.378451    1364565.3   -4736.5683    345.53541   -5082.1037   -1677.4443 
 2468200    234.74891  -0.26345628    1364565.3   -4737.8532    362.46632   -5100.3195   -25.429957 
 2468400    220.44237   -5.2627268    1364565.3   -4745.9046    340.37616   -5086.2807    -507.9815 
 2468600    217.38339    1.5934233    1364565.3   -4758.7424     335.6529   -5094.3953    153.80422 
 2468800    224.71872    2.9001704    1364565.3   -4768.7896     346.9791   -5115.7687    279.93718 
 2469000    226.75653   -16.310143    1364565.3   -4775.4095    350.12559    -5125.535   -1574.3266 
 2469200    208.08144    -4.020357    1364565.3   -4778.8351    321.29014   -5100.1253   -388.06251 
 2469400    221.87492   -4.5237925    1364565.3    -4777.732     342.5881   -5120.3201   -436.65632 
 2469600    216.10583   -2.7826307    1364565.3    -4773.336    333.68028   -5107.0163   -268.59173 
 2469800     226.8585    6.6826471    1364565.3   -4764.8442    350.28305   -5115.1273    645.03844 
 2470000    213.15667   -6.9610284    1364565.3   -4755.3145    329.12661   -5084.4411   -671.90903 
 2470200    226.50839    3.1196521    1364565.3   -4747.1546    349.74245    -5096.897    301.12251 
 2470400    212.19106    4.3339819    1364565.3   -4742.5891    327.63564   -5070.2247    418.33496 
 2470600    225.75614  -0.26672767    1364565.3   -4738.2219    348.58094   -5086.8029   -25.745726 
 2470800    232.24851    6.8486603    1364565.3   -4733.1274    358.60555    -5091.733    661.06276 
 2471000     230.0918   -7.2996412    1364565.3   -4726.7986    355.27545   -5082.0741   -704.59342 
 2471200     227.6179   0.85521544    1364565.3   -4715.8883    351.45561   -5067.3439    82.549149 
 2471400    223.82547   0.58787262    1364565.3   -4698.6489    345.59986   -5044.2488    56.744047 
 2471600     250.2702   -11.504302    1364565.3   -4685.3297    386.43211   -5071.7618   -1110.4457 
 2471800    246.45602    3.5529691    1364565.3   -4684.2585    380.54278   -5064.8013    342.94817 
 2472000    238.45783    4.3302867    1364565.3   -4691.9531     368.1931   -5060.1462    417.97829 
 2472200     230.8355    4.6259241    1364565.3   -4702.9401    356.42377   -5059.3639     446.5145 
 2472400    224.66207   -6.4331007    1364565.3   -4714.2762    346.89163   -5061.1678   -620.95112 
 2472600    224.63199   -3.0844492    1364565.3   -4721.6966    346.84518   -5068.5418   -297.72458 
 2472800     236.4789   0.33581048    1364565.3   -4727.8902    365.13752   -5093.0277    32.413901 
 2473000    242.09719    2.5797109    1364565.3   -4735.3092    373.81249   -5109.1217    249.00502 
 2473200    222.66568   -10.654825    1364565.3   -4744.1656    343.80908   -5087.9746   -1028.4505 
 2473400    227.49042  -0.11503537    1364565.3   -4752.2804    351.25877   -5103.5392   -11.103719 
 2473600    212.67707    6.5979884    1364565.3   -4758.1076    328.38607   -5086.4937    636.86681 
 2473800    225.35547    7.3326399    1364565.3   -4761.0113    347.96229   -5108.9736    707.77859 
 2474000    228.47894    6.7369052    1364565.3   -4762.4658    352.78511   -5115.2509    650.27566 
 2474200     223.7794   -9.0226381    1364565.3   -4761.5056    345.52873   -5107.0343   -870.90464 
 2474400    224.79403      10.9869    1364565.3   -4758.0853    347.09538   -5105.1806    1060.5038 
 2474600    224.77965   -8.6773598    1364565.3   -4749.2447    347.07318   -5096.3179   -837.57686 
 2474800    220.66361    0.1794451    1364565.3   -4734.0328    340.71776   -5074.7505    17.320829 
 2475000    226.69959   -9.5805057    1364565.3   -4719.8703    350.03767    -5069.908   -924.75247 
 2475200    243.53447    4.5741127    1364565.3     -4712.75    376.03173   -5088.7817    441.51344 
 2475400    229.52637    7.0969285    1364565.3   -4714.5203    354.40239   -5068.9227    685.02669 
 2475600    232.49651    7.6486721    1364565.3    -4720.397    358.98847   -5079.3855    738.28341 
 2475800    226.00981    6.4486724    1364565.3   -4728.2216    348.97263   -5077.1942    622.45417 
 2476000    233.63948   -16.555315    1364565.3   -4735.8004    360.75328   -5096.5536   -1597.9916 
 2476200    220.61175   -5.0519152    1364565.3   -4741.4353     340.6377    -5082.073   -487.63303 
 2476400     235.0747   -2.1133602    1364565.3   -4746.1855    362.96935   -5109.1548    -203.9908 
 2476600    214.29081   -4.5716664    1364565.3   -4748.6521    330.87778   -5079.5299   -441.27731 
 2476800    216.03229   -11.000125    1364565.3    -4748.402    333.56673   -5081.9687   -1061.7803 
 2477000    221.56104   -6.2080902    1364565.3   -4745.4056    342.10346   -5087.5091   -599.23213 
 2477200    233.38383   -3.6579418    1364565.3    -4742.058    360.35854   -5102.4165    -353.0806 
 2477400    236.06817   -5.6991009    1364565.3   -4739.7256    364.50333    -5104.229   -550.10223 
 2477600    229.34797   -5.2691011    1364565.3   -4738.5228    354.12693   -5092.6497   -508.59677 
 2477800    230.08813   -5.4330725    1364565.3   -4738.2698    355.26979   -5093.5396   -524.42401 
 2478000    237.73944   -6.9705353    1364565.3   -4740.9686    367.08386   -5108.0525   -672.82667 
 2478200    216.67979  -0.37995272    1364565.3   -4756.5381    334.56651   -5091.1046   -36.674705 
 2478400    220.51424    1.4397083    1364565.3   -4776.4642    340.48712   -5116.9513    138.96697 
 2478600    225.24949   -1.8234889    1364565.3   -4785.6473    347.79863    -5133.446   -176.01116 
 2478800    207.99638    13.920004    1364565.3   -4789.6024     321.1588   -5110.7612    1343.6199 
 2479000    210.33165   -3.8179418    1364565.3   -4788.5603     324.7646   -5113.3249    -368.5245 
 2479200    217.47311    4.5585161    1364565.3   -4781.1998    335.79145   -5116.9912    440.00799 
 2479400    223.46861    1.6052891    1364565.3   -4770.8377    345.04885   -5115.8866    154.94955 
 2479600    220.21791   -8.7547705    1364565.3   -4760.1636    340.02958   -5100.1932   -845.04888 
 2479800    231.04638    4.4295216    1364565.3   -4750.4724    356.74938   -5107.2217    427.55687 
 2480000    219.18073   -15.469715    1364565.3   -4743.6509    338.42811    -5082.079   -1493.2048 
 2480200    230.57456    6.7248579    1364565.3   -4737.7747    356.02086   -5093.7956    649.11281 
 2480400    222.97674    -7.943217    1364565.3   -4732.4741    344.28938   -5076.7635   -766.71418 
 2480600    227.67707    6.6471899    1364565.3   -4728.6508    351.54696   -5080.1977    641.61596 
 2480800    226.55875   0.89907277    1364565.3   -4726.6358    349.82022    -5076.456    86.782451 
 2481000    222.24884   0.41969724    1364565.3   -4728.0171    343.16546   -5071.1825     40.51102 
 2481200    216.63548    11.218924    1364565.3   -4732.6285     334.4981   -5067.1266    1082.8998 
 2481400    219.74026   -8.6470626    1364565.3   -4742.0652    339.29207   -5081.3573   -834.65245 
 2481600    217.10447    12.266229    1364565.3   -4755.3654    335.22225   -5090.5877    1183.9903 
 2481800    210.74344   -8.7749397    1364565.3   -4768.8941    325.40044   -5094.2946    -846.9957 
 2482000    221.84212   -4.0169913    1364565.3   -4775.8495    342.53745    -5118.387   -387.73764 
 2482200     221.3361    8.7815104    1364565.3   -4777.0744    341.75613   -5118.8305    847.62994 
 2482400    220.97289   -8.7628072    1364565.3   -4774.2015    341.19532   -5115.3969   -845.82462 
 2482600    210.63313    17.768747    1364565.3   -4768.0528    325.23011   -5093.2829    1715.1175 
 2482800    220.36775   -1.3156372    1364565.3   -4760.8521    340.26094    -5101.113   -126.99108 
 2483000    209.92751    2.9464476    1364565.3   -4753.8833    324.14059   -5078.0239    284.40406 
 2483200    222.75302  -0.69700883    1364565.3   -4747.6077    343.94394   -5091.5517   -67.278352 
 2483400    227.29339   -7.0081029    1364565.3   -4743.1352    350.95454   -5094.0897   -676.45286 
 2483600    229.43412   -5.3947609    1364565.3   -4739.1718    354.25996   -5093.4317   -520.72601 
 2483800    231.05707   -4.0377331    1364565.3   -4735.1961    356.76588    -5091.962   -389.73973 
 2484000    218.97575   0.98380857    1364565.3    -4732.134    338.11161   -5070.2456    94.961522 
 2484200    233.39769     0.203648    1364565.3   -4728.7079    360.37995   -5089.0879    19.656999 
 2484400    226.77586   -4.8122549    1364565.3   -4725.7123    350.15545   -5075.8678   -464.49997 
 2484600     236.4622  -0.46154565    1364565.3   -4722.0709    365.11173   -5087.1827   -44.550412 
 2484800    238.23059   0.90444466    1364565.3   -4717.2512    367.84223   -5085.0934    87.300969 
 2485000    226.90006     -8.67173    1364565.3    -4713.275    350.34722   -5063.6223   -837.03345 
 2485200    236.85665   -3.1812359    1364565.3   -4709.2785    365.72078   -5074.9993   -307.06685 
 2485400    231.00847   -13.452404    1364565.3   -4707.1246    356.69084   -5063.8155   -1298.4851 
 2485600    234.02144    7.8000564    1364565.3   -4708.7956    361.34306   -5070.1387    752.89569 
 2485800    232.45606   -8.2611398    1364565.3   -4717.4667    358.92601   -5076.3927   -797.40148 
 2486000    235.56623    6.0585047    1364565.3   -4729.7093    363.72831   -5093.4376    584.79347 
 2486200    224.32473   -1.8050035    1364565.3   -4742.0274    346.37076   -5088.3982   -174.22686 
 2486400    227.95148     11.48736    1364565.3   -4749.3512    351.97068   -5101.3218    1108.8104 
 2486600    226.23427   -10.646994    1364565.3    -4752.234     349.3192   -5101.5532   -1027.6946 
 2486800    232.82173    1.8896367    1364565.3   -4754.2604    359.49063    -5113.751    182.39603 
 2487000    220.82435    8.2321657    1364565.3   -4756.1993    340.96596   -5097.1652    794.60477 
 2487200    223.78476    2.9992263    1364565.3   -4758.2031    345.53701   -5103.7402    289.49849 
 2487400     234.6639    5.4040937    1364565.3   -4760.2368    362.33505   -5122.5719    521.62684 
 2487600    221.87223   -8.0776308    1364565.3   -4762.9739    342.58394   -5105.5579   -779.68838 
 2487800    221.02945    3.1844117    1364565.3   -4763.8403    341.28264    -5105.123     307.3734 
 2488000    227.58038     9.624974    1364565.3   -4763.6674    351.39767   -5115.0651    929.04475 
 2488200    221.43148  -0.24630653    1364565.3   -4762.2068    341.90341   -5104.1102   -23.774588 
 2488400     224.2332   -9.3805866    1364565.3   -4758.7371    346.22942   -5104.9665    -905.4554 
 2488600    205.71205   -6.0416514    1364565.3   -4753.7351    317.63167   -5071.3668   -583.16672 
 2488800    225.47213   -2.9708339    1364565.3   -4747.5326    348.14241    -5095.675   -286.75793 
 2489000    233.27383   -3.1539899    1364565.3   -4744.7686     360.1887   -5104.9573   -304.43695 
 2489200    223.29947   -11.602854    1364565.3   -4747.5092    344.78769   -5092.2969   -1119.9584 
 2489400    229.80926    7.8998092    1364565.3   -4753.5034    354.83919   -5108.3426    762.52426 
 2489600    218.15166    1.0037957    1364565.3   -4762.2403    336.83917   -5099.0795    96.890767 
 2489800    215.44652  0.026338225    1364565.3   -4773.1707    332.66228    -5105.833    2.5422811 
 2490000    218.50561    5.4796066    1364565.3   -4781.4219    337.38568   -5118.8076    528.91569 
 2490200    211.82407   -4.3310658    1364565.3   -4785.4244    327.06898   -5112.4934   -418.05348 
 2490400    213.00078  -0.59775017    1364565.3   -4787.1367    328.88591   -5116.0226   -57.697471 
 2490600    230.89325       7.2248    1364565.3   -4785.5464    356.51294   -5142.0593    697.36942 
 2490800    228.84776  0.056676309    1364565.3   -4780.4194    353.35458    -5133.774    5.4706461 
 2491000    232.51127    3.4333968    1364565.3   -4768.4544    359.01125   -5127.4656    331.40653 
 2491200    225.66007    12.385809    1364565.3   -4747.8555    348.43261   -5096.2881    1195.5327 
 2491400    242.48036   -2.8489295    1364565.3   -4736.1191    374.40412   -5110.5233   -274.99118 
 2491600    216.17053    -9.067117    1364565.3   -4733.6136    333.78019   -5067.3938   -875.19794 
 2491800    229.29633    5.6819159    1364565.3   -4733.2305    354.04721   -5087.2777    548.44347 
 2492000    218.47573   -15.779128    1364565.3   -4736.3087    337.33955   -5073.6483   -1523.0707 
 2492200    222.37541   -5.5553553    1364565.3   -4740.2951    343.36088    -5083.656   -536.22728 
 2492400    224.51455  -0.68975223    1364565.3   -4744.6857    346.66385   -5091.3496   -66.577913 
 2492600    220.48692   -10.173373    1364565.3   -4750.8734    340.44494   -5091.3183   -981.97863 
 2492800    222.25881    7.9524197    1364565.3   -4758.7643    343.18085   -5101.9452    767.60246 
 2493000    220.63003   -14.046137    1364565.3   -4767.6192    340.66592   -5108.2851   -1355.7948 
 2493200    226.12187    9.8967051    1364565.3   -4775.7572    349.14565   -5124.9029    955.27342 
 2493400    218.26661      2.71902    1364565.3   -4783.0681    337.01666   -5120.0847    262.45175 
 2493600    216.91197   -5.3929083    1364565.3   -4788.1796    334.92502   -5123.1046   -520.54718 
 2493800    219.51441   -1.7477782    1364565.3   -4788.6972    338.94333   -5127.6405   -168.70322 
 2494000    224.80485    2.8527201    1364565.3   -4782.3691    347.11208   -5129.4812    275.35707 
 2494200    223.76615  -0.77833769    1364565.3   -4767.7705    345.50828   -5113.2787   -75.128571 
 2494400    212.16034    5.8726985    1364565.3   -4752.7208     327.5882    -5080.309    566.85864 
 2494600    241.26359   -3.8427017    1364565.3     -4742.94    372.52536   -5115.4653   -370.91444 
 2494800    223.48328   -2.1411205    1364565.3    -4738.692    345.07151   -5083.7635   -206.67035 
 2495000    229.48816    -5.070362    1364565.3   -4737.5848    354.34339   -5091.9282    -489.4136 
 2495200    236.67548   -5.0697425    1364565.3   -4740.1861    365.44106   -5105.6271    -489.3538 
 2495400     230.5447   -2.5843866    1364565.3   -4747.3866    355.97475   -5103.3614   -249.45634 
 2495600    218.40401   -4.5398944    1364565.3   -4757.9325     337.2288   -5095.1613   -438.21054 
 2495800    221.79249   -3.2724847    1364565.3   -4768.0037    342.46083   -5110.4645   -315.87459 
 2496000    217.64513   -0.7965601    1364565.3   -4774.6728    336.05705   -5110.7298   -76.887477 
 2496200     223.5438   -3.0676659    1364565.3   -4778.6606    345.16495   -5123.8255   -296.10458 
 2496400    213.01591    2.1495075    1364565.3   -4780.2624    328.90927   -5109.1716     207.4799 
 2496600    216.61079   -9.2652818    1364565.3   -4778.9497    334.45997   -5113.4097   -894.32567 
 2496800    229.14278   -8.3516698    1364565.3   -4776.4293    353.81012   -5130.2395   -806.13984 
 2497000     221.8368    3.8839227    1364565.3    -4773.745    342.52925   -5116.2742    374.89327 
 2497200    224.46396    2.3359706    1364565.3   -4771.3868    346.58573   -5117.9725    225.47814 
 2497400    226.67603    -7.955295    1364565.3   -4770.2521     350.0013   -5120.2534      -767.88 
 2497600    224.81784   -5.2815922    1364565.3   -4768.8954    347.13214   -5116.0275   -509.80247 
 2497800    219.95376   -20.729552    1364565.3   -4765.9744    339.62171   -5105.5961   -2000.9074 
 2498000    226.41444   -1.4077718    1364565.3    -4755.999     349.5974   -5105.5964   -135.88431 
 2498200     240.6033    7.9655919    1364565.3   -4730.9751    371.50583    -5102.481     768.8739 
 2498400    247.97667    1.2830817    1364565.3   -4716.3476    382.89076   -5099.2384    123.84868 
 2498600    235.54589   -2.1823372    1364565.3   -4713.6729    363.69689   -5077.3698   -210.64876 
 2498800    231.14028     2.478301    1364565.3   -4716.4212    356.89437   -5073.3155    239.21649 
 2499000    240.57632   -7.7910305    1364565.3   -4724.1987    371.46418   -5095.6629   -752.02446 
 2499200     229.6386    13.110618    1364565.3   -4736.3874    354.57568   -5090.9631    1265.4945 
 2499400    229.86277   -2.9962438    1364565.3   -4748.3379    354.92182   -5103.2597    -289.2106 
 2499600     221.6704    -7.461509    1364565.3   -4756.8832    342.27231   -5099.1555    -720.2176 
 2499800    215.81994    1.1841012    1364565.3   -4762.3185    333.23885   -5095.5574    114.29465 
 2500000    231.27309   -2.8939872    1364565.3   -4767.5279    357.09943   -5124.6274   -279.34035 
Loop time of 1379 on 6 procs for 2500000 steps with 519 atoms

Performance: 313.272 ns/day, 0.077 hours/ns, 1812.914 timesteps/s
100.0% CPU use with 6 MPI tasks x no OpenMP threads

MPI task timing breakdown:
Section |  min time  |  avg time  |  max time  |%varavg| %total
---------------------------------------------------------------
Pair    | 0.080798   | 214.36     | 1285.7     |3272.5 | 15.54
Neigh   | 0.48493    | 5.5821     | 31.058     | 482.2 |  0.40
Comm    | 0.72432    | 1.1832     | 3.2792     |  86.2 |  0.09
Output  | 34.364     | 34.38      | 34.451     |   0.5 |  2.49
Modify  | 18.506     | 1112       | 1330.9     |1466.5 | 80.64
Other   |            | 11.46      |            |       |  0.83

Nlocal:        86.5000 ave         519 max           0 min
Histogram: 5 0 0 0 0 0 0 0 0 1
Nghost:        54.0000 ave         324 max           0 min
Histogram: 5 0 0 0 0 0 0 0 0 1
Neighs:        0.00000 ave           0 max           0 min
Histogram: 6 0 0 0 0 0 0 0 0 0
FullNghs:      2109.67 ave       12658 max           0 min
Histogram: 5 0 0 0 0 0 0 0 0 1

Total # of neighbors = 12658
Ave neighs/atom = 24.389210
Neighbor list builds = 47839
Dangerous builds = 0
write_data 		data.${NAME}_run
write_data 		data.10A_pres_run
System init for write_data ...
Total wall time: 0:23:30
