
# Set production fixes - Nose/Hoover
#
fix                 4 water temp/csvr ${START_TEMP} ${END_TEMP} 500.0 928347
fix                 4 water temp/csvr 240 ${END_TEMP} 500.0 928347
fix                 4 water temp/csvr 240 227 500.0 928347


## divide "droplet" into core and surface
#region		core_reg cylinder z 135 135 44.6 20 INF units box
#region		surface_reg cylinder z 135 135 44.6 20 INF units box side out
#group		core dynamic all region core_reg
#group		surface dynamic all region surface_reg

## compute pressure core
#compute        peratom_core core stress/atom NULL
#compute        p_core core reduce sum c_peratom_core[1] c_peratom_core[2] c_peratom_core[3]
#variable       press_core equal -(c_p_core[1]+c_p_core[2]+c_p_core[3])/(3*1249982.5)


## compute pressure surface
#compute        peratom_surf surface stress/atom NULL
#compute        p_surf surface reduce sum c_peratom_surf[1] c_peratom_surf[2] #c_peratom_surf[3]
#variable       press_surf equal -(c_p_surf[1]+c_p_surf[2]+c_p_surf[3])/(3*42395)

## compute total pressure of drop
compute        peratom water stress/atom NULL
compute        p water reduce sum c_peratom[1] c_peratom[2] c_peratom[3]
variable       press equal -(c_p[1]+c_p[2]+c_p[3])/(3*58301)


# compute order parameter
compute        3 all orientorder/atom nnn NULL cutoff 3.5

# compute center of mass of bridge
compute 	4 water com

# Run simulation
thermo_style        custom step c_2 press vol etotal ke pe v_press c_1[4] c_4[*]
thermo              200
dump		     1 water custom 400 ${DIR}/prod.${NAME}.dump id type x y z vx vy vz c_3[*] c_peratom[*]
dump		     1 water custom 400 run_21/prod.${NAME}.dump id type x y z vx vy vz c_3[*] c_peratom[*]
dump		     1 water custom 400 run_21/prod.ibeam_cooling_21.dump id type x y z vx vy vz c_3[*] c_peratom[*]
run                 ${STEPS}
run                 5200000
Neighbor list info ...
  update every 1 steps, delay 0 steps, check yes
  max neighbors/atom: 2000, page size: 100000
  master list distance cutoff = 6.67472
  ghost atom cutoff = 6.67472
  binsize = 3.33736, bins = 57 9 12
  2 neighbor lists, perpetual/occasional/extra = 1 1 0
  (1) pair sw, perpetual
      attributes: full, newton on
      pair build: full/bin/atomonly
      stencil: full/bin/3d
      bin: standard
  (2) compute orientorder/atom, occasional, copy from (1)
      attributes: full, newton on
      pair build: copy
      stencil: none
      bin: none
Per MPI rank memory allocation (min/avg/max) = 0.8615 | 6.055 | 7.152 Mbytes
Step c_2 Press Volume TotEng KinEng PotEng v_press c_1[4] c_4[1] c_4[2] c_4[3] 
       0    239.46618   -222.12158    204420.41   -23319.233    1738.1107   -25057.344   -230.82695    35.608713    95.090191    14.546664    27.851446 
     200      241.296   -136.47873    204420.41   -23325.077    1751.3921   -25076.469    12.754284    36.611562    95.093042    14.545624    27.844754 
     400     238.9116   -389.03036    204420.41   -23305.216    1734.0855   -25039.302   -841.32475    36.976609    95.093074    14.547039    27.841208 
     600    242.28463   -170.91965    204420.41   -23196.166    1758.5679   -24954.734   -77.064924     38.27909    95.092502     14.54449    27.838588 
     800    240.94408   -389.30893    204420.41    -23187.25    1748.8378   -24936.088   -827.77722    39.988107    95.090104    14.543508    27.818416 
    1000    237.71711   -466.80291    204420.41   -23224.718    1725.4156   -24950.133    -1124.099    40.919068    95.088404    14.540074    27.846256 
    1200    243.69947   -93.081307    204420.41   -23259.909    1768.8371   -25028.746    175.85996    42.289486    95.087843    14.540905    27.846398 
    1400    241.90746   -317.66535    204420.41   -23274.005    1755.8302   -25029.835   -574.41804    43.642457    95.087751    14.540988    27.848982 
    1600    239.00414   -225.69109    204420.41    -23253.52    1734.7571   -24988.277   -254.41815    44.521204    95.087452    14.541573    27.816502 
    1800    242.37477   -278.60637    204420.41   -23218.405    1759.2221   -24977.627   -424.77626    45.063807    95.088354    14.540011    27.819302 
    2000    242.82658   -206.40333    204420.41   -23129.453    1762.5015   -24891.954   -195.17639    46.113054    95.087849    14.538786     27.81958 
    2200    241.46839   -291.25939    204420.41   -23220.101    1752.6433   -24972.744   -506.08528     47.59717    95.088471    14.538526    27.812697 
    2400    247.71506    -555.3474    204420.41     -23203.8    1797.9834   -25001.784    -1441.774    49.944948    95.087796    14.542222    27.846146 
    2600    236.65267   -489.91835    204420.41   -23276.751    1717.6895   -24994.441   -1155.8019    50.421488    95.088377    14.540609    27.847741 
    2800    247.02781   -392.38004    204420.41   -23171.552    1792.9951   -24964.547   -839.64144     51.86073    95.087649    14.540405    27.874077 
    3000    242.09691   -318.15096    204420.41   -23170.767    1757.2054   -24927.973   -589.30978    53.240626    95.087085    14.539607     27.87624 
    3200    237.16811    -338.7295    204420.41   -23223.723    1721.4307   -24945.153   -689.26979    55.771081    95.087984    14.539307     27.89004 
    3400    239.25027   -337.24984    204420.41   -23243.214    1736.5437   -24979.757   -648.29632     57.61049     95.08874    14.537664    27.895836 
    3600    241.64475   -380.26882    204420.41   -23226.033    1753.9234   -24979.957   -819.35755    59.085281    95.090614    14.535446    27.903317 
    3800    245.07617    -278.9264    204420.41    -23169.78    1778.8296   -24948.609   -452.30945    60.104992    95.089641    14.538114    27.920617 
    4000    237.36008   -407.50685    204420.41   -23212.423    1722.8242   -24935.247   -884.61065    63.032702    95.089759    14.537306    27.907408 
    4200    243.62182   -548.61881    204420.41   -23150.382    1768.2736   -24918.655   -1352.6419    64.813502    95.089586    14.536917    27.891843 
    4400    242.23191   -326.92821    204420.41   -23160.271    1758.1852   -24918.457   -590.44624    65.476588    95.090042    14.534966    27.898616 
    4600    234.50479   -270.37407    204420.41    -23247.66    1702.0997   -24949.759   -402.50283    66.796318    95.089444    14.534894    27.900316 
    4800    238.35576   -504.71551    204420.41   -23155.235     1730.051   -24885.286   -1224.0448    68.952468     95.08814    14.533875    27.906295 
    5000    238.38018   -359.26227    204420.41   -23184.188    1730.2283   -24914.417   -748.37777    70.894807    95.088607    14.535334     27.91806 
    5200    239.55927   -303.07171    204420.41   -23159.912    1738.7865   -24898.698   -520.00455    73.274362    95.086729    14.534287    27.916136 
    5400    239.89425   -295.96097    204420.41   -23218.889    1741.2178   -24960.107   -516.08031    76.004866    95.084885    14.530593    27.927086 
    5600    239.79116   -389.20417    204420.41   -23232.255    1740.4696   -24972.725   -846.71593    77.791191    95.083274    14.531966    27.938054 
    5800    243.67686   -321.53198    204420.41   -23178.866    1768.6731   -24947.539   -608.74188    78.218684    95.082307    14.535407    27.939711 
    6000    240.17469   -304.71261    204420.41   -23244.597    1743.2533    -24987.85   -544.42182    79.314727    95.081753    14.535989    27.936953 
    6200    235.54629   -332.26204    204420.41   -23262.804    1709.6592   -24972.463    -597.2399    81.350313    95.082315    14.536374    27.944916 
    6400    236.63442   -279.87556    204420.41   -23230.905    1717.5571   -24948.462   -411.61969    82.436644    95.081006    14.534291    27.961886 
    6600     236.1948    -345.1413    204420.41   -23218.258    1714.3662   -24932.625   -683.98256    83.914426    95.081936    14.532344    27.976236 
    6800    238.06618   -458.39942    204420.41   -23198.164    1727.9492   -24926.113   -1045.5412    85.309462    95.082213    14.531427    27.980709 
    7000    243.19521   -284.26027    204420.41   -23133.243    1765.1771    -24898.42    -476.4017    85.679702    95.082026    14.530684    27.966321 
    7200     232.8401   -241.74943    204420.41   -23190.846    1690.0169   -24880.863   -311.16466    88.911585    95.081893     14.52714    27.936177 
    7400    242.37629   -350.36956    204420.41   -23149.462    1759.2332   -24908.695   -675.21527    89.526017    95.081433    14.526365    27.934155 
    7600    242.32836   -283.71524    204420.41   -23074.078    1758.8853   -24832.963   -482.13475     91.11458     95.08106    14.529079     27.94331 
    7800     233.0924   -502.26407    204420.41    -23176.52    1691.8482   -24868.368    -1202.007    92.585767    95.081058    14.528721    27.915753 
    8000    246.22531   -264.54959    204420.41   -23100.753    1787.1704   -24887.923   -411.77556    94.444299    95.080528    14.530674    27.909408 
    8200    243.84647    -431.7604    204420.41   -23168.355    1769.9041    -24938.26   -988.46929    97.062169    95.079087    14.530905    27.899234 
    8400     244.5617   -621.51467    204420.41   -23136.839    1775.0955   -24911.934   -1637.1096    98.623327    95.078545    14.530417    27.909124 
    8600    233.79319   -219.86369    204420.41   -23195.569    1696.9347   -24892.504   -246.94223    100.19597    95.078969    14.529379    27.916349 
    8800    242.46918   -374.64204    204420.41    -23245.58    1759.9074   -25005.488   -755.74663    101.75096    95.078857    14.528317    27.916636 
    9000    241.52212   -340.97832    204420.41   -23187.463    1753.0333   -24940.496   -624.14385     103.7651    95.079469    14.527942    27.906623 
    9200    244.84649    -240.6489    204420.41   -23173.298    1777.1625   -24950.461   -304.33681    104.77881    95.079061    14.530387    27.910273 
    9400    238.17187   -362.45347    204420.41   -23241.131    1728.7163   -24969.848   -714.22116     106.4279    95.078339    14.532879    27.918674 
    9600    240.67864    -336.1719    204420.41   -23266.078    1746.9112   -25012.989    -615.8381    107.98533    95.081048    14.533001    27.919523 
    9800    242.70845   -209.07775    204420.41   -23151.406    1761.6441    -24913.05   -182.85085    110.25313    95.083863    14.530164    27.941974 
   10000    237.56767   -337.90632    204420.41   -23215.825    1724.3309   -24940.155   -622.79823    111.64444    95.085846    14.531686    27.944553 
   10200    241.22731   -290.98762    204420.41   -23138.371    1750.8935   -24889.264   -464.52239    113.08249    95.086702    14.532815    27.969705 
   10400    242.90275   -341.42403    204420.41   -23146.013    1763.0544   -24909.068    -644.1335    115.06283     95.08714    14.532049    27.984683 
   10600    236.30321   -451.63039    204420.41   -23253.182    1715.1531   -24968.335   -1030.6816    116.09998    95.087823    14.529929    27.969855 
   10800    234.16021   -304.38978    204420.41   -23329.103    1699.5986   -25028.701   -558.40559    116.84631     95.08624    14.530886    27.972243 
   11000    236.26324   -359.17224    204420.41   -23349.604     1714.863   -25064.467   -698.10717    117.42618    95.086812    14.528626    27.984247 
   11200    232.16781   -241.85421    204420.41   -23320.322    1685.1373    -25005.46   -293.03505    117.97099    95.085807     14.52705    28.007233 
   11400    239.41217   -490.97908    204420.41   -23302.351    1737.7188    -25040.07   -1220.7478    118.78634    95.086449    14.520458    28.018643 
   11600    239.29495   -405.20732    204420.41   -23176.679     1736.868   -24913.547   -876.18365    120.90735    95.088017    14.520703    28.023601 
   11800    244.56481   -239.97698    204420.41   -23168.611     1775.118   -24943.729   -323.85161    121.85355    95.088542     14.52023    28.019514 
   12000       249.53   -436.57623    204420.41   -23174.957    1811.1567   -24986.114   -929.05942    122.34991    95.089516    14.521381    28.029073 
   12200     238.7042   -329.70931    204420.41   -23194.997    1732.5801   -24927.577   -643.81674    123.37199    95.088903    14.522998    28.015825 
   12400    242.32482   -498.63271    204420.41   -23227.542    1758.8595   -24986.401   -1196.6703    125.33753    95.088647    14.525027     28.02073 
   12600    245.10098   -439.93149    204420.41   -23147.269    1779.0097   -24926.278   -1000.1371    125.77267    95.088377    14.524272    28.003913 
   12800    242.07981   -213.69613    204420.41    -23198.62    1757.0812   -24955.702   -204.63983    125.29628    95.088758    14.526503    28.006972 
   13000    240.69494   -259.53903    204420.41   -23224.478    1747.0295   -24971.507   -385.48569    127.87714    95.090715    14.527037    28.009821 
   13200    238.16837   -346.74438    204420.41   -23278.846    1728.6909   -25007.537   -687.71302    129.29295     95.09182    14.526573    28.001264 
   13400    230.11208   -349.09237    204420.41   -23345.191    1670.2162   -25015.407   -664.25232    131.34383    95.094117    14.524663     27.98899 
   13600    234.93034   -357.59992    204420.41   -23275.512    1705.1884   -24980.701   -678.09275    133.60561     95.09384    14.522378    27.999128 
   13800    241.96047   -394.06193    204420.41   -23231.013     1756.215   -24987.228   -859.36139    134.96153    95.094038    14.520408    27.997029 
   14000     250.9358   -346.13256    204420.41   -23139.252    1821.3604   -24960.612   -673.64536    136.45021    95.095539    14.521722    27.990311 
   14200      241.189   -383.39008    204420.41   -23188.934    1750.6155   -24939.549   -819.01879    138.53628    95.096169    14.522906    28.006641 
   14400     236.6954   -34.837862    204420.41   -23237.098    1717.9997   -24955.098    440.38021    139.06217    95.096539    14.524341    28.016839 
   14600    245.32882   -416.10408    204420.41   -23264.689    1780.6634   -25045.352   -955.16821    138.81901    95.097139    14.524731    28.027251 
   14800    237.30777   -467.13571    204420.41   -23215.601    1722.4445   -24938.045   -1090.9734    139.88866    95.096472    14.521406    28.008939 
   15000    245.03247   -130.01486    204420.41   -23263.166    1778.5124   -25041.678    97.172863    142.23966    95.095448    14.520895    27.999101 
   15200    235.62936   -528.54586    204420.41   -23212.795    1710.2621   -24923.057   -1296.5032    145.09811    95.095107    14.521862    27.999513 
   15400    236.67142   -420.32994    204420.41   -23243.048    1717.8256   -24960.874   -960.72769     146.5364    95.097282    14.524271    27.991787 
   15600    241.45113   -238.90375    204420.41   -23137.405    1752.5181   -24889.923   -296.10182    147.30593    95.097508    14.525236    27.998758 
   15800    246.95811   -345.54853    204420.41   -23190.056    1792.4893   -24982.545   -688.27198    148.47376    95.097116    14.525404    27.978654 
   16000     235.8092   -270.37931    204420.41    -23220.35    1711.5674   -24931.917   -404.35829    149.96914    95.097154     14.52565    27.996521 
   16200    246.23238   -287.48548    204420.41   -23149.733    1787.2217   -24936.955   -484.82022    150.79346    95.096827    14.523354    28.008802 
   16400    234.82188   -363.58538    204420.41   -23228.766    1704.4012   -24933.168    -741.2067    152.37571    95.095748    14.520691    28.018203 
   16600    245.32843   -419.30945    204420.41   -23165.458    1780.6606   -24946.118   -926.27583    153.31087    95.095485    14.520204    28.014951 
   16800    239.82578   -389.83311    204420.41    -23218.64    1740.7209   -24959.361    -879.9254    153.47196    95.097997    14.519903    28.002404 
   17000    239.41602    -449.5112    204420.41   -23286.608    1737.7467   -25024.354   -1069.9213    155.42759    95.098099    14.520579     28.01109 
   17200    244.30672   -423.97356    204420.41   -23263.035    1773.2448    -25036.28     -952.959    156.05445    95.098697    14.519801    28.017224 
   17400    236.72483   -310.99785    204420.41   -23348.146    1718.2133   -25066.359   -551.42663    156.68576    95.099068    14.519251    28.010875 
   17600     239.6264   -245.48238    204420.41   -23205.211    1739.2737   -24944.485   -356.55527    157.89796    95.098785    14.519143    28.005384 
   17800     242.4839   -136.67508    204420.41   -23211.645    1760.0142   -24971.659    24.818106    158.61316    95.101073    14.517568    28.000151 
   18000    250.86097   -575.47461    204420.41   -23177.724    1820.8172   -24998.542   -1484.7193    159.48045     95.10189    14.516711    27.987222 
   18200    236.60643   -294.29563    204420.41   -23217.232    1717.3539   -24934.586   -510.83079    160.36533    95.102441    14.516131    27.969145 
   18400    236.93552    -474.9114    204420.41    -23199.71    1719.7425   -24919.453   -1118.6455    162.21014    95.101069     14.51715    27.980384 
   18600    239.59143   -471.64059    204420.41   -23183.339    1739.0199   -24922.359   -1122.2169    164.15627    95.100174    14.519473    27.975632 
   18800    237.36124   -162.52912    204420.41   -23223.926    1722.8325   -24946.758   -70.208039     164.8999    95.100185    14.520027     27.96549 
   19000    236.24495    -239.2306    204420.41   -23142.182    1714.7302   -24856.912   -302.15727     166.0071    95.101359    14.519931    27.950078 
   19200    240.53995   -445.19925    204420.41   -23111.831    1745.9045   -24857.736   -1019.7231    166.69526    95.101748    14.522346    27.912426 
   19400    240.97584   -320.84994    204420.41   -23030.517    1749.0683   -24779.585   -589.31308    168.60415    95.099679    14.525321    27.896855 
   19600    242.72392   -296.68159    204420.41    -23066.91    1761.7563   -24828.666    -535.9011    168.66795    95.100395     14.52409     27.89753 
   19800    241.96839   -436.21406    204420.41   -23077.406    1756.2725   -24833.679   -1021.8923    171.08199    95.099617    14.524549    27.892751 
   20000    239.87321   -186.64558    204420.41   -23057.464    1741.0651   -24798.529   -119.22021    172.87154    95.100495    14.528713    27.882618 
   20200     243.0838   -374.00021    204420.41   -23172.495    1764.3685   -24936.864    -771.8153    174.02248    95.101726    14.529384    27.892567 
   20400    242.43099   -382.99725    204420.41   -23099.823    1759.6302   -24859.453   -830.57557    175.72395    95.101663    14.527982    27.895339 
   20600     238.8299   -186.50409    204420.41   -23195.997    1733.4925   -24929.489   -110.54466    178.68352    95.103029    14.528143    27.889559 
   20800    243.98653   -314.75276    204420.41   -23139.861    1770.9207   -24910.782   -591.49707    180.53639    95.103059     14.52878     27.88783 
   21000    242.31024   -348.55061    204420.41   -23169.037    1758.7537   -24927.791   -700.57608    182.38082    95.103037    14.526123    27.894879 
   21200    240.16914   -428.97881    204420.41   -23174.446    1743.2131   -24917.659   -988.75127    184.99494    95.103323    14.530206     27.91019 
   21400    238.61454   -191.03299    204420.41   -23194.186    1731.9293   -24926.116   -99.571663    188.07659    95.103726    14.531221    27.896385 
   21600    250.01216   -375.22538    204420.41   -23139.369    1814.6564   -24954.025   -772.71722    191.11238    95.103225     14.53147     27.86755 
   21800    239.66089   -493.01197    204420.41    -23237.91     1739.524   -24977.434   -1161.5897    194.02811     95.10206    14.529665    27.861925 
   22000    233.37409   -288.93341    204420.41   -23260.722    1693.8927   -24954.615   -477.07232    195.87202    95.100327    14.529182    27.864609 
   22200    232.21155   -303.92117    204420.41   -23309.609    1685.4547   -24995.063   -525.36331    200.12073    95.100082    14.528123    27.854647 
   22400    244.41064   -214.08194    204420.41   -23150.525     1773.999   -24924.524   -217.77976    202.39331    95.099527    14.528154    27.845469 
   22600    245.55219   -222.83579    204420.41   -23178.363    1782.2847   -24960.648   -239.30922    204.91832    95.099654    14.525988    27.861184 
   22800    238.34361   -304.29705    204420.41   -23162.245    1729.9628   -24892.208   -627.53911    205.50048    95.100325     14.52408    27.864968 
   23000    237.89528    -316.5616    204420.41   -23256.431    1726.7088    -24983.14   -581.91335    207.23449     95.10059    14.524078    27.851815 
   23200    240.40795   -264.83011    204420.41   -23154.934    1744.9464    -24899.88   -395.80693    207.18357    95.101411     14.52475    27.845542 
   23400    237.74174   -338.76331    204420.41   -23131.369    1725.5943   -24856.963   -709.64474    207.94948     95.10017     14.52478    27.856351 
   23600    251.73206   -304.17951    204420.41   -23078.363    1827.1399   -24905.503   -577.67898    208.64954    95.100984    14.525222    27.860329 
   23800    243.04932    -343.2704    204420.41   -23121.186    1764.1182   -24885.304   -659.26658    211.01792    95.101231    14.525875    27.863779 
   24000    242.10134   -265.46658    204420.41   -23190.798    1757.2375   -24948.035   -416.77121    212.61675    95.100924    14.525373    27.860541 
   24200    239.25831    -223.1698    204420.41    -23206.75     1736.602   -24943.352   -239.85825    213.73974     95.10139    14.526312    27.862144 
   24400    234.04729   -483.82067    204420.41   -23228.849     1698.779   -24927.628   -1212.6817    215.36948    95.102023    14.526935    27.875034 
   24600    236.19117   -494.72435    204420.41   -23292.878    1714.3399   -25007.218   -1194.3729    216.59525    95.100873    14.525791    27.884482 
   24800    231.25529   -321.22947    204420.41   -23263.073    1678.5139   -24941.587   -588.47817    218.03804    95.101289    14.524695    27.865615 
   25000    239.92623   -169.26974    204420.41   -23225.755    1741.4499   -24967.205     -56.1953    219.17426    95.102598     14.52483    27.876253 
   25200    233.24424   -347.05672    204420.41   -23347.084    1692.9502   -25040.034   -725.03111    221.22245    95.106894    14.524307    27.866988 
   25400    235.99017   -275.79294    204420.41    -23229.73    1712.8809   -24942.611    -421.3546    221.47765     95.10688    14.526602    27.852448 
   25600    244.50075    -173.5155    204420.41   -23076.553    1774.6531   -24851.206   -105.56039    221.48638     95.10826    14.526496    27.835618 
   25800    249.81715   -246.98622    204420.41   -23125.154     1813.241   -24938.395   -375.72141    223.86971    95.109544    14.527358    27.837735 
   26000    240.84923   -212.16121    204420.41   -23187.642    1748.1494   -24935.791    -227.1942    225.46976    95.109439    14.530117    27.839002 
   26200    243.25842   -415.94391    204420.41   -23162.472    1765.6359   -24928.108   -909.98309    226.86876    95.109268     14.53378    27.869828 
   26400    241.82012   -201.21659    204420.41   -23218.023    1755.1963   -24973.219   -181.93787    227.98121    95.110551    14.531162    27.859962 
   26600    245.77594   -427.71204    204420.41   -23142.243    1783.9087   -24926.152   -989.71841    228.54556    95.111943    14.529237    27.815121 
   26800    243.21483   -303.95281    204420.41    -23149.93    1765.3195   -24915.249   -520.88941    231.67396    95.111354    14.533172    27.810104 
   27000    242.19432   -364.52924    204420.41   -23113.034    1757.9124   -24870.947   -758.89653    233.60218    95.112723    14.533687    27.807516 
   27200    238.34447   -151.41812    204420.41    -23179.44    1729.9691   -24909.409   -20.117544    235.73122    95.114242    14.534052    27.794536 
   27400    242.53879   -378.35599    204420.41   -23111.331    1760.4126   -24871.744   -802.08366    239.61893    95.114816    14.535414    27.832637 
   27600    226.19238   -218.17386    204420.41   -23303.533    1641.7659   -24945.299   -278.92226    242.73653    95.115571     14.53492    27.833675 
   27800    245.70833   -521.05878    204420.41   -23148.154     1783.418   -24931.572   -1322.4207    244.74147    95.115883    14.532264    27.822961 
   28000    237.55256   -158.93093    204420.41   -23276.662    1724.2212   -25000.883   -47.036983    246.50959    95.116113    14.527003    27.839973 
   28200    239.32358   -354.65015    204420.41   -23264.057    1737.0757   -25001.133   -718.73438    247.10691     95.11659     14.52804     27.82772 
   28400    237.03905   -334.77869    204420.41   -23278.685     1720.494   -24999.179   -625.26749     248.7665    95.117813    14.528919    27.812672 
   28600    240.94463   -192.76656    204420.41   -23281.572    1748.8418   -25030.414   -175.34943    249.39264    95.118437    14.526756    27.804007 
   28800    231.86203   -362.43312    204420.41   -23269.023    1682.9178   -24951.941   -726.42344    248.47434    95.121088    14.527655    27.818411 
   29000     245.4683   -293.51164    204420.41   -23222.397    1781.6758   -25004.072   -493.23804    246.90376    95.121499     14.52599    27.826756 
   29200    245.18271   -301.72062    204420.41    -23212.29    1779.6029   -24991.892   -536.08755    246.92454    95.121068    14.526063    27.839808 
   29400     241.5204   -413.70675    204420.41   -23205.523    1753.0209   -24958.544   -930.07159    247.63841    95.120794    14.524047    27.832211 
   29600    243.25577   -321.64454    204420.41   -23206.689    1765.6167   -24972.305   -606.08168    248.30204    95.120401     14.51984    27.844012 
   29800    232.61072   -396.36395    204420.41   -23308.914     1688.352   -24997.266   -836.51637    250.58885    95.121611    14.518319    27.868026 
   30000    233.40074   -316.67897    204420.41   -23333.369    1694.0861   -25027.455   -570.00545    251.20762    95.123283     14.51609    27.872606 
   30200     238.9003   -182.08283    204420.41   -23243.934    1734.0035   -24977.938   -151.31142    249.74329    95.123513     14.51448    27.873631 
   30400    240.86582    -389.9295    204420.41   -23224.775    1748.2698   -24973.044   -877.05477    253.34109    95.124317    14.516401    27.876529 
   30600     237.0513   -363.17484    204420.41   -23256.298    1720.5829   -24976.881   -739.88087    254.35826     95.12621    14.516295     27.87018 
   30800    241.07595   -274.60978    204420.41   -23238.162     1749.795   -24987.957   -393.94917    254.41489    95.124469    14.514681    27.879497 
   31000    242.62156   -344.86772    204420.41   -23240.249    1761.0134   -25001.262    -691.2088    255.48084    95.125027    14.513324    27.869391 
   31200    239.23256    -168.7608    204420.41   -23222.445    1736.4151    -24958.86   -93.768133    256.58135    95.124187    14.513449     27.86315 
   31400     239.0789   -439.80937    204420.41   -23197.511    1735.2998   -24932.811   -1029.3114    259.55277    95.124497     14.51028     27.85732 
   31600    235.45101   -271.56499    204420.41   -23268.247    1708.9676   -24977.214   -480.35222    261.53367    95.124325     14.50959    27.846741 
   31800    237.98428   -349.38719    204420.41   -23187.622    1727.3548   -24914.977   -733.70885    262.13506    95.124372    14.507979    27.838553 
   32000     238.3833   -316.89885    204420.41   -23248.109    1730.2509    -24978.36    -578.9556    262.94898    95.124445    14.505031    27.824985 
   32200    239.42676   -270.45869    204420.41   -23274.337    1737.8247   -25012.162   -420.99579    264.57479    95.124877    14.504504    27.854108 
   32400    235.38847    -282.0291    204420.41   -23297.972    1708.5136   -25006.486   -450.56281    266.47592    95.125428    14.503633    27.849368 
   32600    245.66648   -285.99591    204420.41   -23194.543    1783.1142   -24977.657   -460.76892    267.04478    95.126499      14.5053    27.856634 
   32800    247.98383   -294.66731    204420.41   -23184.845    1799.9342    -24984.78   -526.15315    267.47535    95.125574    14.504909    27.845128 
   33000    248.09319   -201.67233    204420.41   -23127.662     1800.728    -24928.39   -229.73393    268.12649     95.12425    14.504825    27.857593 
   33200    236.56917   -294.74897    204420.41   -23182.572    1717.0835   -24899.655   -524.86175    268.62398    95.123545    14.507555    27.851938 
   33400    236.94994   -272.95965    204420.41   -23223.968    1719.8472   -24943.815    -459.9575    271.11458    95.123466     14.50661    27.851064 
   33600    238.78038   -114.14756    204420.41    -23246.06    1733.1331   -24979.193    68.072968    274.18883    95.122768     14.50629    27.853953 
   33800     249.5579   -269.38311    204420.41   -23077.808    1811.3593   -24889.167   -430.48691     276.4224     95.12181    14.506697     27.84681 
   34000    237.22092   -303.68587    204420.41   -23203.226    1721.8141   -24925.041   -549.33138    278.30516    95.122577    14.509448    27.846676 
   34200    238.25262   -380.58062    204420.41   -23204.148    1729.3025   -24933.451   -794.66652    279.89703    95.120676    14.513101    27.834038 
   34400    239.49816    -294.6313    204420.41    -23243.61    1738.3429   -24981.953   -496.11277    280.17343    95.120906    14.513928    27.837656 
   34600    243.09007   -332.12891    204420.41   -23088.505     1764.414   -24852.919   -647.28974     281.6815    95.120806    14.512473    27.839929 
   34800    234.00198   -186.23453    204420.41   -23190.113    1698.4501   -24888.563   -129.29833    281.02401    95.122542    14.514785     27.84685 
   35000    230.02399   -368.16733    204420.41   -23231.757    1669.5768   -24901.334   -773.44932    283.18954    95.122778    14.516678    27.851607 
   35200    243.37202    -489.7356    204420.41   -23127.315    1766.4604   -24893.775   -1159.2094    283.83615    95.122373    14.516939     27.84998 
   35400    236.82871   -360.55947    204420.41   -23145.393    1718.9673    -24864.36   -751.31574     284.6071    95.122818    14.514766    27.866631 
   35600    243.39657   -555.34556    204420.41   -23163.631    1766.6387   -24930.269   -1393.6055    285.38151    95.122967    14.515277    27.879614 
   35800    248.62209   -145.47993    204420.41   -23065.634    1804.5669   -24870.201   -19.121018    286.36809    95.123066     14.51462    27.885033 
   36000    233.00036   -481.75809    204420.41   -23208.444    1691.1801   -24899.624   -1153.8601    288.68799    95.124634     14.51347    27.903891 
   36200    240.11814   -515.65734    204420.41   -23215.116    1742.8429   -24957.959   -1283.2515    288.94655    95.125304    14.512546    27.910252 
   36400    236.58361   -333.68811    204420.41   -23197.618    1717.1883   -24914.807   -682.37631    290.89781    95.126088    14.510521    27.895121 
   36600    241.37073   -457.30719    204420.41   -23164.219    1751.9345   -24916.153   -1085.6299    292.74238    95.126809    14.507501    27.880911 
   36800     237.5766   -343.40575    204420.41   -23216.746    1724.3957   -24941.142   -643.79228    295.20901    95.127204    14.507196    27.876265 
   37000    241.09623   -433.65924    204420.41   -23201.644    1749.9421   -24951.586   -997.71071    297.39193    95.127985    14.506595    27.859446 
   37200    234.67062   -444.36508    204420.41    -23246.87    1703.3033   -24950.174   -1028.4541    298.67723    95.127597    14.507533    27.847745 
   37400    238.11547   -306.77546    204420.41   -23243.598    1728.3069   -24971.905   -527.92708    300.60867    95.127638    14.508617    27.837466 
   37600    235.12761   -365.11251    204420.41   -23282.392    1706.6203   -24989.012   -762.71825    301.80071      95.1281    14.510081    27.834801 
   37800    232.02383    -227.7718    204420.41   -23326.626    1684.0922   -25010.718   -257.60986    305.01735     95.12863    14.509954    27.808668 
   38000    241.08487   -543.13924    204420.41     -23168.3    1749.8597    -24918.16   -1331.1373    306.51965    95.130029    14.508537    27.806239 
   38200    241.72389   -381.50652    204420.41   -23184.564    1754.4979   -24939.062    -836.3551    307.89338    95.129543    14.509043    27.798262 
   38400    239.81927   -247.04966    204420.41   -23156.068    1740.6736   -24896.742   -378.64203     309.9215      95.1299    14.504671    27.779435 
   38600    244.54302   -438.38576    204420.41   -23184.023    1774.9598   -24958.983   -1027.8068     313.0005    95.129192    14.502368    27.790563 
   38800    240.72808   -288.36464    204420.41   -23182.657      1747.27   -24929.927   -484.88365    315.56496    95.128719    14.499358    27.777878 
   39000    243.99425   -92.300141    204420.41   -23116.529    1770.9767   -24887.506    187.78116    316.67839    95.128207    14.499298    27.775725 
   39200    234.93856   -232.97396    204420.41   -23213.154    1705.2481   -24918.402   -271.97754    318.05414    95.127552    14.498827     27.76881 
   39400    243.50722   -336.01157    204420.41   -23161.662    1767.4418   -24929.104    -663.8199    319.91883    95.129086    14.500946    27.780053 
   39600    237.93594   -240.34077    204420.41   -23141.768    1727.0039   -24868.772   -359.83715    319.65651    95.129917    14.502298    27.767416 
   39800    241.40356   -308.64749    204420.41    -23200.02    1752.1728   -24952.193   -569.50292     322.3322    95.129397    14.503894    27.748512 
   40000    243.97865   -472.52341    204420.41   -23173.112    1770.8635   -24943.976   -1165.1115    323.48894    95.127524    14.505109    27.758956 
   40200    237.76698   -216.56869    204420.41   -23144.948    1725.7776   -24870.725   -224.84295    325.24699    95.126316    14.506302    27.746854 
   40400    236.30378   -71.504977    204420.41   -23213.012    1715.1572   -24928.169    290.59081     324.2536    95.124751    14.506901    27.737183 
   40600    245.82234   -375.69639    204420.41   -23093.355    1784.2455     -24877.6   -796.39392    324.74414    95.124836    14.506226    27.733975 
   40800    239.63304   -338.07095    204420.41   -23203.791    1739.3219   -24943.113   -639.42843    325.11986    95.123385    14.509157    27.725901 
   41000    233.61558   -314.70142    204420.41   -23206.729    1695.6455   -24902.375   -610.61159    325.47046    95.123594    14.510021    27.723947 
   41200    249.49633   -244.63608    204420.41   -23129.916    1810.9123   -24940.828   -322.10086    327.70692    95.124395    14.509532    27.713148 
   41400    242.97926   -271.24939    204420.41   -23183.169    1763.6097   -24946.779   -403.04264     328.2562    95.123109    14.508707    27.716398 
   41600    242.49218    -422.8936    204420.41   -23200.847    1760.0743   -24960.921   -968.83884    327.95178    95.122424    14.506362    27.729552 
   41800    237.51627   -184.73288    204420.41   -23189.978    1723.9578   -24913.936   -92.573288    328.77684    95.122915    14.504647    27.710599 
   42000    238.94274    -224.4329    204420.41   -23237.629    1734.3115   -24971.941   -290.56059    328.51741    95.122507    14.504414    27.714337 
   42200    234.00942   -253.36621    204420.41   -23281.528    1698.5041   -24980.032   -356.64653    329.22533    95.121061    14.503542    27.708833 
   42400    242.73682   -359.51802    204420.41   -23249.298      1761.85   -25011.148    -736.0224    331.02064    95.120589    14.505309    27.709519 
   42600    237.45726   -109.02933    204420.41   -23209.824    1723.5295   -24933.354    130.10081    330.62824    95.121703    14.506226    27.716313 
   42800    239.03852   -258.45064    204420.41   -23198.592    1735.0067   -24933.598   -354.35883    332.69397     95.12381    14.507614    27.727956 
   43000    239.68849   -330.43781    204420.41   -23247.781    1739.7243   -24987.506    -630.2926    333.50572     95.12336    14.506248    27.716839 
   43200    237.46664   -218.09891    204420.41   -23214.437    1723.5976   -24938.034   -215.60379    332.52497    95.123797    14.506655    27.704529 
   43400    241.00099   -341.01654    204420.41   -23176.334    1749.2509   -24925.585   -671.03029    333.82999    95.124818    14.505687    27.687786 
   43600    242.79089   -329.66007    204420.41   -23228.748    1762.2425   -24990.991   -634.09386    335.79399    95.125788    14.503976    27.687142 
   43800    238.67617   -161.19967    204420.41   -23237.834    1732.3767   -24970.211    -34.04099    337.40067    95.127219    14.500314    27.673406 
   44000    238.82073   -264.25078    204420.41   -23301.871     1733.426   -25035.297   -397.09342    337.38699    95.127376    14.500501    27.665028 
   44200    240.01851    -188.3028    204420.41   -23271.034    1742.1198   -25013.154   -86.821468    339.06051    95.127177    14.498191    27.656379 
   44400    235.52736    -300.9487    204420.41   -23282.498    1709.5218   -24992.019   -544.14097    339.16905    95.126565    14.497244    27.653072 
   44600    238.19713   -431.77753    204420.41   -23296.682    1728.8997   -25025.581   -1004.7654    342.87235    95.125679    14.496083     27.64929 
   44800    237.23149   -300.89573    204420.41   -23300.892    1721.8908   -25022.782   -549.84861    343.58229    95.127167    14.496718    27.656887 
   45000    240.91958   -192.02642    204420.41    -23276.91      1748.66    -25025.57    -152.8451    345.32845    95.127255    14.499748    27.662462 
   45200    238.99868   -347.01167    204420.41   -23246.075    1734.7175   -24980.792     -676.442    346.65775    95.129199    14.499178    27.662884 
   45400    239.48707   -358.83479    204420.41   -23273.221    1738.2624   -25011.483   -726.75001    348.65014    95.132186    14.500551    27.658584 
   45600    241.00844   -95.635306    204420.41   -23197.174    1749.3049   -24946.479    198.81495    348.87051    95.133596     14.50159    27.665801 
   45800    242.88146    -415.7066    204420.41   -23246.628    1762.8998   -25009.528   -876.66913    350.49204     95.13237    14.502701    27.667422 
   46000    244.69602    -331.1222    204420.41   -23166.893    1776.0704   -24942.964   -613.37349    352.45144    95.133033    14.504634    27.666164 
   46200    241.34901   -295.91589    204420.41   -23172.022    1751.7769   -24923.798     -506.334    354.29161    95.133088    14.503601    27.644523 
   46400    238.31137   -430.88816    204420.41     -23248.3    1729.7288   -24978.029    -962.4948    356.22029    95.133114     14.50592     27.61294 
   46600    240.67431   -368.02979    204420.41   -23246.696    1746.8797   -24993.575   -775.11611    357.38509    95.134991    14.508053    27.619761 
   46800    236.01879   -440.12098    204420.41   -23193.953    1713.0887   -24907.042   -979.05601    360.37497    95.135716    14.507816    27.604361 
   47000    239.38255   -406.92539    204420.41   -23159.941    1737.5038   -24897.445   -894.05816    359.85031    95.136084    14.505905    27.599908 
   47200     237.7781   -313.80253    204420.41   -23274.928    1725.8583   -25000.787   -562.94332    362.20487    95.135854    14.502613    27.609161 
   47400    236.45654   -463.27203    204420.41   -23187.622     1716.266   -24903.888   -1089.5631    363.03747    95.137702    14.497222    27.623627 
   47600    242.84284   -142.35477    204420.41   -23199.845    1762.6195   -24962.465    30.975008     364.4203    95.136567     14.49749    27.650351 
   47800    237.55751   -278.83117    204420.41    -23240.34    1724.2571   -24964.597   -453.80878    366.16381    95.133791    14.496248    27.649977 
   48000    242.05983   -509.86833    204420.41   -23240.818    1756.9362   -24997.754   -1257.3148    367.52247    95.134279    14.496664    27.650974 
   48200    241.88958   -214.46694    204420.41   -23249.427    1755.7005   -25005.127    -246.3104    368.53112    95.134313    14.495546    27.640498 
   48400    238.83089   -375.59041    204420.41   -23235.374    1733.4997   -24968.873   -808.13401    369.81895    95.132992    14.494877    27.669299 
   48600    232.58317   -406.38945    204420.41    -23308.99    1688.1521   -24997.142   -892.31729    371.56859    95.133236    14.493899    27.663639 
   48800    235.92332   -529.55061    204420.41    -23254.99    1712.3957   -24967.386   -1325.0131    374.15115     95.13332    14.494481     27.67538 
   49000    233.32224   -254.22429    204420.41   -23254.044    1693.5164   -24947.561   -374.93809    373.95744     95.13296     14.49442    27.683704 
   49200    241.34532   -179.75095    204420.41   -23188.217    1751.7501   -24939.967   -97.567278    375.07084    95.131115     14.49292    27.692587 
   49400    234.79709   -304.35889    204420.41   -23254.677    1704.2213   -24958.898   -545.52018    377.17294    95.130193    14.492553     27.71798 
   49600    233.51253   -499.65655    204420.41   -23205.472    1694.8976    -24900.37   -1212.7006    380.06668    95.131278    14.490325    27.714357 
   49800    239.80031   -182.37851    204420.41   -23213.059     1740.536   -24953.595   -125.49447    380.56717    95.130871    14.489763      27.7233 
   50000    235.01437   -333.00705    204420.41   -23219.236    1705.7983   -24925.034   -659.94193    381.80522     95.13006    14.491388    27.753464 
   50200    245.70166   -299.26586    204420.41   -23125.608    1783.3696   -24908.978   -498.50266     382.7011    95.132407    14.492037     27.76294 
   50400    244.69997   -200.81337    204420.41   -23222.295    1776.0991   -24998.394   -185.34414     382.3962    95.134109    14.494511    27.787539 
   50600     242.4126     -198.271    204420.41   -23121.337    1759.4967   -24880.834   -121.43533    385.91161    95.134984    14.492525    27.797417 
   50800    234.82945   -308.20522    204420.41   -23281.275    1704.4561   -24985.731   -558.23944    388.99697    95.137014    14.489037    27.794458 
   51000    235.30166   -232.16826    204420.41   -23228.699    1707.8836   -24936.582   -253.94764     390.7654    95.137903    14.486859    27.782073 
   51200    238.05188    -91.52002    204420.41   -23242.313    1727.8454   -24970.158    221.10145    391.55614    95.136492    14.489358    27.772247 
   51400     234.6757   -455.33396    204420.41   -23246.784    1703.3402   -24950.124   -1085.0253    392.80391    95.136609    14.491828    27.755701 
   51600    242.87191   -489.71385    204420.41   -23264.007    1762.8305   -25026.837    -1186.907    393.12862    95.138029    14.494901    27.764085 
   51800    239.47795   -292.67241    204420.41   -23239.046    1738.1962   -24977.242    -478.5258    395.29301    95.140049    14.496716    27.771558 
   52000    231.91653   -283.14991    204420.41    -23286.01    1683.3134   -24969.323   -447.93389    396.25977    95.140707    14.496225    27.775139 
   52200    237.54593   -120.46273    204420.41   -23286.677    1724.1731    -25010.85    147.69634    399.65942    95.141282    14.499375    27.775367 
   52400    230.00905   -208.05244    204420.41   -23377.879    1669.4684   -25047.348   -206.55722    401.82701    95.143234    14.504185    27.772359 
   52600    240.12914   -316.18382    204420.41   -23260.961    1742.9227   -25003.884   -568.83577    405.48985    95.142987    14.504495    27.791723 
   52800    243.62571   -391.44438    204420.41   -23199.094    1768.3018   -24967.396   -823.51883    406.85657    95.142883    14.505423    27.787047 
   53000    244.04544   -414.56976    204420.41   -23170.889    1771.3483   -24942.238   -924.07774    406.93123    95.142297    14.510217    27.788619 
   53200     233.8017   -411.14326    204420.41    -23275.38    1696.9964   -24972.376   -921.81699    407.02282    95.143326    14.510685    27.777724 
   53400    243.54584   -353.83218    204420.41   -23224.282    1767.7221   -24992.004   -719.57025     407.1344     95.14398    14.511731    27.763171 
   53600    232.62263   -326.15937    204420.41   -23338.323    1688.4384   -25026.762   -610.14824     408.4495    95.144593    14.513734    27.750997 
   53800    242.06666   -438.78974    204420.41   -23284.554    1756.9858   -25041.539   -1023.3754    411.69908    95.144853    14.515481     27.73675 
   54000    242.27774   -393.37183    204420.41   -23230.627    1758.5179   -24989.145   -787.63614    413.39601    95.144025    14.517559    27.770321 
   54200     241.5693    -355.0662    204420.41   -23213.722    1753.3758   -24967.098   -702.73919    413.54434     95.14443    14.517112    27.792973 
   54400     240.0968    -209.5694    204420.41   -23138.606     1742.688   -24881.294   -209.80825    415.45348    95.146232    14.517559    27.810438 
   54600    237.44433   -458.73852    204420.41   -23186.472    1723.4356   -24909.908   -1100.4876    418.57617    95.146753    14.519315    27.828009 
   54800    239.20204   -138.95703    204420.41   -23152.032    1736.1936   -24888.226    5.4590934    418.91896    95.148539    14.519617    27.835045 
   55000    242.71327   -305.20384    204420.41   -23162.465    1761.6791   -24924.144   -555.42769    420.24479    95.147044    14.518535     27.84386 
   55200    240.32888   -149.56815    204420.41   -23325.773    1744.3725   -25070.146    21.888735     420.2013    95.146826    14.516406    27.860515 
   55400    236.93161   -259.02945    204420.41   -23289.915    1719.7142   -25009.629   -403.78821    422.67897    95.146777    14.513216    27.849032 
   55600    244.77222   -288.33631    204420.41   -23239.048    1776.6234   -25015.672   -496.99036    425.52763    95.148705    14.511921    27.851967 
   55800    245.26545   -304.52171    204420.41   -23138.955    1780.2034   -24919.158   -567.73049    426.15285    95.150177    14.513941    27.885735 
   56000    241.32783    -380.8025    204420.41   -23178.181    1751.6232   -24929.804   -815.77615    423.98884     95.15057    14.513989    27.888345 
   56200    243.74229   -399.07856    204420.41   -23176.818    1769.1479   -24945.966   -861.67499    427.02136    95.150898    14.516041    27.893653 
   56400    237.23215   -415.92242    204420.41    -23309.83    1721.8956   -25031.725   -921.85015    426.79779    95.150104    14.512346    27.896679 
   56600    237.25598   -419.34488    204420.41   -23394.495    1722.0685   -25116.563   -954.36853    427.09632    95.151426    14.509562    27.902891 
   56800    238.80325   -122.93093    204420.41    -23285.78    1733.2991   -25019.079    76.724888    426.83322      95.1518    14.509272    27.891112 
   57000    237.71338   -270.20699    204420.41   -23358.649    1725.3885   -25084.037   -463.05543    429.86602    95.152015     14.50767    27.889133 
   57200    242.63253   -401.58926    204420.41   -23244.858     1761.093   -25005.951   -882.31807    430.24289    95.151899     14.50547    27.884311 
   57400    240.79961    -100.2565    204420.41   -23298.474    1747.7892   -25046.263    158.02287    429.53714    95.152695    14.507222    27.896631 
   57600    230.50622   -388.86101    204420.41   -23332.012     1673.077   -25005.089   -853.01336    432.34902    95.153259     14.51002    27.879851 
   57800    243.15162   -299.16521    204420.41   -23267.089    1764.8607    -25031.95   -509.29324    435.20157    95.153068    14.512471     27.86989 
   58000    242.13642   -468.33612    204420.41   -23267.244    1757.4921   -25024.737   -1066.9637    437.00657    95.152621    14.513748    27.879298 
   58200     238.7302   -499.62201    204420.41   -23245.426    1732.7689   -24978.195   -1215.9162    438.61239    95.153079    14.513352    27.865786 
   58400    235.02503   -382.96513    204420.41   -23268.997    1705.8757   -24974.873   -832.23884    439.45608    95.153692    14.510681    27.867977 
   58600    237.00151   -336.18751    204420.41   -23258.543    1720.2215   -24978.765   -644.40695    439.59626     95.15483    14.508963    27.868296 
   58800    237.79507   -328.86114    204420.41   -23247.537    1725.9814   -24973.518   -600.14531    439.50931    95.154425    14.508507     27.86387 
   59000     240.7302   -336.95812    204420.41    -23206.19    1747.2854   -24953.475    -643.7179     440.7162    95.154587    14.506313    27.874227 
   59200    242.12273    -529.7771    204420.41    -23282.38    1757.3927   -25039.773   -1322.2125    443.18337    95.154235    14.505406     27.87028 
   59400    242.53884   -323.20577    204420.41   -23276.142     1760.413   -25036.555   -596.67541    445.78817    95.152684    14.506904    27.849213 
   59600    231.70626   -392.57349    204420.41   -23321.249    1681.7872   -25003.037   -806.41885    445.97557    95.153421    14.506991    27.858849 
   59800    240.75736   -402.28895    204420.41   -23271.978    1747.4825   -25019.461   -855.26363     446.0029    95.154569    14.505219    27.861424 
   60000    240.37329   -288.41475    204420.41   -23254.556    1744.6948   -24999.251   -478.97902    446.38649    95.153952     14.50717    27.868624 
   60200     240.0272   -341.77942    204420.41   -23290.631    1742.1828   -25032.814   -657.17702    448.50543    95.155959    14.513842    27.870788 
   60400    245.49303   -420.13687    204420.41   -23274.511    1781.8553   -25056.366   -948.23429    451.01483    95.158164     14.51647    27.835409 
   60600    238.75072   -336.25487    204420.41   -23289.105    1732.9177   -25022.023   -647.18694    449.55101    95.159578    14.519636     27.83246 
   60800    241.10791   -504.11867    204420.41   -23229.098    1750.0269   -24979.125    -1254.302    450.96789    95.159366    14.522995    27.816602 
   61000    237.22572   -410.79028    204420.41   -23282.229    1721.8489   -25004.078   -956.66519    450.60511    95.159377    14.522544    27.811369 
   61200    241.13333   -285.64609    204420.41   -23252.077    1750.2114   -25002.288   -486.24991    450.92961    95.156847     14.51891    27.819629 
   61400    244.42004   -344.95534    204420.41   -23269.688    1774.0673   -25043.755   -668.43974    452.84725    95.157721    14.520251    27.806067 
   61600    236.91859   -237.86583    204420.41   -23308.367    1719.6197   -25027.987   -327.20007    453.78509    95.157571    14.523112    27.794203 
   61800    239.79522   -337.42856    204420.41   -23362.085    1740.4991   -25102.584   -619.73294    456.89112    95.158203    14.525688    27.787829 
   62000    239.89312   -295.53631    204420.41   -23245.494    1741.2096   -24986.703    -469.6502    458.64364      95.1583    14.524558    27.768878 
   62200    243.49731   -172.32049    204420.41   -23238.188    1767.3698   -25005.557   -48.189045    457.58339    95.158455    14.524426    27.757032 
   62400    238.55611   -388.33589    204420.41   -23258.641    1731.5052   -24990.146   -831.10619    456.90754    95.157412    14.518727    27.740512 
   62600    233.15218   -374.36061    204420.41   -23283.578     1692.282    -24975.86   -765.29378    457.77331    95.158547    14.518294    27.715204 
   62800    235.22384   -389.53728    204420.41    -23294.85    1707.3187   -25002.168   -862.18424    459.39835    95.159069     14.51904    27.722813 
   63000    236.93161    -121.6539    204420.41   -23182.064    1719.7142   -24901.778    117.31903    458.84384    95.158381    14.519053    27.717746 
   63200    240.52139   -336.08002    204420.41   -23210.685    1745.7698   -24956.455   -682.24926     460.3207    95.158478    14.516439    27.735336 
   63400    238.40074   -279.49639    204420.41   -23250.805    1730.3775   -24981.183    -466.2103    460.25176    95.156266    14.518297    27.750172 
   63600    233.52237   -509.00073    204420.41   -23280.724     1694.969   -24975.693   -1277.6078    458.54996     95.15567    14.518382    27.774108 
   63800    240.48347   -257.34942    204420.41   -23324.597    1745.4946   -25070.092   -360.56291    456.94704    95.154754    14.517784    27.777922 
   64000    238.84265   -285.04022    204420.41   -23211.404     1733.585   -24944.989   -414.93085    457.68072      95.1545    14.515554      27.7844 
   64200    246.13016   -384.56203    204420.41   -23212.093    1786.4798   -24998.572   -793.05261    458.82137    95.156446    14.513482    27.784359 
   64400    236.58451   -382.21039    204420.41   -23256.223    1717.1949   -24973.418   -820.05065    460.86899    95.156571    14.512181    27.811852 
   64600    241.75825   -363.66087    204420.41   -23253.714    1754.7473   -25008.461   -717.19879    462.66381     95.15479     14.51305    27.806379 
   64800    240.90237   -230.47387    204420.41   -23244.549    1748.5351   -24993.085   -257.63301    464.17729    95.153826    14.512598    27.785686 
   65000    239.75664   -303.97415    204420.41    -23125.86     1740.219   -24866.079   -558.18863    467.38807    95.153061    14.512709    27.789463 
   65200     232.2176   -402.24256    204420.41   -23177.601    1685.4986     -24863.1   -842.96431    471.27472    95.152162    14.509567    27.802556 
   65400    240.64287   -298.38464    204420.41   -23167.162    1746.6515   -24913.813   -531.11824    469.16231    95.151891    14.506788    27.800602 
   65600     245.7226   -231.13465    204420.41   -23142.636    1783.5216   -24926.158   -293.05014    467.89825    95.152123    14.506739    27.792824 
   65800    233.12805    -346.3677    204420.41   -23153.645    1692.1069   -24845.751    -680.0065    467.37935    95.151942     14.50727    27.770194 
   66000    243.29648   -190.22748    204420.41   -23145.316    1765.9121   -24911.228   -151.58727    467.61926    95.151219    14.505256    27.759593 
   66200    235.21303   -313.72335    204420.41   -23207.117    1707.2403   -24914.357    -559.2234    468.25742    95.152845    14.504776    27.737715 
   66400    242.69137   -397.25291    204420.41   -23186.371    1761.5201   -24947.891   -868.34682    470.72192    95.153314    14.504364    27.723049 
   66600    236.37873   -380.57757    204420.41   -23229.045    1715.7013   -24944.746   -770.76325    473.58943    95.154958    14.505428    27.721536 
   66800    236.74839   -461.15905    204420.41   -23194.299    1718.3844   -24912.683   -1070.8869    475.22502    95.154083    14.505444    27.712843 
   67000    230.63527   -383.05778    204420.41   -23278.133    1674.0136   -24952.146   -796.95832    472.97778    95.153969    14.504581    27.723526 
   67200    237.22743   -286.66123    204420.41   -23243.638    1721.8613   -24965.499   -506.83707    474.02282    95.154433    14.503888    27.728805 
   67400    236.73581    -535.1727    204420.41   -23198.651     1718.293   -24916.944   -1343.7058    475.88984    95.155605     14.50424     27.74563 
   67600    243.72361   -191.20557    204420.41   -23166.399    1769.0124   -24935.411   -132.33161    476.48036     95.15798    14.503549    27.753319 
   67800    240.19763   -381.02772    204420.41   -23190.941    1743.4199   -24934.361   -829.87129    479.02131    95.157062    14.502391     27.75262 
   68000    244.42597   -361.78371    204420.41    -23258.32    1774.1103    -25032.43   -733.60043    480.89756    95.157736    14.499699    27.779865 
   68200     245.1917   -385.98561    204420.41   -23222.711    1779.6682   -25002.379   -830.99483    485.47162     95.16024    14.499452    27.794981 
   68400    240.85139   -325.21687    204420.41   -23223.534     1748.165   -24971.699   -618.18113    487.41433    95.159144    14.500299    27.831625 
   68600    235.03849   -439.79428    204420.41   -23246.523    1705.9734   -24952.496   -997.89585    487.16395    95.160102    14.501035    27.830965 
   68800    242.70282   -262.45085    204420.41   -23184.025    1761.6032   -24945.628   -361.04789    487.58836    95.159865    14.498849    27.816875 
   69000    241.17776   -408.04723    204420.41   -23215.435    1750.5339   -24965.968   -885.22707    488.26925    95.159357    14.500129    27.831331 
   69200     236.8789   -364.60956    204420.41    -23271.36    1719.3316   -24990.692   -729.24146    487.51092    95.159332    14.497866    27.829403 
   69400    235.54915   -243.20233    204420.41     -23302.8    1709.6799    -25012.48   -322.11454    488.62334    95.160241    14.501498    27.830974 
   69600     242.7651   -411.28285    204420.41   -23172.993    1762.0552   -24935.049   -896.56847    490.99594    95.160806    14.502556    27.849011 
   69800    239.36716   -164.69392    204420.41   -23230.832    1737.3921   -24968.224    -49.97008    489.72288    95.162228    14.503942     27.86573 
   70000    235.09965   -342.70417    204420.41   -23257.684    1706.4173   -24964.101   -609.04519     491.9403    95.161861    14.506875     27.88034 
   70200    242.83535   -306.13868    204420.41   -23152.462    1762.5651   -24915.027   -495.15421    492.15996    95.162506    14.506426    27.913286 
   70400    237.33148   -256.01504    204420.41   -23166.839    1722.6165   -24889.455   -401.31505    492.74954    95.163532    14.509541    27.907056 
   70600    234.78201   -323.89768    204420.41   -23195.933    1704.1118   -24900.045   -618.16622    493.81166    95.164054     14.51044    27.885341 
   70800     241.6252   -376.53715    204420.41    -23198.18    1753.7815   -24951.962   -799.05326     496.1938    95.163329    14.510183    27.892665 
   71000    233.71864   -266.67575    204420.41   -23249.928    1696.3936   -24946.322   -387.49799    495.00827    95.162459    14.510269     27.86377 
   71200    235.63745   -382.21469    204420.41   -23275.871    1710.3208   -24986.192   -802.14608    493.79335     95.16233    14.511533    27.881239 
   71400    236.01473   -461.60534    204420.41   -23298.169    1713.0592   -25011.228   -1077.8538     495.9213    95.160535    14.510596    27.856731 
   71600    249.86687   -239.81766    204420.41   -23237.018    1813.6018    -25050.62   -316.21377    495.00315    95.158299     14.51122    27.855927 
   71800     239.2647   -509.53547    204420.41   -23329.094    1736.6484   -25065.742   -1288.7172    497.60282    95.156795    14.510421    27.844204 
   72000    236.90616    -258.1191    204420.41   -23349.776    1719.5295   -25069.306   -394.82068    497.02703    95.155159    14.510243     27.82542 
   72200    245.37807   -250.44591    204420.41   -23185.599    1781.0209   -24966.619   -303.37457    498.61941     95.15625     14.51147    27.810961 
   72400    244.37762   -439.73216    204420.41   -23270.334    1773.7594   -25044.094   -987.54995    499.81895    95.155894    14.509832    27.808739 
   72600    245.18572   -81.378211    204420.41   -23270.394    1779.6248   -25050.019    197.25092    498.86041    95.156109    14.510646     27.80657 
   72800     243.4635   -351.75961    204420.41    -23293.96    1767.1244   -25061.084    -719.0228    500.84663    95.155977    14.511173    27.810079 
   73000    236.10577   -322.99677    204420.41   -23326.716      1713.72   -25040.436   -617.18505    501.53169    95.157004    14.511125    27.807208 
   73200      243.228   -480.04772    204420.41    -23266.14    1765.4151   -25031.556   -1194.8762    502.86695    95.157266    14.507809    27.798047 
   73400    240.62069   -415.01424    204420.41   -23234.325    1746.4905   -24980.816   -950.07531    502.03332    95.157911    14.505489    27.819429 
   73600    238.74392   -332.02213    204420.41   -23279.339    1732.8685   -25012.207   -642.41392    504.78137    95.157257    14.504614    27.842413 
   73800    237.65423   -259.60416    204420.41   -23350.466    1724.9592   -25075.425   -385.01978     507.3622    95.156743    14.504721    27.832648 
   74000     232.2858   -286.86436    204420.41   -23314.135    1685.9937   -25000.129   -455.46622    509.09936    95.156506     14.50405    27.852216 
   74200    244.94046    -483.1141    204420.41   -23204.943    1777.8446   -24982.787   -1216.2239    509.78492    95.156573    14.504573    27.864105 
   74400    245.01718   -178.02763    204420.41   -23246.534    1778.4014   -25024.935   -86.485523    510.91145    95.157604    14.509568     27.85138 
   74600    238.87286    -298.0372    204420.41   -23259.659    1733.8043   -24993.464   -542.15869    512.14088    95.157657     14.51252    27.844418 
   74800    243.61259   -411.89441    204420.41   -23279.416    1768.2065   -25047.623   -970.58182    514.69387    95.157254    14.512885    27.837241 
   75000    235.56258   -335.74407    204420.41   -23279.527    1709.7774   -24989.304   -676.01566    518.04446    95.157132    14.512092    27.862393 
   75200    238.86638   -436.25356    204420.41   -23221.232    1733.7572   -24954.989   -996.38648    519.67734    95.159174    14.511611    27.875872 
   75400    238.64677   -469.10929    204420.41   -23317.494    1732.1633   -25049.657   -1111.1629    521.24416    95.160433    14.516489    27.880074 
   75600    241.28719   -279.41734    204420.41   -23266.618    1751.3282   -25017.946   -455.48664    521.94678      95.1594    14.519517     27.90047 
   75800    239.71203   -215.37984    204420.41   -23193.647    1739.8952   -24933.542   -232.30277    522.69507    95.159119    14.523051     27.89642 
   76000    248.00705   -133.76458    204420.41   -23155.121    1800.1027   -24955.224    63.147793    519.71011    95.156988    14.524945    27.867592 
   76200     226.2824   -539.06152    204420.41   -23291.994    1642.4193   -24934.414   -1390.7029    521.56695    95.155647    14.525925    27.882965 
   76400    237.57266    -408.5372    204420.41   -23271.407    1724.3671   -24995.774   -859.56914    523.95864    95.152464    14.523967    27.871823 
   76600    240.62661   -244.90374    204420.41   -23244.842    1746.5335   -24991.376   -337.37274     526.9844     95.15368      14.5249     27.89274 
   76800    240.42836   -319.30645    204420.41   -23263.662    1745.0946   -25008.757   -587.21122    526.88601    95.156186    14.527632    27.892754 
   77000    235.60575    -483.2492    204420.41   -23275.988    1710.0908   -24986.079   -1187.5444    527.60661    95.156265    14.527455    27.881337 
   77200    246.00805   -313.40275    204420.41   -23239.356    1785.5935    -25024.95   -592.26076    525.35054    95.157287    14.525097    27.884737 
   77400    240.81287    -320.7779    204420.41   -23244.035    1747.8854   -24991.921   -590.53495    527.07134    95.158196    14.523624    27.874046 
   77600    242.48776   -290.69038    204420.41   -23267.891    1760.0422   -25027.933   -450.49059    528.49402    95.158658    14.522837    27.854841 
   77800    242.96779   -444.52373    204420.41     -23293.6    1763.5264   -25057.127   -1046.4725    529.77625    95.159269    14.525542    27.849738 
   78000    237.58297   -326.61202    204420.41   -23261.501    1724.4419   -24985.943   -600.50787    528.26481    95.160351    14.525071    27.844855 
   78200    240.67572   -535.25014    204420.41   -23257.808    1746.8899   -25004.698   -1331.3347    530.99464    95.160158    14.525089    27.848309 
   78400    239.53956   -457.38732    204420.41   -23189.979    1738.6434   -24928.622   -1064.5107    531.29744    95.158409    14.522439    27.835073 
   78600     241.7849   -241.56221    204420.41   -23214.801    1754.9407   -24969.742   -300.52958    531.56616    95.157328    14.523357    27.826113 
   78800    242.16047   -332.34242    204420.41   -23179.332    1757.6667   -24936.999   -616.21557    533.44735    95.156249    14.526052    27.845637 
   79000    236.41698   -422.23173    204420.41   -23221.936    1715.9788   -24937.915   -960.01113    533.99436    95.156948    14.527376    27.842343 
   79200    245.88537    -198.5969    204420.41   -23175.788     1784.703   -24960.491   -164.20591     534.3186    95.155503     14.52757    27.817258 
   79400    235.45241   -157.17733    204420.41   -23166.159    1708.9777   -24875.137   -20.157692    534.97885    95.154165    14.530011    27.807458 
   79600    239.74023   -365.38313    204420.41   -23279.923    1740.0999   -25020.023   -739.61085    536.21093    95.154999    14.531706    27.817489 
   79800    240.27005   -348.86742    204420.41   -23217.642    1743.9455   -24961.588   -649.07141    534.23378    95.154717    14.532174    27.823786 
   80000     243.3327   -296.87892    204420.41   -23258.853     1766.175   -25025.028   -511.69397    533.98806    95.154658    14.532383    27.810274 
   80200    232.11311    -297.5337    204420.41    -23288.16    1684.7402     -24972.9   -501.32327    538.07672    95.154795    14.533562    27.818887 
   80400    230.28023   -238.56882    204420.41   -23276.406    1671.4367   -24947.843   -330.38547    539.73104    95.154705    14.534847     27.81066 
   80600    237.05057    -392.9325    204420.41   -23263.181    1720.5777   -24983.759   -820.07111    541.13749    95.154886    14.533762    27.801021 
   80800    241.91256   -265.39336    204420.41   -23209.104    1755.8673   -24964.972   -418.04173    540.10201    95.154452    14.532201    27.804504 
   81000    235.78015   -229.12091    204420.41   -23251.735    1711.3566   -24963.091   -272.72642    539.06863    95.154289    14.529257    27.815553 
   81200    237.44323   -338.90092    204420.41   -23206.002    1723.4276    -24929.43   -691.94218     540.3866    95.154345     14.52984    27.799947 
   81400    241.61267   -401.16179    204420.41   -23198.108    1753.6906   -24951.798   -858.76118    540.21474    95.154451    14.528925    27.788829 
   81600     237.4269   -421.65547    204420.41   -23299.506    1723.3091   -25022.816   -967.50525    544.49777    95.154972      14.5273    27.816075 
   81800    234.09868    -362.9206    204420.41   -23321.183     1699.152   -25020.335   -730.88904    547.62074    95.156871    14.527172    27.835776 
   82000    239.97389    -324.3651    204420.41   -23271.661    1741.7958   -25013.457   -603.27705    553.08178    95.157898    14.527377    27.801466 
   82200    244.81796   -366.55848    204420.41   -23208.705    1776.9555   -24985.661   -727.58143    555.45692    95.156918    14.530028    27.792808 
   82400    236.71833   -296.73487    204420.41   -23264.316    1718.1661   -24982.482   -525.91853    557.06268    95.156564    14.529702    27.820294 
   82600    245.19201   -562.70315    204420.41   -23181.454    1779.6704   -24961.124    -1450.144    559.26373    95.156908    14.529828    27.820096 
   82800     234.9576   -540.98332    204420.41   -23266.041    1705.3862   -24971.428   -1327.7069    560.36316    95.156792    14.528824     27.82054 
   83000    245.49608   -281.54832    204420.41   -23185.392    1781.8775    -24967.27   -467.05501    562.11982      95.1554      14.5305    27.828019 
   83200     241.4296   -379.51784    204420.41   -23206.337    1752.3618   -24958.699   -764.00104    562.31691    95.155153    14.529818    27.837954 
   83400    241.18423    -317.4403    204420.41   -23179.865    1750.5809   -24930.446   -586.32783    561.94365    95.154888    14.530141    27.848111 
   83600    232.99067   -382.96387    204420.41   -23321.151    1691.1098    -25012.26   -816.28419     561.9771    95.155334    14.529697    27.835634 
   83800    239.64545   -240.08495    204420.41   -23263.537     1739.412   -25002.949   -327.12597    563.69513      95.1545    14.531172    27.828737 
   84000    238.83752    -276.4635    204420.41    -23291.14    1733.5478   -25024.688    -430.9606    562.59903    95.153021    14.530794    27.831729 
   84200    242.05805   -207.72056    204420.41    -23271.75    1756.9233   -25028.673    -209.2181    562.97223    95.154746    14.531483     27.81985 
   84400    232.61359   -520.62402    204420.41   -23314.497    1688.3728    -25002.87   -1310.9599    565.75994    95.155352    14.533106    27.835001 
   84600    241.10409   -362.23694    204420.41    -23281.76    1749.9992   -25031.759   -736.37247    567.79009    95.158303    14.531886    27.844343 
   84800    233.44566     -228.385    204420.41   -23320.876    1694.4122   -25015.288   -278.46323    568.52444    95.158437    14.532606    27.828232 
   85000    240.58283   -345.09589    204420.41   -23251.928    1746.2157   -24998.144   -665.10866    567.97907    95.158454    14.533646    27.826201 
   85200    238.17476   -468.55693    204420.41   -23236.006    1728.7373   -24964.743   -1088.3595    570.11606     95.15832     14.53268    27.827671 
   85400     232.4467   -345.92873    204420.41   -23321.467    1687.1615   -25008.628   -688.38498    569.06846    95.159722    14.531592    27.822181 
   85600    233.70086   -180.08332    204420.41   -23287.088    1696.2645   -24983.353   -131.12682    570.89851     95.15944    14.531936    27.825284 
   85800    237.49407   -491.38859    204420.41     -23273.1    1723.7967   -24996.896   -1166.9393    571.47313    95.159142    14.532857    27.822657 
   86000    245.12406   -115.23256    204420.41   -23231.371    1779.1772   -25010.548     126.6026    571.82604    95.158475    14.532421    27.839013 
   86200    241.00787   -567.42266    204420.41   -23193.145    1749.3008   -24942.445   -1456.7663    570.32883    95.157738    14.529288    27.861979 
   86400    234.65458   -261.10421    204420.41   -23279.102    1703.1869   -24982.289    -421.2529    569.63657    95.157009    14.530001    27.868591 
   86600    242.86941   -328.10956    204420.41   -23198.128    1762.8124    -24960.94   -618.98786    573.45109    95.155832    14.528222    27.861647 
   86800    243.44145   -269.70401    204420.41   -23239.598    1766.9643   -25006.563   -389.77142    574.40671    95.155218      14.5284     27.86657 
   87000    238.43566   -409.00417    204420.41   -23199.404     1730.631   -24930.035   -884.17859    573.83744    95.154261     14.52567    27.849405 
   87200    236.98787   -435.66521    204420.41   -23168.674    1720.1226   -24888.796   -1044.4795    576.24734     95.15441    14.525266    27.851757 
   87400    241.36957   -410.70987    204420.41   -23268.813    1751.9261   -25020.739   -903.17288    576.33783    95.155364    14.525534    27.846825 
   87600     239.9139   -277.02007    204420.41   -23144.401    1741.3604   -24885.761   -406.75047    576.69043    95.156925    14.524826    27.859719 
   87800    242.62506   -383.44456    204420.41   -23192.995    1761.0388   -24954.034   -832.11309    579.30121    95.156543     14.52614    27.883452 
   88000    237.22339   -242.56541    204420.41   -23241.134     1721.832   -24962.966   -314.71529    582.20552    95.157543    14.526478    27.869861 
   88200    235.91069   -246.42339    204420.41   -23246.669    1712.3041   -24958.973   -315.78308    583.88701    95.159893    14.526488    27.866476 
   88400    242.03318   -333.25832    204420.41   -23175.891    1756.7428   -24932.634   -696.33602    585.91292    95.159208    14.525806    27.859571 
   88600     238.2174   -299.56511    204420.41   -23226.465    1729.0468   -24955.512   -509.67552    587.09177    95.159228    14.524642    27.840804 
   88800    241.86588   -204.73775    204420.41   -23260.946    1755.5285   -25016.474    -152.3177    587.99108     95.16008    14.522773    27.848457 
   89000    241.93152   -251.84428    204420.41   -23235.972    1756.0049   -24991.977    -356.0956     591.3791    95.160836    14.524409    27.851571 
   89200    234.31746   -395.14854    204420.41   -23240.265    1700.7399   -24941.005   -864.67798    592.48379    95.160628    14.523581     27.86109 
   89400    246.59707     -82.5011    204420.41   -23179.584    1789.8687   -24969.453    182.99062    592.69174    95.161911    14.521862    27.852477 
   89600    233.70897   -327.74911    204420.41   -23339.431    1696.3234   -25035.754   -637.62612     594.3144    95.163081    14.524871    27.843954 
   89800    241.84284    -519.4521    204420.41   -23219.687    1755.3612   -24975.048   -1256.0458    594.94069    95.164547    14.524056    27.838175 
   90000    233.42019   -171.50408    204420.41   -23219.243    1694.2274   -24913.471   -52.953359    595.05111     95.16412    14.523281    27.845766 
   90200    237.30565   -293.13756    204420.41   -23270.539     1722.429   -24992.968   -521.95389    595.49476    95.163558    14.521777    27.828159 
   90400    236.56573   -175.94808    204420.41   -23209.099    1717.0585   -24926.157   -133.73823    598.16596    95.165455    14.520343    27.832043 
   90600    237.24232   -297.72378    204420.41   -23227.441    1721.9694   -24949.411   -526.94853    602.56025    95.167779    14.518643    27.832407 
   90800    240.66599   -448.18835    204420.41    -23200.83    1746.8194   -24947.649   -1063.8407    605.51216    95.169268    14.518707    27.836107 
   91000    238.12971   -440.58977    204420.41   -23232.664    1728.4103   -24961.074    -1017.903    607.37043    95.170346    14.520191    27.832216 
   91200    233.20489   -284.30282    204420.41   -23307.775    1692.6647   -25000.439   -476.97778     607.0497    95.169869    14.521319    27.846974 
   91400    235.27515   -256.45723    204420.41   -23233.729    1707.6911    -24941.42   -392.38654    609.11904    95.170336    14.523355    27.832944 
   91600    238.18049   -398.93011    204420.41   -23125.102    1728.7789   -24853.881   -876.00046    609.78656    95.169398    14.523583    27.819587 
   91800    243.10669   -291.18974    204420.41    -23162.44    1764.5346   -24926.974   -505.33645    608.87457    95.171024    14.524208    27.812501 
   92000    244.88671   -410.27187    204420.41   -23160.083    1777.4544   -24937.538   -915.40295    608.74476    95.170986     14.52718    27.818149 
   92200    241.22313    -396.7447    204420.41   -23179.021    1750.8632   -24929.884   -880.09729    611.12405    95.170919    14.526886    27.816682 
   92400    241.26821   -231.25123    204420.41   -23155.092    1751.1904   -24906.283   -279.26283    611.81259    95.170347    14.528157    27.808692 
   92600    241.44634   -215.25089    204420.41   -23105.251    1752.4833   -24857.735   -236.43848    615.24049    95.171914    14.528085    27.803907 
   92800    239.85985   -511.71852    204420.41   -23182.017    1740.9681   -24922.985    -1281.434     620.8823    95.172549    14.530152    27.787759 
   93000    237.62112   -201.49373    204420.41   -23248.173    1724.7188   -24972.892   -174.95186    622.79462    95.170503    14.533927     27.80242 
   93200    235.69222   -570.66115    204420.41   -23244.201    1710.7184    -24954.92   -1516.2054    626.72422    95.169933    14.535655    27.802447 
   93400    235.90423   -333.06165    204420.41   -23321.193    1712.2572   -25033.451   -634.81866    631.29985    95.168767     14.53822    27.813853 
   93600    240.25329   -550.18755    204420.41   -23259.762    1743.8239   -25003.586   -1375.3629     633.0722    95.169792    14.540219    27.794946 
   93800     236.4792   -324.57062    204420.41   -23280.133    1716.4305   -24996.564    -597.1162    632.12734    95.169591    14.541259    27.795242 
   94000    240.28175    -331.2068    204420.41   -23293.593    1744.0304   -25037.623   -635.90795    631.69582    95.168728    14.543277    27.807555 
   94200    240.03348   -324.87653    204420.41   -23192.241    1742.2284   -24934.469   -671.21108    634.72885    95.168659    14.541148    27.790804 
   94400    238.79598   -276.52575    204420.41   -23222.743    1733.2463    -24955.99   -443.26914    637.98385    95.166853     14.54265    27.785788 
   94600    236.82519    -423.4695    204420.41   -23231.689    1718.9418   -24950.631   -937.66873    637.26794    95.165638     14.53938    27.808792 
   94800    245.61134   -242.72356    204420.41    -23194.21     1782.714   -24976.924   -312.21609    637.35977    95.166618    14.539473    27.815784 
   95000     242.0836   -217.67237    204420.41   -23241.721    1757.1087    -24998.83   -211.40866    636.94505     95.16842    14.540085    27.810007 
   95200    231.76192   -308.79222    204420.41   -23227.848    1682.1912   -24910.039   -594.13448    638.73645    95.168728    14.540762    27.812178 
   95400    239.24955    -539.6005    204420.41   -23201.212    1736.5384    -24937.75   -1361.3272    640.39055     95.16948    14.540237    27.816614 
   95600    239.87251   -282.06908    204420.41   -23179.333    1741.0601   -24920.393   -449.86607    643.88536    95.168989    14.541447    27.811192 
   95800     244.4218   -318.36158    204420.41   -23198.317      1774.08   -24972.397   -587.34956    647.42303    95.170029    14.543038    27.805798 
   96000    243.07165   -484.02545    204420.41   -23216.369    1764.2803    -24980.65   -1158.8808    654.36465    95.169348    14.541999    27.815351 
   96200    249.14075    -318.5929    204420.41   -23175.055    1808.3315   -24983.387   -563.90729    656.61743    95.168257    14.540557    27.815179 
   96400    234.96512   -180.25713    204420.41   -23270.776    1705.4409   -24976.217   -156.79925    658.24352    95.169935    14.537219    27.826982 
   96600    232.31397   -617.91414    204420.41   -23294.446    1686.1981   -24980.644    -1619.789    656.92249    95.169374     14.53522    27.840035 
   96800    240.55977   -119.15431    204420.41   -23262.383    1746.0483   -25008.431    55.124639     652.2031    95.169837    14.534888    27.831597 
   97000    241.53021   -415.99307    204420.41   -23295.046    1753.0921   -25048.138   -896.64212    652.10535    95.169151    14.532886     27.84885 
   97200    237.67289    -304.6909    204420.41   -23267.697    1725.0946   -24992.791   -532.31858    652.72573    95.169049    14.530277    27.839451 
   97400    239.55768   -289.33546    204420.41   -23266.094    1738.7749   -25004.869   -444.64672    653.99757    95.168183    14.530355    27.820394 
   97600    247.29847   -469.09977    204420.41   -23173.951    1794.9597    -24968.91    -1127.373    653.92909    95.165723    14.532805    27.823338 
   97800    241.50135    -206.4748    204420.41   -23193.652    1752.8826   -24946.535   -175.69187    653.30996    95.166013    14.533008    27.805255 
   98000    233.69737   -398.78392    204420.41   -23200.915    1696.2392   -24897.154   -877.94512     653.9172    95.165258    14.536378    27.790726 
   98200    240.12797   -314.78086    204420.41   -23246.328    1742.9142   -24989.242   -623.22515    651.50238    95.164875    14.538272    27.798142 
   98400    241.97303   -307.99834    204420.41   -23165.763    1756.3062    -24922.07   -577.46358    651.88324    95.165848    14.539022    27.812674 
   98600    236.28069   -378.14501    204420.41    -23204.34    1714.9896   -24919.329   -760.63568    651.89731    95.166202    14.541599     27.79035 
   98800    240.83676   -319.83463    204420.41   -23200.465    1748.0588   -24948.524   -626.55584    651.64775     95.16764    14.543689    27.775611 
   99000     246.0266    -287.8893    204420.41   -23260.173    1785.7281   -25045.901   -483.82646    653.16819    95.168587    14.544754    27.769957 
   99200    235.41242   -528.49664    204420.41   -23212.219    1708.6875   -24920.907   -1325.8787    654.85685    95.166999    14.543257    27.761624 
   99400    237.67166    -153.0725    204420.41   -23186.466    1725.0857   -24911.552   -35.549557    656.37513    95.166161    14.541923    27.774189 
   99600    238.37261    -397.8412    204420.41   -23154.272    1730.1733   -24884.446   -876.97453     660.6412    95.166158    14.541987    27.780096 
   99800    247.16128   -505.65181    204420.41   -23179.663    1793.9639   -24973.627   -1250.9466     662.5071    95.166682    14.543244    27.795813 
  100000    242.26818   -408.89714    204420.41    -23211.08    1758.4485   -24969.528   -914.11572    661.59309    95.164991    14.544758    27.811661 
  100200    239.21235   -395.14146    204420.41   -23272.023    1736.2684   -25008.292   -875.11893    663.88283    95.165815    14.546629     27.81222 
  100400    249.45379    -309.3546    204420.41    -23214.24    1810.6036   -25024.844   -521.66809    664.14442    95.166634    14.544902    27.811478 
  100600    242.19744   -303.47768    204420.41   -23234.632     1757.935   -24992.567   -528.90322    665.44899    95.165335    14.542173    27.817002 
  100800    239.08925   -375.59531    204420.41   -23274.021    1735.3749   -25009.396   -781.83376    666.70614    95.164766    14.543306    27.814261 
[...]
 5175800    226.46899   -156.71284    204420.41    -25549.07    1643.7736   -27192.844    22.273305     4682.131    94.424645    13.388289    28.858754 
 5176000    223.15332   -316.75996    204420.41   -25562.816    1619.7076   -27182.523   -548.59586    4688.6655    94.423892    13.388433    28.856359 
 5176200    226.90113   -224.27117    204420.41   -25591.981    1646.9102   -27238.891   -271.61735    4685.0933    94.424217    13.386733    28.856512 
 5176400    222.93452   -274.10265    204420.41   -25533.555    1618.1195   -27151.675   -401.50784    4684.3196    94.424053    13.386735    28.845437 
 5176600     234.4907   -162.99239    204420.41   -25474.062    1701.9974    -27176.06   -1.6295722    4685.7981    94.423863    13.386514    28.849491 
 5176800     229.5865   -296.86097    204420.41   -25544.575    1666.4013   -27210.976   -473.77335    4691.9203    94.424235    13.385167     28.85148 
 5177000    227.54718   -118.45133    204420.41   -25519.233    1651.5995   -27170.832    141.09019    4681.2166    94.425018    13.383906    28.846112 
 5177200     238.5446   -285.96842    204420.41   -25497.098    1731.4217    -27228.52   -439.19956    4688.8708    94.425578    13.383288    28.850136 
 5177400    234.68535   -93.095141    204420.41   -25452.924    1703.4102   -27156.334    219.45004    4683.3957    94.425149    13.382419    28.850885 
 5177600    230.21212   -236.27326    204420.41   -25544.133    1670.9423   -27215.075   -259.50385    4686.4464    94.425656     13.38022     28.84873 
 5177800    226.62567   -249.55592    204420.41   -25575.154    1644.9109   -27220.065   -273.28302    4688.4141    94.425569    13.379948    28.857256 
 5178000    223.13506     -169.272    204420.41   -25572.238     1619.575   -27191.813   -27.540319    4685.2169    94.426228    13.381285    28.857298 
 5178200    223.20332   -220.84525    204420.41   -25558.846    1620.0705   -27178.916   -210.84586    4686.9452    94.427656    13.379775    28.849449 
 5178400    227.70613   -287.45505    204420.41   -25568.216    1652.7532   -27220.969   -416.19564    4688.9822    94.428155    13.378282     28.85238 
 5178600    228.34799   -187.44014    204420.41   -25529.452    1657.4119   -27186.864   -86.243242    4684.0005    94.429225    13.376513     28.85855 
 5178800    230.65998   -287.40435    204420.41   -25545.113     1674.193   -27219.306   -490.04138    4690.4846    94.428547    13.376983    28.856658 
 5179000    224.34374   -260.11549    204420.41   -25563.293     1628.348   -27191.641   -357.50586    4686.6928    94.428848    13.375714    28.862899 
 5179200    225.48713   -282.80507    204420.41   -25563.899     1636.647   -27200.546   -431.89987    4682.7383    94.430065    13.375056    28.857478 
 5179400    232.90784   -215.08569    204420.41   -25492.002    1690.5086   -27182.511   -173.45933    4694.6767    94.431137    13.374339    28.861129 
 5179600    225.36049   -256.14504    204420.41   -25558.246    1635.7278   -27193.974   -338.17344    4686.0026    94.431248    13.373162    28.871599 
 5179800    229.15258   -51.165011    204420.41   -25553.108    1663.2519    -27216.36    362.70372    4681.8808    94.430872    13.371233    28.864257 
 5180000     223.2907   -379.28695    204420.41   -25639.664    1620.7048   -27260.369   -762.40087    4693.9429    94.431395    13.370461    28.863225 
 5180200    217.38695   -14.483485    204420.41   -25624.505    1577.8537   -27202.359    513.87038     4680.762    94.431056    13.370432    28.859236 
 5180400     225.4152   -283.57068    204420.41   -25549.471    1636.1249   -27185.596   -450.51182    4689.0162    94.430669    13.367986    28.845889 
 5180600    224.05341   -199.22635    204420.41    -25545.91    1626.2407    -27172.15   -88.342114    4690.6984    94.430693    13.366306    28.859186 
 5180800    231.00153   -169.12073    204420.41   -25577.959     1676.672   -27254.631    -33.79357    4684.6727    94.430946    13.365791    28.855686 
 5181000    225.57642   -209.91199    204420.41   -25614.628    1637.2951   -27251.923   -168.69578    4688.2708    94.430782    13.364869    28.851274 
 5181200    227.29466   -312.35159    204420.41   -25584.142    1649.7666   -27233.908   -518.34953    4692.3966    94.430735    13.365154    28.862677 
 5181400    231.74397   -15.387373    204420.41   -25502.479    1682.0609    -27184.54    485.91585    4678.8122    94.431105    13.366705    28.853655 
 5181600    220.84448   -358.22081    204420.41   -25614.168    1602.9494   -27217.117   -652.76314     4694.582     94.43147    13.367781     28.85502 
 5181800     230.2583   -58.982028    204420.41   -25502.443    1671.2775   -27173.721     305.2753    4683.6058    94.430587    13.367395     28.85204 
 5182000    225.70243   -346.66956    204420.41   -25530.113    1638.2097   -27168.323   -663.60442    4688.1854    94.431444    13.366444    28.840523 
 5182200     228.5863   -56.124619    204420.41   -25514.724    1659.1416   -27173.865    332.38854    4684.1776    94.431415    13.365576    28.841713 
 5182400     220.1076   -309.31137    204420.41   -25590.391    1597.6009   -27187.992   -512.15867    4687.3894    94.432578    13.365884    28.842445 
 5182600    219.99533   -50.635146    204420.41   -25551.065    1596.7861   -27147.851     370.9616    4682.1049    94.433723    13.365366    28.851255 
 5182800    229.09589   -358.24727    204420.41   -25521.814    1662.8404   -27184.654   -680.06333    4693.6212    94.434248    13.364363    28.853396 
 5183000    231.26688   -24.018703    204420.41   -25499.761     1678.598   -27178.359    446.21773    4678.4411    94.435084    13.363053    28.855829 
 5183200    229.89384   -361.22864    204420.41   -25511.838    1668.6321    -27180.47   -703.54978     4692.476    94.436046    13.362841    28.849575 
 5183400     219.5641   -129.62257    204420.41   -25635.185     1593.656   -27228.841    97.448045    4686.6337     94.43517      13.3633    28.859384 
 5183600    221.38148   -273.55162    204420.41   -25619.648    1606.8471   -27226.495   -408.55738    4684.5636    94.436697    13.362126    28.842088 
 5183800    227.73781   -201.04514    204420.41   -25593.834    1652.9831   -27246.818   -141.51379    4687.3446    94.438399     13.36325    28.844028 
 5184000    233.36892    -253.9091    204420.41   -25512.113    1693.8552   -27205.969   -317.25432    4686.7617     94.43858     13.36322    28.852029 
 5184200    228.14474   -52.158469    204420.41   -25536.652    1655.9367   -27192.589    378.90734    4682.4563    94.440566    13.363715    28.839879 
 5184400    230.58506   -470.10574    204420.41   -25516.476    1673.6492   -27190.126   -1084.3758    4693.5085    94.438677    13.365179    28.845877 
 5184600     227.3816    47.206799    204420.41   -25568.933    1650.3976   -27219.331     720.3758    4676.3568    94.439166    13.366201       28.838 
 5184800    229.79783    -391.8097    204420.41   -25535.995    1667.9352   -27203.931   -837.94209    4692.1553    94.439641    13.365915     28.83689 
 5185000    228.38966   -131.19093    204420.41   -25543.377    1657.7144   -27201.092    120.57042    4687.9143    94.440434    13.364662     28.84476 
 5185200    221.96467   -191.36454    204420.41   -25617.346    1611.0801   -27228.426   -109.88454    4685.2785    94.441736     13.36506    28.838506 
 5185400    226.71414   -214.81035    204420.41   -25552.408     1645.553   -27197.961   -179.88815    4688.8648    94.442255    13.363535    28.855247 
 5185600    228.64654   -209.48133    204420.41    -25545.28    1659.5789   -27204.859   -202.00359    4688.0235       94.442     13.36113    28.845296 
 5185800    231.15425   -133.54858    204420.41   -25529.574    1677.7805   -27207.354    79.056442    4681.6165    94.443143    13.360494    28.840253 
 5186000    230.19381   -238.04146    204420.41   -25532.257    1670.8094   -27203.066   -284.94651    4691.7269    94.443411    13.360632    28.842919 
 5186200    233.20634   -239.14921    204420.41   -25513.625    1692.6752     -27206.3    -256.1591    4689.3194    94.444433    13.360421    28.841629 
 5186400     228.7153    -153.6767    204420.41   -25549.963    1660.0779   -27210.041   -9.1296118    4682.0951    94.445707    13.358561    28.839669 
 5186600    230.20211   -360.21029    204420.41   -25537.147    1670.8696   -27208.016   -720.25626    4692.5714     94.44618    13.357087    28.843851 
 5186800    235.22894   -59.756981    204420.41   -25557.814    1707.3557    -27265.17     352.2376    4685.5536    94.445976    13.357457    28.846352 
 5187000    234.54613   -86.621554    204420.41   -25519.924    1702.3997   -27222.323    283.97602    4684.3889    94.447541     13.35665    28.843295 
 5187200    223.73885   -302.52612    204420.41    -25562.17    1623.9576   -27186.127   -514.54475    4692.4823    94.447295    13.357112    28.845838 
 5187400      225.577   -141.36236    204420.41   -25597.343    1637.2993   -27234.643    67.300019    4678.7086    94.447897    13.355844    28.839476 
 5187600    234.35879   -273.19137    204420.41   -25511.462    1701.0399   -27212.502   -399.93476    4688.9096    94.449028    13.352599    28.838374 
 5187800    224.41242   -247.74351    204420.41   -25560.246    1628.8465   -27189.093   -319.44758    4690.2246    94.449157    13.352293    28.851031 
 5188000    230.20083    -172.1224    204420.41   -25506.673    1670.8603   -27177.533   -51.018634    4681.2264    94.450188    13.351922    28.839237 
 5188200    229.02117   -298.20653    204420.41   -25536.846    1662.2981   -27199.144   -477.91579    4690.5606    94.450829    13.351144    28.837714 
 5188400    235.50407   -171.34991    204420.41   -25531.845    1709.3527   -27241.197   -29.641457    4685.4588    94.451654    13.349605     28.84837 
 5188600     228.0144   -197.29401    204420.41   -25569.466    1654.9906   -27224.456   -128.40284    4681.5975    94.453738    13.349963     28.83952 
 5188800    224.04727   -285.59503    204420.41   -25605.286    1626.1961   -27231.482    -408.3305    4689.5074    94.454502    13.349793    28.833559 
 5189000    228.06294   -130.13947    204420.41   -25567.372     1655.343   -27222.715    58.667391    4684.0564    94.454647    13.349237    28.835653 
 5189200      218.155    -259.8947    204420.41    -25667.21    1583.4284   -27250.638   -327.66373    4685.0742     94.45541    13.345901     28.83893 
 5189400    227.98121   -242.06209    204420.41   -25604.462    1654.7497   -27259.211   -250.21792    4688.0435    94.455706    13.346224     28.84499 
 5189600    230.91721   -156.40876    204420.41   -25544.016      1676.06   -27220.076   -14.687088    4684.0739    94.455889    13.345407    28.837479 
 5189800    219.63088   -224.56619    204420.41   -25564.314    1594.1408   -27158.454   -168.38319    4687.1954    94.456212    13.344255    28.839048 
 5190000    223.81616   -192.64288    204420.41     -25562.6    1624.5187   -27187.119   -125.92386    4684.5224    94.456192    13.343717    28.836994 
 5190200     223.0751   -164.88352    204420.41   -25587.515    1619.1398   -27206.655   -2.8141006    4681.1386    94.457187     13.34335    28.833503 
 5190400     229.9072   -262.18813    204420.41   -25496.419    1668.7291   -27165.148   -334.44569     4689.727    94.457582    13.341738    28.835019 
 5190600    225.90322   -195.14516    204420.41    -25564.88    1639.6671   -27204.547    -123.3447    4685.2008    94.458245    13.340833    28.837369 
 5190800     227.5473    -100.7772    204420.41   -25544.442    1651.6003   -27196.042    214.85418    4680.9701     94.45892    13.342344    28.832958 
 5191000    224.90869   -205.03172    204420.41   -25562.233    1632.4485   -27194.682   -148.02055    4688.9806    94.459771    13.341971    28.831416 
 5191200    222.65257   -270.78235    204420.41   -25559.147     1616.073    -27175.22   -398.74247     4688.223    94.459587     13.34369    28.835292 
 5191400    229.47942   -116.77579    204420.41   -25541.191    1665.6242   -27206.815    133.15879    4682.0137    94.458863    13.344506    28.835268 
 5191600    226.80273   -240.07849    204420.41   -25578.416     1646.196   -27224.612   -274.43217    4686.5366    94.458701    13.345513    28.828961 
 5191800    227.35122   -180.14194    204420.41   -25520.861    1650.1771   -27171.039   -64.477281    4685.9054    94.458109    13.346115      28.8282 
 5192000    231.14056   -149.80348    204420.41   -25506.329    1677.6812    -27184.01    20.170742    4684.5698    94.458968    13.345944    28.836481 
 5192200    224.05641   -254.22466    204420.41   -25565.052    1626.2624   -27191.315   -331.71617    4687.4153    94.459854     13.34649    28.836024 
 5192400    224.45006   -227.31975    204420.41   -25574.108    1629.1197   -27203.228   -243.78535    4686.8362    94.459793    13.346409    28.834665 
 5192600    222.29727    -154.2254    204420.41   -25594.696    1613.4942    -27208.19    51.081693    4684.9565    94.459644    13.347859    28.831297 
 5192800     230.9357   -222.33444    204420.41   -25554.902    1676.1942   -27231.096   -200.61927    4685.1483     94.45959    13.348554    28.839735 
 5193000    226.82894   -280.52343    204420.41   -25609.622    1646.3862   -27256.008   -401.72866      4685.59    94.459978    13.348166    28.833789 
 5193200     228.1299   -222.07122    204420.41   -25546.674    1655.8289   -27202.503   -230.15298    4685.5888    94.461067    13.348005    28.837066 
 5193400    227.09572   -301.72416    204420.41   -25535.467    1648.3226    -27183.79   -519.11022    4687.0383    94.459757    13.350434    28.840469 
 5193600    227.98155   -78.644798    204420.41   -25524.239    1654.7522   -27178.991    265.45528    4681.5457    94.459904     13.35133     28.83276 
 5193800     221.8239   -379.62439    204420.41   -25539.919    1610.0583   -27149.977    -758.8628     4692.319    94.458317    13.351111    28.841103 
 5194000    222.52581   -127.57799    204420.41   -25647.651     1615.153   -27262.804    88.604217    4681.4956    94.456882     13.35233    28.851212 
 5194200    223.27746    -218.8543    204420.41   -25578.461    1620.6086   -27199.069   -210.59125    4684.0373    94.457443    13.353446    28.831308 
 5194400    226.31371   -272.39877    204420.41   -25537.047    1642.6466   -27179.693   -387.49304    4687.2347    94.457339    13.354114    28.840745 
 5194600    227.36551   -256.42316    204420.41   -25494.219    1650.2808     -27144.5   -372.82411    4684.3902    94.456588    13.354955    28.835025 
 5194800    227.73424    -162.5512    204420.41   -25531.746    1652.9571   -27184.703   -26.770596    4682.6563    94.457406     13.35466    28.836475 
 5195000    224.69652   -291.96156    204420.41   -25534.424    1630.9086   -27165.332   -459.97926    4687.7867    94.457219    13.355624    28.835331 
 5195200    227.91457   -163.84863    204420.41   -25535.393    1654.2661   -27189.659   -19.135488    4680.0508    94.456932    13.357433    28.838953 
 5195400    226.22723   -266.35133    204420.41   -25536.186    1642.0189   -27178.205   -374.78952    4687.1469    94.457252    13.359326    28.831718 
 5195600    225.37764    -178.7091    204420.41   -25583.589    1635.8523   -27219.441   -56.124187     4687.433    94.456437      13.3597    28.846273 
 5195800    230.48756   -355.80229    204420.41   -25476.035    1672.9415   -27148.976   -666.19993    4686.8988    94.456851    13.359411    28.839972 
 5196000     227.2098   -120.36282    204420.41   -25558.128    1649.1507   -27207.278    113.37427    4684.3462    94.457554     13.35901    28.845096 
 5196200    226.55269   -317.71479    204420.41   -25558.236    1644.3812   -27202.617   -601.72475    4687.9628    94.456462    13.359378     28.82322 
 5196400    227.59435    -222.7492    204420.41   -25549.689    1651.9418   -27201.631   -224.78037    4683.1797    94.456014    13.357363    28.831833 
 5196600    230.95478    -308.7059    204420.41   -25527.124    1676.3327   -27203.457   -533.36155    4685.8518    94.456423     13.35724    28.841289 
 5196800    225.09538   -187.71223    204420.41   -25521.678    1633.8036   -27155.482   -114.96642    4685.1283    94.455834    13.358912    28.840821 
 5197000    234.34883   -180.90482    204420.41   -25486.054    1700.9676   -27187.021   -80.949097    4685.7855    94.455927    13.358046    28.836417 
 5197200    221.01842   -265.65369    204420.41   -25571.041    1604.2119   -27175.253   -375.75836    4689.0865    94.455415    13.357704    28.842478 
 5197400    229.11652   -279.29736    204420.41   -25569.833    1662.9901   -27232.823   -416.05534    4682.7256    94.454061    13.358314    28.848839 
 5197600    222.09335   -216.26819    204420.41   -25610.518     1612.014   -27222.532   -199.32217    4685.6446    94.454339    13.357316    28.841316 
 5197800    221.55293   -213.16105    204420.41   -25632.449    1608.0915    -27240.54   -193.69475    4686.8156    94.453815    13.356767    28.830367 
 5198000    224.92245     -307.708    204420.41    -25501.62    1632.5484   -27134.169   -535.34285    4684.0309    94.452493    13.357323    28.842696 
 5198200    229.40983   -205.48997    204420.41   -25516.792     1665.119   -27181.911   -185.27521    4684.4364    94.452591    13.357783    28.838087 
 5198400    228.33145   -276.10348    204420.41   -25582.205    1657.2919   -27239.497   -425.32191    4685.4914    94.452035    13.356692    28.843191 
 5198600     222.8195   -121.77842    204420.41   -25625.212    1617.2846   -27242.496    137.49718    4681.9503    94.451551    13.356491    28.837893 
 5198800    225.66052   -339.19478    204420.41    -25548.77    1637.9055   -27186.676   -639.23892    4686.0205    94.451056    13.358166    28.834509 
 5199000    228.69205   -99.228929    204420.41   -25491.746    1659.9092   -27151.655    179.70646     4680.666    94.450848    13.358493    28.835986 
 5199200    227.30538   -320.69213    204420.41   -25554.886    1649.8444   -27204.731   -544.50799    4686.6096    94.450281    13.357755    28.841095 
 5199400    227.81866   -155.47559    204420.41   -25540.457    1653.5699   -27194.026   -2.7495287    4679.8065    94.449825    13.357664    28.838371 
 5199600    225.63571   -224.22387    204420.41    -25524.38    1637.7254   -27162.105   -202.53572    4683.8476    94.450162    13.358755    28.840531 
 5199800    232.20689   -159.12644    204420.41   -25546.425    1685.4209   -27231.846   -51.170457    4683.2102    94.449051    13.358714    28.847122 
 5200000    231.41317   -198.09659    204420.41   -25502.386    1679.6599   -27182.046   -109.93206    4684.5794    94.449739    13.357856    28.845741 
Loop time of 8051.78 on 120 procs for 5200000 steps with 8482 atoms

Performance: 557.988 ns/day, 0.043 hours/ns, 645.820 timesteps/s
97.9% CPU use with 120 MPI tasks x no OpenMP threads

MPI task timing breakdown:
Section |  min time  |  avg time  |  max time  |%varavg| %total
---------------------------------------------------------------
Pair    | 0.24652    | 2167.5     | 6503.9     |5059.6 | 26.92
Neigh   | 0.34293    | 118.31     | 432.62     |1270.3 |  1.47
Comm    | 12.766     | 2271.1     | 6472.9     |4713.1 | 28.21
Output  | 137.2      | 138.37     | 158.12     |  24.2 |  1.72
Modify  | 453.96     | 3214.5     | 7752       |5385.1 | 39.92
Other   |            | 141.9      |            |       |  1.76

Nlocal:    70.6833 ave 226 max 0 min
Histogram: 43 11 36 0 0 0 0 0 12 18
Nghost:    608.2 ave 971 max 0 min
Histogram: 14 2 2 0 12 22 19 10 20 19
Neighs:    0 ave 0 max 0 min
Histogram: 120 0 0 0 0 0 0 0 0 0
FullNghs:  7087.52 ave 28381 max 0 min
Histogram: 68 22 0 0 0 0 0 5 14 11

Total # of neighbors = 850502
Ave neighs/atom = 100.271
Neighbor list builds = 545128
Dangerous builds = 0
write_data 		${DIR}/data.${NAME}_run
write_data 		run_21/data.${NAME}_run
write_data 		run_21/data.ibeam_cooling_21_run
Total wall time: 2:14:29
