
### Dimensions ###


### IMPORT ATOMS ###
read_data ../Box_Setup/data.Ibeam_240K
  orthogonal box = (0 0 0) to (68.908 85.8483 27.9754)
  4 by 8 by 2 MPI processor grid
  reading atoms ...
  8493 atoms
  reading velocities ...
  8493 velocities
group water type 2
1689 atoms in group water
group graphite type 1
6804 atoms in group graphite


# Define potential
#
pair_style          sw
pair_coeff * * MLC_e.sw C mW

# Add velocity/set timestep
#

fix		1 graphite setforce 0.0 0.0 0.0
velocity 	graphite set 0.0 0.0 0.0
velocity            water create ${START_TEMP} ${SEED} rot yes dist gaussian
velocity            water create 240 ${SEED} rot yes dist gaussian
velocity            water create 240 24295 rot yes dist gaussian
timestep            5.0

# Define output
#
compute 1 water msd
compute 2 water temp


thermo	            100
thermo_style custom step c_2 press vol etotal ke pe c_1[4] density

# Neighbor lists
#
neigh_modify        delay 0 every 1 check yes


# Set fixes
#
fix                 2 water momentum 10 linear 1 1 1 rescale
fix                 3 all nve
fix                 4 water temp/csvr ${START_TEMP} ${START_TEMP} 500.0 928347
fix                 4 water temp/csvr 240 ${START_TEMP} 500.0 928347
fix                 4 water temp/csvr 240 240 500.0 928347

# Run 0.05 ns equilibration
#
dump                1 all custom 100 ${DIR}/eq.${NAME}.dump id type x y z vx vy vz
dump                1 all custom 100 run_17/eq.${NAME}.dump id type x y z vx vy vz
dump                1 all custom 100 run_17/eq.ibeam_cooling_17.dump id type x y z vx vy vz
run                 10000
Neighbor list info ...
  update every 1 steps, delay 0 steps, check yes
  max neighbors/atom: 2000, page size: 100000
  master list distance cutoff = 6.67472
  ghost atom cutoff = 6.67472
  binsize = 3.33736, bins = 21 26 9
  1 neighbor lists, perpetual/occasional/extra = 1 0 0
  (1) pair sw, perpetual
      attributes: full, newton on
      pair build: full/bin/atomonly
      stencil: full/bin/3d
      bin: standard
Per MPI rank memory allocation (min/avg/max) = 3.384 | 4.425 | 4.753 Mbytes
Step c_2 Press Volume TotEng KinEng PotEng c_1[4] Density 
       0          240   -298.97748    165492.15   -16025.669    1207.5858   -17233.255            0    1.1252403 
     100    247.35954   -454.29866    165492.15   -16003.901    1244.6161   -17248.517   0.89838745    1.1252403 
     200    240.23218   -521.19426    165492.15   -16044.442     1208.754   -17253.196    1.4175718    1.1252403 
     300     239.7268   -338.26669    165492.15   -16022.296    1206.2111   -17228.507    1.9291931    1.1252403 
     400    231.99523   -504.96498    165492.15   -16030.266    1167.3089   -17197.574    2.2645172    1.1252403 
     500    233.52007   -612.05531    165492.15    -16032.36    1174.9813   -17207.342    2.6447906    1.1252403 
     600    226.26086   -537.04821    165492.15   -16111.875    1138.4558   -17250.331    2.9749074    1.1252403 
     700    231.05495   -450.31482    165492.15   -16085.825    1162.5778   -17248.403    3.2691266    1.1252403 
     800    230.05808   -443.58047    165492.15   -16127.418    1157.5619   -17284.979     3.795641    1.1252403 
     900     229.2587   -420.13348    165492.15    -16089.39    1153.5398    -17242.93    4.1458032    1.1252403 
    1000    235.77991   -491.69782    165492.15   -16040.044    1186.3519   -17226.396    4.6055222    1.1252403 
    1100    239.01199   -252.84521    165492.15   -16048.777    1202.6145   -17251.392    4.9271645    1.1252403 
    1200    228.13645   -623.42116    165492.15   -16104.756     1147.893   -17252.649    5.2983666    1.1252403 
    1300    237.35022   -530.49483    165492.15    -16070.04    1194.2531   -17264.293    5.6775643    1.1252403 
    1400    247.45052   -497.16409    165492.15   -16014.073    1245.0739   -17259.147    5.9627785    1.1252403 
    1500    243.15765     -601.604    165492.15   -16029.056    1223.4738    -17252.53    6.4241987    1.1252403 
    1600    239.84746   -391.62178    165492.15   -16024.882    1206.8182     -17231.7     6.789449    1.1252403 
    1700    239.14941   -390.43191    165492.15   -16054.872    1203.3059   -17258.178    7.2037999    1.1252403 
    1800    241.92972   -530.90556    165492.15   -16062.257    1217.2953   -17279.552    7.4585203    1.1252403 
    1900    245.20498   -521.05501    165492.15    -15985.94    1233.7752   -17219.715    7.7966817    1.1252403 
    2000    256.09581   -398.78572    165492.15   -15960.468    1288.5736   -17249.041    8.0915584    1.1252403 
    2100    246.15443   -472.30796    165492.15   -15976.646    1238.5525   -17215.198    8.5206819    1.1252403 
    2200    252.20583   -517.57424    165492.15   -15976.516    1269.0007   -17245.516    9.0487451    1.1252403 
    2300    238.87872   -501.67137    165492.15    -16021.77    1201.9439   -17223.714    9.4770274    1.1252403 
    2400    249.25652   -305.40502    165492.15   -16022.369    1254.1609    -17276.53    10.109939    1.1252403 
    2500    243.33544   -440.94327    165492.15   -16020.582    1224.3684    -17244.95    10.654334    1.1252403 
    2600    241.72843   -363.90145    165492.15   -16057.781    1216.2826   -17274.063    10.883089    1.1252403 
    2700    233.63894   -539.63298    165492.15   -16029.037    1175.5794   -17204.617    11.350406    1.1252403 
    2800    243.12036   -636.52793    165492.15   -16035.451    1223.2862   -17258.738    11.692021    1.1252403 
    2900    235.67242   -379.38452    165492.15   -16088.264    1185.8111   -17274.075    12.006786    1.1252403 
    3000    238.64131   -389.30796    165492.15   -16105.849    1200.7494   -17306.598    12.213973    1.1252403 
    3100    232.69061    -575.4508    165492.15   -16097.911    1170.8078   -17268.719     12.46814    1.1252403 
    3200    233.53282   -338.65718    165492.15   -16115.296    1175.0455   -17290.341    12.944192    1.1252403 
    3300    236.30837   -474.17467    165492.15   -16090.919    1189.0109    -17279.93    13.130635    1.1252403 
    3400    237.05227   -553.96366    165492.15   -16088.907    1192.7539   -17281.661    13.557436    1.1252403 
    3500    235.45757   -456.50979    165492.15   -16101.837      1184.73   -17286.567    14.039658    1.1252403 
    3600    240.70776   -475.44067    165492.15   -16093.471     1211.147   -17304.618    14.653355    1.1252403 
    3700    235.06003   -464.14943    165492.15   -16120.192    1182.7298   -17302.922    14.969831    1.1252403 
    3800    243.08001   -477.69395    165492.15   -16101.769    1223.0832   -17324.852    15.201219    1.1252403 
    3900    237.49193   -521.70274    165492.15   -16121.327    1194.9661   -17316.294    15.445285    1.1252403 
    4000    233.89499   -281.79081    165492.15   -16135.455    1176.8678   -17312.323    15.704035    1.1252403 
    4100    236.58861   -323.76999    165492.15   -16104.829     1190.421    -17295.25    16.005605    1.1252403 
    4200    232.76666   -505.59735    165492.15   -16081.033    1171.1905   -17252.224    16.345289    1.1252403 
    4300    249.08401   -339.98262    165492.15   -16006.789    1253.2929   -17260.082    16.455887    1.1252403 
    4400    245.25498   -419.40027    165492.15    -16017.38    1234.0268   -17251.407    16.511374    1.1252403 
    4500    244.74773    -399.4613    165492.15   -16062.407    1231.4745   -17293.881    16.718452    1.1252403 
    4600     241.3782   -355.82849    165492.15   -16087.415    1214.5203   -17301.936     17.21282    1.1252403 
    4700    233.47155   -420.53317    165492.15   -16101.034    1174.7372   -17275.771    17.627989    1.1252403 
    4800    240.20989   -547.40124    165492.15   -16058.067    1208.6419   -17266.709    17.877515    1.1252403 
    4900    239.68341   -402.78037    165492.15   -16057.617    1205.9928   -17263.609    18.256445    1.1252403 
    5000    237.49102   -236.31202    165492.15   -16087.343    1194.9615   -17282.304    18.914744    1.1252403 
    5100    230.30643   -626.13603    165492.15   -16103.301    1158.8115   -17262.112    19.240676    1.1252403 
    5200    232.34023   -304.88963    165492.15   -16068.996    1169.0448   -17238.041    19.542729    1.1252403 
    5300    239.81594   -546.02133    165492.15   -16117.961    1206.6597    -17324.62    19.695943    1.1252403 
    5400    242.27601   -461.50577    165492.15   -16090.187    1219.0377   -17309.225    19.768778    1.1252403 
    5500    233.53496   -344.22408    165492.15   -16113.658    1175.0562   -17288.714    20.154388    1.1252403 
    5600    236.98679   -385.58697    165492.15   -16123.195    1192.4245    -17315.62    20.451386    1.1252403 
    5700     237.4148   -460.16173    165492.15   -16090.574    1194.5781   -17285.152     20.97472    1.1252403 
    5800    247.82755   -461.26635    165492.15   -16006.195    1246.9709   -17253.166     21.69167    1.1252403 
    5900    245.06158   -470.98892    165492.15   -16022.912    1233.0536   -17255.965    22.619948    1.1252403 
    6000    239.78161   -256.10715    165492.15   -16093.773    1206.4869   -17300.259     23.41961    1.1252403 
    6100    234.30873   -545.06345    165492.15   -16083.619    1178.9495   -17262.569    24.149981    1.1252403 
    6200    235.57254   -536.45835    165492.15   -16048.526    1185.3085   -17233.834    24.710599    1.1252403 
    6300    244.74241   -441.13707    165492.15   -16011.382    1231.4477    -17242.83    24.627016    1.1252403 
    6400    245.84683    -400.2028    165492.15   -16007.937    1237.0047   -17244.942    24.930536    1.1252403 
    6500    242.09404   -344.15916    165492.15    -16041.81    1218.1222   -17259.933    25.473013    1.1252403 
    6600      241.306   -415.78336    165492.15   -16082.088    1214.1571   -17296.245    26.052168    1.1252403 
    6700     234.9087    -320.6929    165492.15   -16125.531    1181.9683     -17307.5    26.439954    1.1252403 
    6800    242.54641   -681.61809    165492.15   -16098.233    1220.3983   -17318.632    26.623843    1.1252403 
    6900    237.12592   -475.10093    165492.15   -16139.859    1193.1245   -17332.983    26.618874    1.1252403 
    7000    239.06082    -280.3671    165492.15   -16152.703    1202.8602   -17355.563    26.921274    1.1252403 
    7100     243.7142   -565.38262    165492.15    -16093.66    1226.2742   -17319.934    27.660773    1.1252403 
    7200    241.13874   -381.28007    165492.15   -16096.294    1213.3154   -17309.609    28.158544    1.1252403 
    7300    232.10485   -693.62367    165492.15   -16154.033    1167.8605   -17321.894     28.59493    1.1252403 
    7400    237.37519   -445.94023    165492.15   -16152.759    1194.3787   -17347.137    28.752982    1.1252403 
    7500    231.40267   -401.77047    165492.15   -16164.322    1164.3274    -17328.65    29.354006    1.1252403 
    7600    232.58168   -504.78615    165492.15   -16163.042    1170.2597   -17333.302    29.776245    1.1252403 
    7700    238.64752   -512.22426    165492.15   -16146.557    1200.7806   -17347.337    29.781827    1.1252403 
    7800    240.13941   -288.12686    165492.15   -16093.873    1208.2872    -17302.16    29.826219    1.1252403 
    7900    242.64473   -482.41845    165492.15   -16085.805     1220.893   -17306.698    29.799931    1.1252403 
    8000    242.17945   -566.01813    165492.15   -16069.921    1218.5519   -17288.473    30.082888    1.1252403 
    8100    240.21838   -523.70273    165492.15   -16097.795    1208.6846    -17306.48    30.518179    1.1252403 
    8200    239.30214   -267.68613    165492.15   -16136.494    1204.0744   -17340.569      30.4217    1.1252403 
    8300     235.3405    -403.2226    165492.15   -16152.362     1184.141   -17336.503    30.572245    1.1252403 
    8400    236.17909   -482.24385    165492.15   -16133.542    1188.3604   -17321.902    30.828516    1.1252403 
    8500    232.94691   -495.22828    165492.15   -16159.089    1172.0974   -17331.186     30.96699    1.1252403 
    8600    242.56796   -518.28346    165492.15   -16111.296    1220.5067   -17331.803    31.027096    1.1252403 
    8700    234.51319   -437.84049    165492.15   -16174.452    1179.9783    -17354.43    31.177806    1.1252403 
    8800    232.65797   -390.23192    165492.15   -16123.119    1170.6435   -17293.762    31.696829    1.1252403 
    8900    231.47718   -437.56626    165492.15   -16143.187    1164.7023   -17307.889    31.828146    1.1252403 
    9000     237.3606   -565.44172    165492.15   -16102.546    1194.3054   -17296.851    32.354281    1.1252403 
    9100    236.51751   -621.77085    165492.15   -16076.788    1190.0633   -17266.851    32.346601    1.1252403 
    9200    235.49223   -673.63903    165492.15   -16107.232    1184.9044   -17292.136     32.57668    1.1252403 
    9300    231.60159   -394.33922    165492.15   -16118.508    1165.3282   -17283.836     32.81104    1.1252403 
    9400    235.31825   -508.04083    165492.15   -16145.101    1184.0291    -17329.13    33.067359    1.1252403 
    9500    230.39936   -569.34794    165492.15   -16095.622    1159.2791   -17254.901    33.013625    1.1252403 
    9600    232.35614   -658.08809    165492.15   -16135.102    1169.1249   -17304.227    33.241426    1.1252403 
    9700    245.70247   -230.32351    165492.15   -16110.493    1236.2784   -17346.771     33.47037    1.1252403 
    9800    242.25221   -523.22314    165492.15   -16108.665     1218.918   -17327.583    33.949671    1.1252403 
    9900    236.66423   -400.26734    165492.15    -16084.34    1190.8015   -17275.142     33.99191    1.1252403 
   10000    249.08166   -514.72027    165492.15   -16021.231    1253.2811   -17274.512    34.336225    1.1252403 
Loop time of 10.4747 on 64 procs for 10000 steps with 8493 atoms

Performance: 412.421 ns/day, 0.058 hours/ns, 954.678 timesteps/s
99.9% CPU use with 64 MPI tasks x no OpenMP threads

MPI task timing breakdown:
Section |  min time  |  avg time  |  max time  |%varavg| %total
---------------------------------------------------------------
Pair    | 0.0017233  | 3.6379     | 8.2183     | 155.3 | 34.73
Neigh   | 0.0079181  | 0.23877    | 0.52926    |  37.0 |  2.28
Comm    | 1.203      | 4.2647     | 8.879      | 113.3 | 40.71
Output  | 0.15939    | 0.15945    | 0.16019    |   0.0 |  1.52
Modify  | 0.31059    | 2.0625     | 7.8596     | 164.0 | 19.69
Other   |            | 0.1114     |            |       |  1.06

Nlocal:    132.703 ave 256 max 0 min
Histogram: 16 0 6 10 0 0 0 1 19 12
Nghost:    925.641 ave 1160 max 652 min
Histogram: 4 10 2 0 5 19 8 0 5 11
Neighs:    0 ave 0 max 0 min
Histogram: 64 0 0 0 0 0 0 0 0 0
FullNghs:  13924.2 ave 30093 max 0 min
Histogram: 16 16 0 0 0 0 0 8 14 10

Total # of neighbors = 891146
Ave neighs/atom = 104.927
Neighbor list builds = 564
Dangerous builds = 0
write_data 	    ${DIR}/data.${NAME}_eq
write_data 	    run_17/data.${NAME}_eq
write_data 	    run_17/data.ibeam_cooling_17_eq

undump              1
unfix               4



################################################
#######         Run Simulation         #########
################################################

reset_timestep      0
timestep	    10.0
log                 ${DIR}/log.run_${NAME}
log                 run_17/log.run_${NAME}
log                 run_17/log.run_ibeam_cooling_17
