
### Dimensions ###


### IMPORT ATOMS ###
read_data ../Box_Setup/data.Ibeam_240K
Reading data file ...
  orthogonal box = (0.0000000 0.0000000 0.0000000) to (68.908000 85.848302 27.975384)
  8 by 8 by 2 MPI processor grid
  reading atoms ...
  8493 atoms
  reading velocities ...
  8493 velocities
  read_data CPU = 0.020 seconds
group water type 2
1689 atoms in group water
group graphite type 1
6804 atoms in group graphite


# Define potential
#
pair_style          sw
pair_coeff * * MLC_e.sw C mW

# Add velocity/set timestep
#

fix		1 graphite setforce 0.0 0.0 0.0
velocity 	graphite set 0.0 0.0 0.0
velocity            water create ${START_TEMP} ${SEED} rot yes dist gaussian
velocity            water create 240 ${SEED} rot yes dist gaussian
velocity            water create 240 17690 rot yes dist gaussian
timestep            5.0

# Define output
#
compute 1 water msd
compute 2 water temp


thermo	            100
thermo_style custom step c_2 press vol etotal ke pe c_1[4] density

# Neighbor lists
#
neigh_modify        delay 0 every 1 check yes


# Set fixes
#
fix                 2 water momentum 10 linear 1 1 1 rescale
fix                 3 all nve
fix                 4 water temp/csvr ${START_TEMP} ${START_TEMP} 500.0 928347
fix                 4 water temp/csvr 240 ${START_TEMP} 500.0 928347
fix                 4 water temp/csvr 240 240 500.0 928347

# Run 0.05 ns equilibration
#
dump                1 all custom 100 ${DIR}/eq.${NAME}.dump id type x y z vx vy vz
dump                1 all custom 100 run_5/eq.${NAME}.dump id type x y z vx vy vz
dump                1 all custom 100 run_5/eq.ibeam_cooling_5.dump id type x y z vx vy vz
run                 10000
Neighbor list info ...
  update every 1 steps, delay 0 steps, check yes
  max neighbors/atom: 2000, page size: 100000
  master list distance cutoff = 6.6747184
  ghost atom cutoff = 6.6747184
  binsize = 3.3373592, bins = 21 26 9
  1 neighbor lists, perpetual/occasional/extra = 1 0 0
  (1) pair sw, perpetual
      attributes: full, newton on
      pair build: full/bin/atomonly
      stencil: full/bin/3d
      bin: standard
Per MPI rank memory allocation (min/avg/max) = 3.603 | 4.507 | 4.728 Mbytes
Step c_2 Press Volume TotEng KinEng PotEng c_1[4] Density 
       0          240   -298.97748    165492.15   -16025.669    1207.5858   -17233.255            0    1.1252403 
     100    243.48235   -435.35873    165492.15   -16000.192    1225.1076   -17225.299   0.86775345    1.1252403 
     200    233.70992   -465.49014    165492.15   -16042.808    1175.9366   -17218.744    1.3925404    1.1252403 
     300    249.56505   -497.67474    165492.15   -16027.082    1255.7134   -17282.796    1.7496169    1.1252403 
     400    240.04271   -358.27773    165492.15   -16040.879    1207.8007    -17248.68    2.1621325    1.1252403 
     500    239.98612   -218.17088    165492.15   -16054.438    1207.5159   -17261.954     2.498744    1.1252403 
     600    238.68279   -550.61797    165492.15   -16152.485    1200.9581   -17353.443    2.8469006    1.1252403 
     700    243.29234   -447.93886    165492.15   -16140.381    1224.1515   -17364.533    3.3165104    1.1252403 
     800    234.37889   -406.00088    165492.15   -16192.903    1179.3026   -17372.206    3.7372309    1.1252403 
     900    235.35245   -475.98602    165492.15   -16163.783    1184.2011   -17347.984    4.0140294    1.1252403 
    1000    232.55086   -452.87995    165492.15    -16100.73    1170.1046   -17270.834    4.3706622    1.1252403 
    1100     240.2452   -553.90846    165492.15   -16107.662    1208.8195   -17316.482    4.6220171    1.1252403 
    1200    237.65247   -557.09909    165492.15   -16149.563    1195.7739   -17345.337    5.0565542    1.1252403 
    1300    238.71447   -679.08427    165492.15   -16104.545    1201.1175   -17305.663    5.5212077    1.1252403 
    1400    245.34674   -509.65982    165492.15   -16053.229    1234.4885   -17287.717    6.1145283    1.1252403 
    1500    236.35914   -422.68134    165492.15   -16063.715    1189.2664   -17252.982    6.6346997    1.1252403 
    1600    240.56586   -473.66903    165492.15   -16045.555     1210.433   -17255.988    7.1977871    1.1252403 
    1700    243.68086   -527.34669    165492.15   -16065.937    1226.1064   -17292.043    7.7140342    1.1252403 
    1800    239.31014   -304.82612    165492.15   -16076.884    1204.1146   -17280.998    8.0337708    1.1252403 
    1900    243.31902   -611.38299    165492.15   -16000.876    1224.2858   -17225.162    8.2268721    1.1252403 
    2000    251.37361   -522.87579    165492.15   -15983.417    1264.8133    -17248.23    8.6950861    1.1252403 
    2100    246.32958   -549.36684    165492.15    -15987.34    1239.4337   -17226.774    9.0904457    1.1252403 
    2200    248.69211   -324.21457    165492.15   -15988.456     1251.321   -17239.777    9.3488089    1.1252403 
    2300    243.12138   -272.82773    165492.15   -16045.186    1223.2913   -17268.477    9.7311334    1.1252403 
    2400    235.80082   -349.45088    165492.15   -16031.683    1186.4571    -17218.14    10.064252    1.1252403 
    2500    242.58093    -334.2217    165492.15   -16022.332     1220.572   -17242.904    10.648374    1.1252403 
    2600    239.57775   -387.84647    165492.15   -16060.005    1205.4612   -17265.466    10.982691    1.1252403 
    2700     241.3945   -545.14121    165492.15   -16036.584    1214.6023   -17251.187    11.308843    1.1252403 
    2800    239.71596    -457.9995    165492.15   -16046.348    1206.1566   -17252.505    11.751832    1.1252403 
    2900    240.10737   -537.61044    165492.15   -16099.815     1208.126   -17307.941    11.979248    1.1252403 
    3000    238.76796   -457.95785    165492.15   -16125.312    1201.3866   -17326.699    12.197032    1.1252403 
    3100    236.17324   -586.24828    165492.15   -16123.303     1188.331   -17311.634    12.675867    1.1252403 
    3200    233.75566   -439.34352    165492.15    -16134.85    1176.1667   -17311.017    13.395099    1.1252403 
    3300    242.52217   -567.32859    165492.15   -16095.738    1220.2764   -17316.015    13.990784    1.1252403 
    3400    238.81091   -485.05539    165492.15   -16085.627    1201.6027   -17287.229    14.429259    1.1252403 
    3500    238.79034   -446.96918    165492.15    -16084.52    1201.4992   -17286.019    14.615792    1.1252403 
    3600    237.10945   -246.08057    165492.15   -16065.661    1193.0416   -17258.702    14.817741    1.1252403 
    3700    235.77292   -269.57443    165492.15   -16095.691    1186.3168   -17282.007    15.018335    1.1252403 
    3800    240.03737   -515.28566    165492.15   -16063.952    1207.7738   -17271.726    15.519752    1.1252403 
    3900    236.09212   -559.17671    165492.15   -16072.073    1187.9229   -17259.996    15.757274    1.1252403 
    4000    237.78912    -436.6519    165492.15    -16102.61    1196.4615   -17299.072    16.366587    1.1252403 
    4100    239.70749   -626.66307    165492.15   -16074.887     1206.114   -17281.001    16.495808    1.1252403 
    4200    241.38129   -583.40033    165492.15   -16052.901    1214.5359   -17267.437     16.86216    1.1252403 
    4300    256.94119   -308.44391    165492.15   -15994.533    1292.8272    -17287.36     16.90166    1.1252403 
    4400    249.43069   -487.69689    165492.15   -16005.282    1255.0373    -17260.32    17.335734    1.1252403 
    4500    246.36074   -591.32887    165492.15   -16048.642    1239.5905   -17288.232    17.664043    1.1252403 
    4600    236.13847   -547.24558    165492.15   -16070.258     1188.156   -17258.414     17.92906    1.1252403 
    4700    240.10467   -391.15938    165492.15    -16093.27    1208.1124   -17301.382    18.449109    1.1252403 
    4800    240.13132   -518.97672    165492.15    -16068.24    1208.2465   -17276.487    19.091761    1.1252403 
    4900    240.36543   -468.32556    165492.15   -16089.784    1209.4245   -17299.208    19.625753    1.1252403 
    5000    235.99434   -524.12732    165492.15   -16128.275    1187.4308   -17315.706    20.194596    1.1252403 
    5100    236.88864   -385.47795    165492.15   -16145.096    1191.9306   -17337.027    20.785181    1.1252403 
    5200     234.0859   -409.26664    165492.15   -16112.607    1177.8283   -17290.436    21.323421    1.1252403 
    5300    227.56837   -413.33253    165492.15       -16149    1145.0347   -17294.035    21.722204    1.1252403 
    5400    236.88991   -434.24789    165492.15   -16094.748     1191.937   -17286.685     22.39929    1.1252403 
    5500    229.17478   -484.60519    165492.15   -16107.127    1153.1175   -17260.244    23.048437    1.1252403 
    5600    238.24438   -509.85166    165492.15   -16114.533    1198.7522   -17313.286    23.475792    1.1252403 
    5700    235.20785   -511.90364    165492.15    -16085.63    1183.4735   -17269.103    23.936049    1.1252403 
    5800    244.81803   -347.70389    165492.15    -16010.97    1231.8282   -17242.798    24.708252    1.1252403 
    5900    243.49899   -569.15342    165492.15   -16041.351    1225.1913   -17266.542    25.310867    1.1252403 
    6000    234.96725   -472.62593    165492.15    -16126.06    1182.2629   -17308.323    25.824755    1.1252403 
    6100    236.63436   -567.60121    165492.15    -16119.94    1190.6512   -17310.591    26.253632    1.1252403 
    6200    246.04955   -510.08743    165492.15    -16101.11    1238.0247   -17339.135    25.895334    1.1252403 
    6300    242.32097   -658.72928    165492.15   -16079.232     1219.264   -17298.496    25.686242    1.1252403 
    6400    239.44786   -321.83617    165492.15   -16082.511    1204.8076   -17287.319    25.041886    1.1252403 
    6500    235.85089   -363.31071    165492.15     -16112.9    1186.7091   -17299.609    24.949295    1.1252403 
    6600    237.95404   -418.20551    165492.15   -16139.483    1197.2913   -17336.774    24.928983    1.1252403 
    6700    231.00316   -383.53003    165492.15   -16184.091    1162.3172   -17346.408    25.177051    1.1252403 
    6800    240.89575     -426.192    165492.15   -16153.698    1212.0928   -17365.791    25.568728    1.1252403 
    6900    231.11868   -414.50471    165492.15   -16171.353    1162.8984   -17334.252    25.857296    1.1252403 
    7000    233.06028   -401.30018    165492.15   -16160.389    1172.6678   -17333.056    26.192235    1.1252403 
    7100     244.8347   -314.56876    165492.15   -16095.431    1231.9121   -17327.343    26.228009    1.1252403 
    7200    237.02114   -415.77554    165492.15   -16099.707    1192.5973   -17292.304     26.23961    1.1252403 
    7300    231.86186   -353.03337    165492.15   -16159.244    1166.6378   -17325.882     26.52881    1.1252403 
    7400    234.56937   -585.78613    165492.15   -16157.232    1180.2609   -17337.493     26.93002    1.1252403 
    7500    228.58179   -320.51299    165492.15   -16173.619    1150.1338   -17323.752    27.068641    1.1252403 
    7600    231.51523   -452.65602    165492.15   -16179.578    1164.8937   -17344.472    27.173965    1.1252403 
    7700    239.10609   -570.15187    165492.15   -16164.881     1203.088   -17367.968     27.23603    1.1252403 
    7800     235.4951   -512.76989    165492.15   -16106.109    1184.9189   -17291.028    27.163621    1.1252403 
    7900    243.92008   -385.60632    165492.15   -16099.754    1227.3101   -17327.064    27.696983    1.1252403 
    8000    240.39255   -484.45818    165492.15   -16097.408    1209.5609   -17306.969    28.389302    1.1252403 
    8100    238.63629   -523.77962    165492.15   -16126.744    1200.7241   -17327.468    28.947872    1.1252403 
    8200    231.66938   -418.20547    165492.15   -16173.402    1165.6693   -17339.071    29.315273    1.1252403 
    8300    234.37812   -400.85218    165492.15   -16181.894    1179.2987   -17361.193    29.387801    1.1252403 
    8400     234.6007   -523.86093    165492.15   -16160.391    1180.4186   -17340.809     29.73528    1.1252403 
    8500    241.30221   -415.18361    165492.15   -16185.178     1214.138   -17399.316      30.3119    1.1252403 
    8600    240.99544   -353.80371    165492.15   -16135.137    1212.5944   -17347.731    30.575628    1.1252403 
    8700    226.28381   -399.76406    165492.15   -16196.678    1138.5713   -17335.249    31.106366    1.1252403 
    8800    231.64888   -350.20043    165492.15   -16151.441    1165.5662   -17317.007    31.540338    1.1252403 
    8900    228.03229   -540.78029    165492.15   -16170.186    1147.3689   -17317.555    31.861345    1.1252403 
    9000    241.18749   -314.61759    165492.15   -16118.813    1213.5608   -17332.374    31.888529    1.1252403 
    9100    240.40765   -411.00042    165492.15   -16102.334    1209.6369   -17311.971    32.397271    1.1252403 
    9200    243.76011   -428.77434    165492.15   -16139.556    1226.5052   -17366.061    32.492241    1.1252403 
    9300    243.79069   -574.46853    165492.15   -16175.365     1226.659   -17402.024    32.921397    1.1252403 
    9400    240.28289   -381.88192    165492.15   -16206.324    1209.0091   -17415.333    32.962936    1.1252403 
    9500    240.02151   -366.35044    165492.15    -16190.29     1207.694   -17397.984    33.251949    1.1252403 
    9600    230.12137   -474.04581    165492.15   -16246.665    1157.8804   -17404.546    32.927307    1.1252403 
    9700    228.22101   -536.64795    165492.15   -16212.123    1148.3185   -17360.441    33.434753    1.1252403 
    9800    230.01793   -651.18582    165492.15    -16202.72    1157.3599    -17360.08    33.126412    1.1252403 
    9900    245.63901   -492.25705    165492.15   -16176.526    1235.9591   -17412.485    33.249496    1.1252403 
   10000    241.19274   -436.79796    165492.15   -16116.417    1213.5872   -17330.004    33.371764    1.1252403 
Loop time of 5.98269 on 128 procs for 10000 steps with 8493 atoms

Performance: 722.083 ns/day, 0.033 hours/ns, 1671.488 timesteps/s
96.7% CPU use with 128 MPI tasks x no OpenMP threads

MPI task timing breakdown:
Section |  min time  |  avg time  |  max time  |%varavg| %total
---------------------------------------------------------------
Pair    | 0.00080085 | 1.8413     | 4.6373     | 116.2 | 30.78
Neigh   | 0.004205   | 0.13366    | 0.31011    |  27.8 |  2.23
Comm    | 0.20507    | 1.6864     | 4.1758     |  80.6 | 28.19
Output  | 0.14881    | 0.1489     | 0.14982    |   0.0 |  2.49
Modify  | 0.21273    | 2.0962     | 5.5484     | 133.3 | 35.04
Other   |            | 0.07626    |            |       |  1.27

Nlocal:        66.3516 ave         140 max           0 min
Histogram: 32 3 13 16 0 0 2 31 22 9
Nghost:        699.320 ave         917 max         491 min
Histogram: 17 7 11 17 16 10 15 18 2 15
Neighs:         0.00000 ave           0 max           0 min
Histogram: 128 0 0 0 0 0 0 0 0 0
FullNghs:      6945.23 ave       16719 max           0 min
Histogram: 42 22 0 0 0 0 14 29 15 6

Total # of neighbors = 888990
Ave neighs/atom = 104.67326
Neighbor list builds = 566
Dangerous builds = 0
write_data 	    ${DIR}/data.${NAME}_eq
write_data 	    run_5/data.${NAME}_eq
write_data 	    run_5/data.ibeam_cooling_5_eq
System init for write_data ...

undump              1
unfix               4



################################################
#######         Run Simulation         #########
################################################

reset_timestep      0
timestep	    10.0
log                 ${DIR}/log.run_${NAME}
log                 run_5/log.run_${NAME}
log                 run_5/log.run_ibeam_cooling_5
