LAMMPS data file via write_data, version 29 Oct 2020, timestep = 50667

4998 atoms
1 atom types

0.0 157.504 xlo xhi
0.0 40.430543199995086 ylo yhi
0.1408229360672486 23.85917706393274 zlo zhi

Masses

1 18.015

Atoms # atomic

291 1 2.2289095641561043 2.4182883872706764 1.4476112872061537 0 0 0
4349 1 7.204228704396825 2.513097923215536 1.7766184412560735 1 0 1
355 1 5.026078859383347 3.0274174894868504 23.74533796555362 0 0 0
232 1 12.86208405054539 1.1406647072203469 22.438960247984237 0 0 -1
4182 1 0.5785724909603709 19.954501437038104 20.146716017148115 1 0 -1
1520 1 19.434430745078295 20.04221199008698 6.02667523221519 0 0 0
212 1 17.97560566453118 4.721296500509539 2.2154269981655172 0 0 1
379 1 16.806738224624112 2.5133316926903815 3.226087278224019 0 0 0
47 1 16.82797015552814 1.8642139888285527 0.3173007674044328 0 0 0
453 1 25.644207398989515 19.022915878839555 16.689324953285084 0 0 0
205 1 23.69183980150091 2.010469128747293 3.09143235390411 0 0 0
4653 1 0.7120129254079078 16.962576671824074 15.178925241532387 1 0 -1
4438 1 1.123388808355847 18.124137553332574 18.08855645695387 1 0 0
159 1 14.561453303519661 0.09439702472515342 11.14362608194509 0 0 0
4593 1 2.108593480590406 7.317810394611136 0.3659406197091658 1 0 0
61 1 20.444819845724904 19.517096698184414 3.431482333240682 0 0 0
613 1 4.695731805985741 6.708705663146317 1.1186772835246934 0 0 0
43 1 9.602099407805252 3.937271520170556 2.257349945835338 0 0 1
221 1 11.307873204036452 2.413109446453945 4.021162437761786 0 0 1
347 1 12.904024073483944 6.751014847603726 2.1681162708473787 0 0 1
75 1 13.930985241822285 3.067909109281532 2.758760801168047 0 0 0
138 1 18.283519078261598 7.1078613836953615 4.224215230633554 0 0 0
860 1 20.725539393486436 7.986508330744183 3.1782793186117284 0 0 0
498 1 24.37724484025209 4.668060753142678 0.4018045136525389 0 1 0
4359 1 1.7992274831901105 9.972185126851798 0.7186207884942577 1 0 1
384 1 4.510350515224282 10.65491686180027 1.3067686061505832 0 0 0
333 1 9.921986759398855 7.1315196699405545 1.5888844874436778 0 0 1
481 1 8.561067430951645 9.032661708932224 2.9044299575404304 0 0 1
403 1 15.999408045910055 8.402508657748617 23.58724934851538 0 0 -1
261 1 13.675451196402012 9.31772366653576 1.554842011925088 0 0 0
223 1 18.47857664183969 9.85707303062295 0.35454869536675987 0 0 0
158 1 20.873056733180487 7.6057951901734535 0.5366768429263042 0 0 1
1372 1 25.034017699020726 7.964557612743543 3.030187782199607 0 1 0
552 1 0.1479077972172045 13.440520129021971 0.8902855880792576 0 0 1
383 1 6.0025351900450925 11.219452303818164 22.373250803602705 0 0 -1
4804 1 8.753702986549113 11.783183011219599 23.376853947541544 1 0 -1
53 1 9.347613426291447 11.517008288673233 2.508001195386588 0 0 0
4 1 12.277406634323123 14.027987528740573 2.421400183360554 0 0 1
191 1 17.80707610777279 12.524568562227673 23.44952343629542 0 0 0
28 1 17.23232836832786 14.278981990645606 2.07593116225312 0 0 0
84 1 20.225364442724057 10.411969148282157 21.646747605212184 0 0 0
58 1 23.00244377868155 12.527175476913264 1.4030221905892426 0 0 1
840 1 25.410725131072752 11.094705485291035 4.6467931451750335 0 0 0
697 1 25.305660273617555 13.568959253157997 3.137217616975949 0 0 0
777 1 2.6234959398416766 13.812452004677523 2.5781549148818623 0 0 0
269 1 3.7134677795259825 13.428927417707609 0.18772066778727062 0 0 1
398 1 6.348826420609316 13.925031313760783 1.2841234302423998 0 0 0
4641 1 10.06852108632271 15.899778971636254 3.2589826191404523 1 0 1
332 1 10.774765474654458 16.34294998317106 0.6742658831380528 0 0 0
305 1 14.728698130020092 14.313329065296406 0.7560318928923254 0 0 0
530 1 13.220608372622202 17.315794144374276 23.792224253427147 0 0 0
365 1 20.076519153498797 14.940794042626786 3.187845724511662 0 0 1
55 1 22.397428749051663 15.216140901622643 1.6627196994168443 0 0 1
737 1 24.527293563300944 16.91850364788193 1.7489694048778615 0 0 0
279 1 0.5530639857189105 16.56437269029417 0.610942304392487 0 0 0
262 1 6.601750587456387 18.92962932228577 0.48249878078230024 0 0 0
4882 1 5.230583170273739 16.067612716173926 2.5419770652143807 1 0 0
377 1 9.630889529664655 18.665577770077725 0.2703364755921527 0 0 1
610 1 0.3078416260185688 4.110187634961286 0.69519509642374 0 0 0
119 1 16.379812005301993 17.618144191046145 3.493133524245803 0 0 1
527 1 13.664414905287353 17.591928444509996 3.0370159750268826 0 0 0
519 1 18.988118629978228 17.462870366430344 2.3164929320066885 0 0 0
4499 1 1.023740082323702 2.7367758742751755 14.407588924504536 1 0 0
343 1 23.16833535781954 19.60136979647747 2.5970444350219415 0 0 0
1617 1 24.357108853607055 15.73145767310118 4.811203970943947 0 0 0
4447 1 2.2670295748872586 1.3510690203803422 3.906943472916495 1 0 1
95 1 26.10049037088869 0.2725217489658419 0.2544721871156561 0 0 0
4261 1 6.339015280584501 1.455821115662188 5.522861850028726 1 0 0
612 1 21.92346845423697 1.3109217474566268 10.372201773678016 0 1 0
51 1 12.497641065899334 3.123681993584346 6.821805260390279 0 0 1
1273 1 25.739437339453016 18.089995473759444 4.534823437630812 0 0 1
211 1 21.242223380429092 1.2080586149183132 7.739582128455942 0 0 0
503 1 18.02903652675227 2.6969949271562776 5.967908485016681 0 1 0
4615 1 7.1460287102945985 18.663331689768246 5.625041360153668 1 0 0
4168 1 3.9285840347337504 4.634617038738725 2.572145961832637 1 0 1
4866 1 2.2141384534204445 6.166678455800903 4.3283082585271195 1 1 0
4298 1 6.095079323557881 4.0820275865466344 3.985314069664286 1 0 1
4361 1 5.292163175524303 3.770771520270732 6.976457415136354 1 0 0
4434 1 8.340241016938192 5.721711968555658 3.997773468696279 1 0 0
139 1 14.470418953121118 4.212340892077261 5.434263569508034 0 0 0
1128 1 20.418661336189373 4.315604943815696 6.130957290187163 0 0 0
252 1 24.507410125580556 6.559555602223907 6.011103977848958 0 0 -1
229 1 21.990336798594495 5.587373832282157 3.959366135666974 0 0 0
1111 1 24.724632274322083 5.1212781605072655 3.1995365300738308 0 0 0
208 1 5.8358440202595085 8.783345098751518 2.533644291807421 0 0 0
4384 1 4.390008393927524 8.33875857986208 5.067318390430395 1 0 1
4354 1 8.961288656623502 8.845083269592367 5.582650381675022 1 0 -1
4797 1 13.246696680629915 6.7263298054985645 4.842361831965901 1 1 0
476 1 15.186293834814505 10.174781429101234 3.5937239653368604 0 0 0
38 1 15.134381366198678 8.4643651249974 5.852382748766671 0 0 0
1589 1 18.046939923861764 9.810643088079122 3.1573592916520226 0 0 0
961 1 22.944065590715063 8.988578935970462 4.354227214418869 0 0 1
149 1 23.709166467098505 9.70508488649212 7.103275567634485 0 0 0
761 1 2.4653303024457145 10.06127970413827 5.868456566481617 0 0 0
155 1 25.823004905969494 1.8001191374360581 12.67151102765992 0 0 0
4535 1 3.936215185838717 11.52836575481111 3.904494669551777 1 0 0
4840 1 5.859780306197636 12.597598564236264 5.753213393112217 1 1 1
15 1 7.539826786810908 13.252009195842811 3.709935017909719 0 0 0
127 1 10.500459814172313 10.591146471936353 7.180575456879076 0 0 0
226 1 12.045701591594092 11.405238976486594 2.890648074568375 0 0 0
131 1 12.277021170491853 11.547776386195805 5.6508785023025565 0 0 0
725 1 16.02215410896395 12.998441416949548 4.3088445254092695 0 0 0
312 1 19.23141124720727 12.056693752061047 3.875106938701489 0 0 1
254 1 22.084768983282952 11.784642765782266 4.145514942637255 0 0 0
39 1 23.310116102406806 12.5331150375272 6.7634797221288645 0 0 0
4270 1 1.7578554571963354 13.413069225837173 5.851058625200818 1 0 0
4217 1 3.15966306864947 16.140272807372476 4.565604771612587 1 0 0
310 1 8.908248870054182 14.669717626349128 5.49348166953924 0 0 1
390 1 11.950290487367583 14.228193046648041 6.044120735381368 0 0 0
183 1 14.047444158278365 14.939263006922548 4.412133254388269 0 0 1
306 1 18.18599046634317 17.805343207826354 7.250172893905086 0 0 0
808 1 20.006124268484523 15.861699664453063 6.481293022557172 0 0 0
1396 1 26.06998027631229 13.450773555889048 6.853047811946232 0 0 0
967 1 20.28703691076813 19.76012881217917 22.4177913620982 0 0 -1
307 1 0.2053851969913258 16.335822713909124 3.3932849910977674 0 0 0
1077 1 25.730332955241035 12.708051527618553 23.378478969683314 0 0 -1
4873 1 4.145896432794298 18.79003431728799 5.735069443004588 1 0 -1
431 1 7.388940066688662 17.494744895474792 3.085010108513491 0 0 0
1408 1 19.29644715261697 17.491519455581766 23.342575691664084 0 0 -1
465 1 11.260673969561305 18.00799787548528 4.626312420048334 0 0 0
661 1 14.50936083934335 19.14750050872129 6.873712597353024 0 0 -1
1475 1 15.79621061805305 16.966460638952487 6.297296304608122 0 0 0
340 1 21.923926865502374 16.96076288834165 4.6557443771161 0 0 0
52 1 0.9623653317131631 2.246908930443377 10.597819593988602 0 0 1
784 1 18.941237790586364 0.39078550919368715 0.507455425145837 0 1 1
68 1 5.515305298120995 1.3296891478275241 8.991196810650557 0 0 1
4472 1 2.7071003609249003 1.5237254549486967 8.521469324624775 1 0 0
102 1 9.062494826649365 1.4420485758825006 5.819505421314004 0 0 0
4900 1 0.15075469545939882 15.519202555380351 19.835870435192703 1 0 0
629 1 14.145845755733488 0.8426760308676893 7.655159596660243 0 1 1
4459 1 16.102867557524856 2.1525461418771368 9.289019926718451 1 0 0
4556 1 16.580883352912323 4.476809758959758 7.7792024779023725 1 0 0
97 1 18.408637460199337 0.5368942711785988 7.949824318397526 0 0 0
958 1 19.055707006334888 2.4350460502908176 10.443786457517545 0 0 0
125 1 0.04780461092784094 11.297711945101529 22.69504909985529 0 0 0
1591 1 23.91838296526236 3.413905338002803 19.76892970223252 0 1 0
884 1 23.756946334819215 4.9403662825118335 8.403551263864685 0 0 0
4983 1 0.9542206554459215 5.020737574369544 6.464266348128469 1 0 1
760 1 2.5879019499187934 2.922919917093092 6.232847548769674 0 1 1
754 1 4.226770415391079 6.6491319598769 7.187524744915324 0 0 1
480 1 9.597196019198266 4.45012206632039 6.173936710509341 0 0 1
1056 1 7.51999238528793 4.936527762600188 8.062549332046935 0 0 0
4246 1 10.923214595811823 3.0265718307471605 9.549011682546691 1 0 0
358 1 11.063094185944074 6.663342904050517 6.534586388312564 0 0 0
735 1 12.689471210492576 5.4596264364877385 8.825193566402543 0 1 0
21 1 17.886068490962092 5.024154432118118 10.361310617032585 0 0 1
235 1 20.989820444004373 5.863861230276337 8.668667051690948 0 0 0
945 1 20.50637078022717 5.319237710418977 11.332429068571896 0 0 0
133 1 22.597441917902863 8.39529715778292 11.506496796950747 0 0 0
289 1 25.256803204590607 6.460014681065463 10.649475089315665 0 0 1
4515 1 1.6065185243826616 6.725096548749981 8.408288256755194 1 0 0
113 1 6.357524273891937 9.449714733700715 6.559786725100589 0 0 0
170 1 12.656147799438099 9.228395320275638 9.576876857482864 0 0 0
253 1 15.081384091063812 6.860601246536284 8.407396820800148 0 0 0
460 1 10.352812247143172 7.905828486065157 8.922814142487644 0 1 0
360 1 18.67667466391777 6.4442964236819895 7.048875029501448 0 0 0
615 1 19.27816388926023 9.178305436525319 7.846590571432684 0 0 0
1177 1 21.635753410620797 8.61415133327843 8.634484296061919 0 0 0
386 1 25.38813756292691 9.294314192722766 9.58696992056086 0 0 0
256 1 20.15482041884447 1.2750685721642832 4.321460693272044 0 0 0
4225 1 2.237974086884846 11.530395727297897 8.349046604404641 1 0 0
275 1 9.060938637885922 12.924350661424477 7.710313080155172 0 0 0
334 1 14.136126677017835 10.46166232780734 7.590226577062874 0 0 0
41 1 17.653473406736403 14.19008235172178 6.117535603787732 0 0 1
1254 1 15.604624488356734 14.314462739992834 8.155624139427063 0 0 0
783 1 19.205693366488124 11.914701937280153 6.783008789825113 0 0 0
161 1 15.922655693436322 11.623747108122217 9.760818041962866 0 0 0
249 1 21.100616133974878 13.73752694933263 8.24708975321867 0 0 0
537 1 25.223744787374972 12.822663118799287 11.046007992612035 0 0 0
579 1 4.687560949821804 15.122410463823812 6.670001727665714 0 0 0
4258 1 3.880359475003288 13.63801217095182 9.027078808839281 1 0 0
4996 1 7.045534785701554 16.402119181136268 7.1595539819544625 1 0 0
720 1 10.856356400621877 13.94461459596748 9.550820138839963 0 0 0
199 1 12.971655626905084 15.254925607489191 8.35257082904059 0 0 0
1007 1 19.92503787020899 15.034238505170356 10.978946377776953 0 -1 -1
1394 1 22.94202568055268 16.273317834038984 8.139168390831031 0 0 0
451 1 1.1717517441535439 17.81473528944557 8.476781174170968 0 0 0
180 1 3.839589523709049 17.410342377591284 8.954023744664262 0 0 0
782 1 6.067390155550433 19.27743441284955 8.560807412256942 0 0 -1
710 1 8.428887542412554 17.493193724287416 9.461248548882773 0 0 0
4694 1 10.243566461773138 19.128725183594 8.292177914872042 1 0 0
755 1 12.380067176012954 17.693475766709486 7.39441921881798 0 0 0
791 1 19.579545092029306 17.47562813314754 9.635405122701277 0 0 0
336 1 13.678844785871926 0.041122561278503854 19.87152299334745 0 0 0
805 1 22.02148873603346 19.13908787677015 9.416009391035487 0 0 0
197 1 24.001283706996645 15.331247542416673 10.975915320346267 0 0 1
4700 1 3.4727100339076618 19.364538132939117 21.011401812497656 1 0 0
4414 1 7.225884947053612 2.0067917803153072 11.302763110999434 1 0 0
433 1 17.797730823440173 13.987771633725695 20.271569131435076 0 0 0
101 1 12.256688750005575 1.863459415556876 11.919171747766159 0 0 0
65 1 16.192417808596105 2.670190901634725 14.556506377476484 0 0 -1
4461 1 0.7056792638661401 6.097942187075097 22.108785687508345 1 0 0
267 1 18.70683058767434 1.779537074006591 13.317069701057719 0 0 0
762 1 15.81154281649037 17.731249854794182 17.26737390735556 0 0 0
85 1 24.022013929038607 2.9480237384545838 10.941098973658036 0 0 0
315 1 2.5799844913804657 4.88774330041033 10.31579608397366 0 0 0
432 1 17.837282339647516 18.795934100351715 11.126545143196202 0 0 0
4807 1 1.5203329628564664 5.233119447908693 12.866214765585491 1 1 0
62 1 4.554482523530572 2.9986004712801604 11.770449722423027 0 0 0
4253 1 8.740775728886724 4.024857844255973 10.240032023397672 1 0 1
376 1 14.191385244040701 3.771526697639231 10.8223432606606 0 0 0
1097 1 15.9464482377118 4.498324043119328 12.656241646950631 0 0 0
549 1 17.752116860337146 6.858180904064505 13.504260292567583 0 1 0
257 1 23.18977335597534 5.41079938247749 12.252711237619794 0 0 0
425 1 25.00003576307403 18.152552879511276 23.072494388117715 0 0 -1
359 1 23.436376693236596 6.1798650165240385 14.975995343814965 0 0 -1
4403 1 1.972358467182563 9.380307182662339 10.036555584975606 1 0 1
2 1 4.182258159655063 7.565540854542429 10.744825802424122 0 0 1
123 1 6.25063261933981 7.42250656961142 8.898128546349357 0 0 0
541 1 9.636330871118176 6.486848509539214 11.30946369666848 0 1 -1
391 1 11.916948347029887 5.699751178458032 12.090685773059828 0 0 0
268 1 13.479374165186801 7.769154607610946 11.556373850701751 0 0 -1
546 1 16.350471232318398 7.7268273972871295 11.045799847061623 0 1 -1
820 1 18.056267517543898 9.745429089977957 10.136590583183555 0 1 0
1145 1 24.54376079414296 9.963862073554322 13.116960540065117 0 0 0
452 1 1.9125991364836026 10.974197047061251 12.484633736073206 0 1 0
402 1 8.139694757155088 9.506999525022035 9.609494294666055 0 0 0
35 1 8.554344928951314 8.93920369235839 12.471499086400915 0 0 0
190 1 6.474617419211241 12.034957032607124 8.828547748211212 0 0 0
739 1 10.701474553694073 10.497508409274895 12.707494167727928 0 0 -1
497 1 11.8531035487443 11.629651075632637 10.55311293260328 0 0 0
374 1 14.09534935764435 11.945846974426985 12.08317836581464 0 0 -1
106 1 19.595869684306884 12.017780423980335 11.310443483617528 0 0 0
406 1 22.44078396268286 11.520704851119266 9.62620332480209 0 1 0
1434 1 22.567112016570725 12.012979341784332 12.66279780986211 0 0 0
135 1 21.244848643968282 1.6158762175348205 1.1266446432701738 0 0 0
153 1 3.2504507256815636 13.419455908522842 12.020882905185612 0 0 0
4327 1 2.136930074493409 16.03801256503452 12.466884078985837 1 0 -1
469 1 9.3579310244175 15.614316082933005 11.000101092857959 0 0 0
424 1 11.649867342610609 16.250848401927556 12.431825578813772 0 0 0
721 1 16.11402295791189 13.84970813794424 13.113419510186702 0 0 0
459 1 17.061303273263743 14.906446993418909 10.713545351943774 0 0 0
303 1 21.954384126569046 13.877458395794747 14.712584540748827 0 0 0
717 1 20.821995545143384 16.07439354673572 13.347347190548236 0 0 0
587 1 26.0170648262802 13.54022131852177 14.137686471149975 0 0 -1
144 1 4.090400228667444 18.217866615124915 11.474473063852926 0 0 0
616 1 6.8011011973601 18.43305837691033 11.89039638248646 0 0 -1
708 1 13.340894735813432 17.38886890637084 10.62609095928383 0 0 0
446 1 15.72392830927937 17.07710916198659 11.713745433551134 0 0 0
27 1 25.592704112827427 2.4183400281751504 15.696276031086883 0 0 0
664 1 19.636534525963807 18.981511330668646 13.193730999410022 0 0 0
338 1 23.386832249447593 17.68945624686153 14.125918762185746 0 -1 -1
238 1 25.621796416608042 16.24297058673027 13.437320627442995 0 -1 -1
4250 1 2.7856264130730026 1.0767973397555128 12.622213661225343 1 0 0
822 1 7.516829996113193 0.5218790125207055 13.634064663034792 0 1 0
4257 1 3.230394392597241 1.6224556158584815 15.957810891267302 1 0 0
10 1 8.5472195398007 2.778085915423814 16.051459309618643 0 0 0
1654 1 25.79210131657184 16.118132892507038 7.2964610448098846 0 0 0
1139 1 25.304142934116815 1.1523597388475093 19.614921136031825 0 0 -1
765 1 13.714721097931122 2.91176394723858 16.223456343237146 0 0 -1
4199 1 20.856434670501848 3.587741158826952 13.603483587119564 1 0 1
325 1 22.822619883051114 2.8074233287766703 15.611548917870042 0 0 0
763 1 14.926762962628612 15.454468474945385 21.89933178905414 0 0 0
4129 1 3.3085014143343163 6.370109490245107 14.632905348114164 1 0 -1
280 1 5.474367102300595 4.5869808406988 13.767451709514473 0 0 0
4318 1 5.584755816422854 2.984848708123974 15.908977211390715 1 0 0
397 1 8.353833697734677 4.061606785919824 13.381197333100106 0 0 0
239 1 11.46033920911711 3.4819828917537254 13.84875746238566 0 0 0
193 1 11.754248172908243 5.127620260598755 16.267168713080927 0 0 0
1280 1 19.408801993200782 5.261460244412788 15.312256381422705 0 0 0
22 1 21.44399934085159 5.850443481758062 16.828079736435672 0 0 0
3 1 2.410257333058559 9.048345229928822 14.498263074047605 0 0 0
4474 1 6.7440766302055355 10.81198601009008 13.571488222380358 1 0 0
297 1 7.742498814341342 6.920388614323241 14.44758706787599 0 0 0
186 1 10.686999581302778 7.166080229535566 14.438724837019361 0 0 0
730 1 11.923303833780766 9.722693659460887 15.288861414010004 0 0 0
171 1 14.388301390412158 9.30260789617404 13.687399430776996 0 0 0
1251 1 17.01273411465931 9.215881355026044 14.607884249048956 0 0 0
556 1 19.898259107788256 8.074167605737063 12.066165327911232 0 0 0
1143 1 23.983348749916736 8.793729818805522 15.520004540722454 0 0 0
649 1 1.4999965654094 19.324320043461658 0.7158249021492 0 0 0
339 1 5.214060600119348 8.220420161805592 13.168714446467263 0 0 0
222 1 5.871230095517491 12.850198579788165 11.586145947966754 0 0 0
295 1 10.059383794586418 12.951812329741124 13.787275564737666 0 0 1
266 1 17.725109617247227 11.665830102583437 13.794797670625018 0 0 0
1092 1 18.762994384152943 12.409749865014327 16.251613707115755 0 0 0
495 1 21.81649374358152 11.327818501340882 16.29013297994381 0 0 0
493 1 20.700698108972322 10.228946002715093 13.856136843615591 0 0 0
17 1 24.87067097030415 11.890289089764204 16.732351649090386 0 0 0
4545 1 3.2746791259392958 13.149274087024326 14.81014863494054 1 0 -1
795 1 7.771466856116949 14.426631727479258 12.823764223884671 0 0 0
788 1 12.690410844003722 13.993741018034054 13.464898271563902 0 0 0
475 1 14.281972028938183 13.975510949574451 15.791230176753253 0 0 0
378 1 16.709088527699205 14.578987906961606 17.551195011440743 0 0 0
314 1 23.179936662676017 15.966636482457954 16.44804096009221 0 0 0
173 1 10.289082318144152 0.9452007638400098 14.662520692044279 0 0 0
1136 1 23.76725953953076 19.580984437044197 11.869801053721467 0 0 0
100 1 5.238474487285795 18.019889233359404 15.35576274212655 0 0 0
1364 1 22.33261077527013 19.340647729970144 6.7214084993359835 0 0 0
4181 1 7.425106370947457 16.794194908128908 14.159740862003764 1 0 0
422 1 11.603943436939193 18.04429226116446 14.473144222906576 0 0 0
441 1 17.584466346073235 19.35104281544932 15.164868620429239 0 0 -1
643 1 19.019847284077446 15.215734758248486 15.394876809057752 0 0 0
342 1 16.372217082327197 16.394808734662988 14.759572893332221 0 0 0
505 1 25.69542751161004 14.688550951548597 17.10403041671274 0 0 -1
8 1 23.30269796329312 19.876395812410845 15.840939059394083 0 -1 -1
4941 1 0.8977716228374096 10.032760817874165 3.39134044455029 1 0 1
4956 1 1.305557012410464 1.6489453105736356 17.788753775769152 1 1 0
757 1 12.877173235728662 17.61159024979775 20.699336868687453 0 0 0
4945 1 6.533314969908367 1.7356134382761 19.926383285383935 1 1 0
591 1 9.359530433296046 1.6033071390402243 20.528105654739015 0 1 0
863 1 20.347970951007557 0.8035681492563843 20.67073648904587 0 0 -1
54 1 15.864535153128957 2.199394873382034 19.022611068849496 0 0 -1
194 1 17.657443972620044 2.92118079916921 16.778237651334855 0 0 -1
809 1 7.263858991476684 19.910986341831336 19.057201800148697 0 0 0
228 1 19.85293710061716 1.3863581616573473 17.814153590989232 0 0 0
747 1 17.543046774858393 16.478537137092577 21.451656896777983 0 0 -1
4335 1 0.3964238574300211 6.380361878927924 2.460289731700433 1 0 1
4392 1 6.385700529773111 0.75495005621543 22.73262623160877 1 0 0
110 1 2.490342131465001 5.769094242931918 17.185127500768033 0 0 -1
681 1 4.994506666042381 4.801309360956816 17.89193083946659 0 0 0
66 1 8.993174648205466 6.389846286181539 18.952351226560328 0 0 -1
302 1 6.787233876255174 6.899166273267614 17.231874496428116 0 0 0
181 1 9.835665927026042 3.9046898234472978 18.69383240250609 0 0 0
461 1 12.631389697119811 3.138241645031329 19.320047503628164 0 1 -1
367 1 13.553447263574448 5.713920139669528 18.281146503933957 0 0 0
188 1 16.171245048562078 6.675742337522855 19.36187063648295 0 0 0
145 1 18.096641907296437 4.700581801802226 19.12662891500704 0 0 0
1016 1 20.651648309129992 5.159128868663962 19.877000601022086 0 0 0
274 1 21.81621973801039 3.271453383754983 18.174565511201394 0 0 0
1629 1 25.50820581922423 5.885708892069799 19.913651819610504 0 0 1
259 1 1.465596270076139 7.981317048120074 19.019018402438334 0 0 0
4634 1 7.103178448816331 9.54098804465437 17.845916986052398 1 0 -1
162 1 9.652830910678931 10.262368037220833 18.644596192956563 0 0 -1
141 1 11.587521729078723 8.141281022643545 18.929636164846407 0 0 0
187 1 13.842105362101346 9.65045817163204 17.663897344147795 0 0 0
671 1 15.67051526832837 7.939457479258168 16.87551164260694 0 0 0
329 1 21.335664713932655 7.663513547420562 20.723587776507728 0 0 -1
1564 1 21.792716832160263 8.732210441504737 17.6745856736883 0 0 0
298 1 24.09777981843666 8.286881129518509 19.35926137455234 0 0 0
4686 1 2.4509723283596454 9.897351379228999 17.317055187496425 1 0 0
318 1 9.630376538741377 18.566983637727635 20.574750015494743 0 0 -1
4730 1 4.755796740454744 13.051406684867025 19.183230510918257 1 0 0
96 1 4.679368472073147 10.623455899908055 18.431336491046604 0 0 -1
445 1 5.647405834446833 13.991354354552799 16.579380481210276 0 0 0
417 1 7.334920795983279 11.537805892223721 16.10114684143103 0 0 0
516 1 10.553547493353616 11.933784866205407 16.33575465768611 0 0 -1
753 1 13.070705913985192 12.39540135011389 17.939351713335594 0 0 0
317 1 17.21068224216498 10.424223699474096 17.808945972918686 0 0 0
323 1 19.86065358937716 10.262942145910726 19.052566693310798 0 0 0
745 1 20.585252072180868 12.959255705473293 18.70942870100849 0 0 0
936 1 22.969119123073202 13.294413744055186 20.24256079791975 0 0 -1
526 1 24.805030221146446 11.035204266073263 19.747817959421216 0 0 0
74 1 6.167389210466627 18.050293487875294 21.629312487820133 0 0 -1
4157 1 1.20945177588501 12.177864573562138 16.705326030989387 1 0 -1
176 1 2.3894638294664046 14.219938295010891 18.33678519796513 0 0 -1
160 1 5.909548293091531 17.672554898640925 17.991459354974477 0 0 0
293 1 7.9037083518689295 15.70108183320022 17.599243314456018 0 0 0
634 1 12.477748128903361 14.427197949934564 19.948555980879423 0 0 -1
575 1 19.52573772389387 15.805786421825692 18.127062958016285 0 0 0
91 1 23.409443704970858 16.166098784053236 21.183576112818905 0 0 -1
818 1 22.20844908460897 17.012088573963428 18.759146496852022 0 0 0
1502 1 25.663496868301564 15.119823720887133 20.036321449157978 0 0 -1
26 1 3.3341700500922076 16.054966038911786 15.47805601096567 0 0 -1
751 1 9.405109262959732 17.81734115580926 16.03061994862116 0 0 0
577 1 3.980599299715658 17.691660534566882 0.5126233556422422 0 0 0
200 1 11.163981935132265 16.690836317580985 18.41288534561838 0 0 0
496 1 13.292733430427079 16.54943871007997 16.304783938429846 0 0 0
706 1 17.9684187711975 17.933902361818056 19.249060424813774 0 0 -1
467 1 21.973116394416977 19.564167242966867 17.91849686188122 0 0 0
602 1 2.238017701885382 1.7251526291573558 20.396541658948948 0 1 0
93 1 4.566603490564284 3.4944423909843847 20.369252866546287 0 0 0
115 1 9.204720510773996 1.9501903865274182 23.241837769177835 0 0 0
4964 1 0.35139899476434705 3.975297666257694 16.903972609196973 1 0 0
772 1 13.85190433714217 4.806294415266915 0.690883097943549 0 1 0
103 1 17.47336418184176 2.9937207263476804 21.2788167055614 0 0 -1
523 1 22.91347546549864 2.6212815266854 5.787451225768701 0 0 0
157 1 20.489533517642958 3.5260845448547147 21.99849799889885 0 0 -1
462 1 8.008991652793586 15.718250389745705 20.519496186732308 0 0 0
4775 1 5.539893165805566 5.370051183097735 22.45981683935396 1 1 -1
319 1 10.300047661998837 4.670278838686685 23.40076886733334 0 0 0
722 1 8.370164977678884 6.237541090330512 21.85309870854768 0 0 -1
648 1 12.573953285739575 4.006674743478036 22.04804224094674 0 0 0
438 1 11.790412575865648 7.34263595593584 21.77700614533632 0 0 0
4537 1 14.676364880382373 6.69306255819864 21.685447875923924 1 0 -1
1032 1 21.621598214929566 5.043913459848901 0.3956856568167055 0 0 0
911 1 20.293664492014113 3.641570667359793 2.6703329676505394 0 0 1
1609 1 21.169154069685305 15.539636785390748 22.859145799037705 0 0 -1
169 1 23.281714254941956 2.5826020991649634 22.334044056557772 0 0 0
172 1 3.9459823736318294 9.911478271771191 20.776189132288792 0 0 0
331 1 3.389073261678648 7.030806624705361 20.996721058755917 0 0 -1
4710 1 10.660714575344075 10.72446390715891 21.15518841490722 1 0 0
387 1 9.41067254960632 8.652856203396158 23.13298587143877 0 0 -1
345 1 13.521938788873694 11.753245413788836 23.518438904148855 0 0 0
195 1 13.305668815722543 9.910320769162048 20.911973488260216 0 0 0
353 1 16.78006766184788 5.102203542786098 23.401187346767042 0 0 0
335 1 18.787476870986744 6.940739418485848 22.391051763040384 0 0 -1
271 1 25.253537609494106 6.900126209515334 22.74543592911362 0 0 -1
362 1 23.137679678936944 8.602041565573783 22.718910369630052 0 0 0
4427 1 1.8851832486123015 11.924673608978011 20.608291974719425 1 0 0
483 1 6.207786652983587 13.901441630630837 21.72441200096208 0 0 0
5 1 9.353667848667746 14.600650518155126 22.845886254309516 0 0 -1
4484 1 11.639831855299244 13.128004364756599 22.162194462304264 1 0 -1
14 1 15.850396155927266 11.169044188933508 22.060383474893616 0 0 -1
393 1 15.56734810434917 12.01021644903446 19.24051620089782 0 0 0
1212 1 19.9591059017381 13.202128949164754 21.915804951794296 0 0 0
1389 1 22.93539443035805 11.473795146168657 22.511519282901375 0 0 -1
4485 1 1.5291251472314176 14.876062873499421 22.251523438957033 1 0 -1
292 1 4.159511151461084 16.068545315384174 21.847307109192247 0 0 -2
351 1 3.395228708591084 16.844264827006484 19.037161029999236 0 0 0
975 1 25.426024075754047 2.9080571808204922 7.181232762637026 0 0 0
246 1 14.035145066915277 19.688620105217456 19.00321454147715 0 0 0
225 1 12.61243035415677 0.33311721893315926 15.883532194952744 0 0 0
313 1 13.268553102356647 20.070971707705844 0.586069037896926 0 0 1
4779 1 3.479366612607546 19.9884289116597 3.1526891583825067 1 0 0
4148 1 9.825924574830958 0.6063823081130382 8.423182095150047 1 0 1
473 1 0.04204065072673302 12.508891931916438 3.662157710116371 0 0 0
4837 1 6.684485360568344 0.035036862095175536 2.895506426311763 1 1 0
929 1 25.23168364517257 0.22816071039324726 6.882422296275741 0 0 0
864 1 15.053025516903487 0.07181744447677119 14.003133232905892 0 0 0
1552 1 23.090500310338648 20.087503951090042 22.266491638364872 0 0 -1
168 1 10.93926504430395 19.92173139267938 2.672850548658968 0 0 0
630 1 0.9140171767690125 31.77488175504822 8.005653942961846 0 0 0
4625 1 5.084306138933922 22.073896271943884 2.6162276286610053 1 0 0
154 1 6.077752503243651 21.787984442359654 0.1688622003740825 0 0 0
535 1 8.956048178559143 22.600784451727534 0.6349555323524784 0 0 0
4982 1 6.989133808070578 22.155745038429295 4.650949219829113 1 0 0
189 1 8.132482473213571 20.414443265650444 2.894290406442195 0 0 1
4492 1 11.336370827977479 22.87057916147386 2.8009274459472238 1 0 0
574 1 13.817061414350656 20.44660267571746 4.3391812830428975 0 0 0
4448 1 12.369673654810606 39.93443000555392 9.089486504606365 1 -1 0
685 1 0.04091589102238659 31.691187122338988 15.781058851383154 0 0 0
130 1 20.04610518401428 21.4413779538146 1.1959443099862976 0 0 0
1657 1 21.77603392045365 23.583659463355723 2.2171274566641452 0 0 0
1135 1 23.456299055445154 21.805852890359557 0.7696895068217702 0 0 0
485 1 2.2227595935945015 24.70860589763893 23.097426432428605 0 0 0
4989 1 3.693278723444849 24.517029247455334 2.0035683922585807 1 0 0
412 1 6.283554528888435 25.72988537509872 1.969649082827823 0 0 0
557 1 11.281887454766444 26.342155366310603 23.830857681930013 0 0 -1
642 1 14.361728169158562 25.689217330712978 0.7435080605155291 0 0 1
633 1 17.474543103875227 22.129006304734553 1.297695839483485 0 0 1
559 1 1.9176697346538298 28.3499847666983 0.7373401017476595 0 0 0
400 1 6.463126692320617 28.570522277178167 2.1583064406493775 0 0 1
756 1 4.981931291893036 28.193219500166634 23.520824821015943 0 0 0
570 1 8.868462125603624 29.392537960721935 22.12947854535407 0 0 -1
564 1 11.701907750309482 29.466762632603096 22.807254698511294 0 0 -1
1610 1 18.676770974849163 27.319397113407202 1.6073814323418942 0 0 1
42 1 20.50290409030038 28.79134775224228 3.803129083295281 0 -1 1