LAMMPS data file via write_data, version 29 Oct 2020, timestep = 60667

2070 atoms
1 atom types

0.0 157.504 xlo xhi
0.0 40.430543199995086 ylo yhi
0.1408229360672486 23.85917706393274 zlo zhi

Masses

1 18.015

Atoms # atomic

34 1 49.040339507138455 1.861506745380332 2.1106057148719937 0 1 0
576 1 51.7154266229806 2.7535522116667805 2.731134386563401 0 0 1
23 1 47.33660894721059 2.9061490152167373 4.414459070189273 0 1 0
93 1 48.90549385511591 6.440370248965745 0.984620241964662 0 0 0
31 1 48.658132291520225 9.2349341632333 1.5926677940702256 0 0 0
14 1 47.01406593269087 11.356768520720344 0.849123569874386 0 0 0
370 1 49.686630368950276 15.356154104754433 1.9767016195764802 0 0 0
94 1 50.09607941342448 13.585795110008156 22.843221358475645 0 0 -1
231 1 51.733075736655096 17.150123880394183 21.85322962002922 0 0 -1
41 1 48.05987454876381 17.049758145875455 0.42592467506544385 0 0 0
9 1 51.28931400970865 0.22612574503380753 6.165332913670203 0 1 0
50 1 50.78476395643908 12.424981396285132 6.0143102234094945 0 0 0
589 1 52.316774919853664 12.631573250666888 21.493200495571397 0 0 -1
5 1 52.42708539211986 9.866130478837327 19.939584243799693 0 0 0
22 1 47.4359975199146 1.0901894473512426 6.119561519610261 0 0 0
321 1 50.740282231530095 5.313160432926379 2.8302623600685357 0 1 0
29 1 49.28648209855045 4.929456010426119 5.315808393278475 0 0 1
21 1 50.61469304140989 7.630962366538147 5.464098213869762 0 0 1
988 1 50.51009619887718 19.74429562317275 22.259113440857842 0 -1 -1
283 1 48.253304484953055 13.25121680056063 2.8079188414231155 0 0 0
95 1 48.426595836355304 9.303378390501889 5.032565445024907 0 0 0
306 1 49.933236717544894 11.33403099553654 3.4986651908743545 0 0 0
422 1 46.67709208973369 14.401411743613481 4.620944123516701 0 0 0
80 1 48.63203536236245 16.370500949885123 4.40467484761313 0 0 0
294 1 50.90675236248609 15.227633249652223 5.901038289874859 0 0 0
431 1 50.61893664112907 18.44851145744966 5.567677671500115 0 0 0
155 1 46.98404896721359 17.164547846948942 21.32980227268947 0 0 -1
567 1 49.16375611128586 1.1292355342587914 8.81335287450382 0 0 1
88 1 49.19959302369302 2.1890370631210647 11.859076154922702 0 0 0
808 1 46.32526022246167 18.507847031655327 10.8261439720747 0 0 0
8 1 50.44518261470362 2.823805664735624 6.731475477384096 0 1 0
24 1 48.27212836563068 19.743233722722064 20.93325068306374 0 0 -1
60 1 50.63694079470338 8.192588251767123 8.235406088397268 0 0 0
98 1 50.860823122629135 5.934514086392335 9.994315477920624 0 0 0
91 1 46.55354395842565 12.847760063487367 6.804107214224234 0 0 0
11 1 48.56941611277466 10.891611471708517 7.274222828660667 0 0 0
79 1 50.417412240510615 10.858094302971658 9.569947699017646 0 0 0
57 1 46.99273129673262 15.42127895106254 8.413725448475077 0 0 0
42 1 51.75003588719896 15.993228305772078 8.242480649292832 0 0 0
188 1 48.11802249417957 19.684630189404654 6.336794885821206 0 0 1
264 1 52.108197828720975 14.603493285407382 19.64429292685277 0 0 0
186 1 46.5188096622691 17.18718797138172 6.273671994948064 0 0 -1
45 1 51.34200661679008 18.740253897435778 8.192071138165593 0 0 0
65 1 51.899234708692084 2.0963858367502617 10.21112018657666 0 0 1
84 1 49.68944881046186 5.051837723534068 12.413687274843436 0 0 1
63 1 50.54188130244794 12.59417085724617 13.73394691737781 0 0 1
59 1 49.742193352455246 12.979371156805191 11.008333808601275 0 0 0
99 1 49.59556271052045 15.239080469012563 9.758601808991898 0 0 0
150 1 48.78825673197236 19.659254965003726 0.67858990125487 0 0 0
43 1 48.700672696267944 17.09577838717573 11.502763557231953 0 0 0
101 1 50.619483232412534 19.179546212749983 11.930762766566646 0 0 0
46 1 52.40054321514777 10.985183433392432 17.49766546192989 0 0 0
71 1 51.40691191121117 0.8422099174232682 15.446553859547604 0 0 0
203 1 50.9479409765852 3.6270298667351373 16.75484533239883 0 0 0
92 1 51.33599791944133 5.737448315920421 14.581357241581259 0 0 0
28 1 51.33256748993422 8.02739970783577 16.331659900358062 0 1 -1
436 1 50.0270532886715 12.107402944545479 16.481748113026818 0 0 0
520 1 49.71769611828281 15.601585419131075 13.486703095658621 0 0 0
2 1 49.545441242879875 15.674412320647328 21.052422311033453 0 0 0
568 1 48.25672956315184 2.4320413272516794 19.609405488198817 0 0 0
97 1 52.21539114617701 4.105727837177903 8.708711617534117 0 0 0
53 1 49.1235345882516 5.0813892246924635 18.448735610994003 0 0 0
52 1 50.68721519335152 6.949673499290243 19.892534237862876 0 1 -1
69 1 48.69011307321244 8.003630074758282 17.49410995508455 0 0 0
238 1 47.97087633939878 10.619751299413837 17.748186785436694 0 0 0
49 1 47.294205632484484 15.557554844484326 18.91695951337879 0 0 0
547 1 50.01688409299662 14.571752870730178 17.82945317404675 0 0 -1
597 1 51.81798216179187 17.835647712941437 18.625773837242182 0 0 -1
82 1 50.41641719807261 17.349963521761598 15.669997219778363 0 0 0
77 1 48.16850309259215 17.59411337643178 16.93896945275866 0 0 0
274 1 46.683318519810264 2.509024256376792 21.860461270240542 0 0 -1
492 1 50.624893743142515 2.3484524686717636 22.486696258523974 0 0 0
569 1 48.36595472063125 3.6257508841955906 23.719342339641848 0 1 0
15 1 50.91168919400055 6.963787560867487 22.685839720828852 0 0 -1
51 1 49.46667877990187 9.62543648822863 20.36271222752924 0 0 -1
343 1 50.650243770131304 9.532107394818844 23.09717509811117 0 0 -1
7 1 48.20658928879467 11.917691147223403 22.155586754129057 0 0 0
4 1 47.52007836171523 12.711900033102257 19.617327903758063 0 0 0
596 1 50.36224258816922 19.911204504133092 14.807414604910571 0 0 0
47 1 51.5777927241494 9.639365410153177 11.904979145959791 0 0 1
229 1 52.19588315602865 14.29358100575817 1.7741437041551742 0 0 0
48 1 51.13969050546445 2.6202623212686267 19.96110557437881 0 0 0
625 1 48.67926609914563 19.524301285229637 9.033836635151332 0 0 0
177 1 44.782272527552664 23.591935830525042 3.026744051914559 0 0 0
180 1 47.058881188575285 22.03956648853521 1.9337336567633576 0 -1 0
161 1 52.30684082759461 29.954221566381978 12.1297391582044 0 0 0
129 1 46.56306594503802 29.40316629373766 21.701448909388095 0 0 -1
977 1 50.14418133358643 24.060486457699515 1.4915689611204443 0 0 1
126 1 45.756029803973426 26.06155668876642 1.581176425193845 0 -1 0
105 1 49.185867357217454 30.398476720593436 1.2085959707803222 0 0 1
119 1 50.34453702849872 27.9206468102001 1.3869295421061247 0 0 0
167 1 45.52448632283248 31.237486860542433 23.323851058986335 0 0 -1
136 1 46.77816257459212 30.778251342424365 1.9560686624199248 0 -1 0
115 1 50.82082517574065 33.0271862863095 0.4080401228239728 0 0 0
183 1 48.33685393649724 36.48877047759665 1.631311445025442 0 -1 0
6 1 46.60374550846775 37.958136536380486 3.5798542535779476 0 -1 0
137 1 50.34502249005725 35.10146256808218 2.739606427487472 0 -1 0
193 1 49.419293800843086 39.195713048071525 2.2102670842526457 0 0 0
1018 1 51.996244842593754 38.09410931877306 2.9033536085072833 0 0 1
130 1 51.82726197558983 36.520923494633166 5.166398464987916 0 0 1
839 1 49.71108047338801 21.868769298983285 3.353986561995168 0 -1 0
179 1 46.33292938269694 22.015966140991523 4.975535666226636 0 0 0
142 1 50.46540524907966 23.411621634829665 5.863464647382094 0 0 -1
178 1 48.74288272408092 27.20988869982768 4.746391410251789 0 0 0
166 1 52.33676345733343 23.792125715419814 23.320527605688987 0 0 -1
184 1 50.71663870538857 25.780660824466434 3.2411107540720674 0 0 -1
187 1 46.83044959440668 28.030552921753703 2.881506382473491 0 0 0
194 1 49.75266951935532 29.32334042607212 6.027905026741309 0 -1 1
197 1 45.817674386456034 32.11219450943329 6.593536000126653 0 0 0
104 1 47.252476658565854 32.325569162985836 4.1929913931842435 0 0 0
632 1 50.53448533293629 30.87348442629901 3.7726132708939715 0 0 0
1 1 49.82162270816303 33.19477162957006 4.475985380539633 0 -1 0
146 1 47.67600322246644 35.53022263788147 4.650599678854874 0 0 0
19 1 48.79417862540255 39.43184246694672 5.059559316270812 0 0 1
12 1 49.193345679217224 36.9222101348408 6.646666967975676 0 0 0
661 1 51.13764728682269 21.717454887863983 8.779754136635031 0 0 -1
162 1 48.69816205683281 22.86753759694649 9.657045314038493 0 0 0
73 1 48.61589697306125 38.53654185194209 16.333205703981342 0 -1 0
185 1 47.51965812656708 26.04976907362752 6.7272407863809995 0 0 -1
182 1 49.21196061074216 25.668040291878707 9.202420802274991 0 -1 0
37 1 47.68880357083651 23.1823216655589 6.751644019003991 0 0 0
173 1 46.28158031217861 27.8917233496192 8.255445387266239 0 0 0
840 1 51.352780557635526 27.252573570894356 7.866887730561495 0 0 0
139 1 47.59296404951915 30.258824688258375 7.484911488108717 0 0 1
841 1 51.379124681435876 31.749440033284014 8.471921710707607 0 -1 0
169 1 48.88432391819857 31.575477952372136 9.435672938979135 0 -1 0
135 1 46.93171250793447 34.59116019033951 7.327694458194742 0 -1 0
89 1 48.05840876750832 35.66649280760657 12.46828736576571 0 -1 0
127 1 49.90087020335642 35.91025266308627 9.509057488267295 0 0 0
87 1 47.77981111299693 34.18906192339682 9.726532985754417 0 -1 0
86 1 49.94859180221161 38.947430175288915 10.031930117886652 0 -1 0
36 1 46.51681066403406 20.691794747522902 12.480523152915984 0 0 0
143 1 46.33218017238284 22.980577905249923 11.043501526941656 0 0 0
847 1 48.995832800256125 29.433218078790787 22.207234844749095 0 0 -1
181 1 45.50394208636525 25.70514692621958 11.954466851032418 0 0 1
164 1 50.35515322904742 24.340554339327955 11.973528345414511 0 0 0
174 1 52.19968371483156 26.35553217986417 10.847059948930555 0 0 0
196 1 47.35117283972844 27.211030972713182 10.705209241289428 0 -1 0
27 1 52.08478243248083 21.2546252767811 16.219374562725726 0 0 -1
153 1 47.2755110625178 29.173488635241394 13.025421165407616 0 0 0
175 1 49.487233842201555 30.64726954454399 12.07298822137608 0 0 0
141 1 49.11154192151711 33.10362154145868 13.64292848334242 0 -1 0
40 1 52.019147340712905 36.713975158405944 13.090828942778785 0 -1 -1
74 1 50.99441138623767 34.37815149076416 11.750074997088378 0 -1 0
989 1 49.38616154457454 26.607899611805458 22.513826169035134 0 0 0
170 1 49.58063001725062 38.0067123572921 12.368184448809004 0 0 0
128 1 50.656858165873 28.534845148751543 18.235489301826913 0 0 -1
642 1 48.297627642719696 21.405095932516247 14.860932312902431 0 0 -1
973 1 49.15544240163602 23.906188637131788 14.533363766617516 0 0 -1
38 1 51.27520191267334 21.674589050639316 11.68219819084014 0 0 1
110 1 45.96227176042172 27.058490153929164 14.516674107868106 0 0 -1
987 1 48.12069066031871 26.124235691014867 15.840362322843442 0 0 -1
157 1 49.821681641881675 38.24270349373336 21.03515086357605 0 -1 0
124 1 44.71395947870196 28.93177717759317 16.441076512453506 0 0 0
154 1 49.61713208529569 28.175864142191834 14.33081346568625 0 -1 -1
156 1 51.94103420086359 27.522093668514312 13.398092940444277 0 0 1
116 1 51.68660560254644 25.56351847965719 21.29365167362427 0 0 -1
159 1 46.120213300422506 33.51721004282191 14.183056234640281 0 0 0
152 1 51.328882720031345 32.65408464431465 15.231141969804245 0 -1 -1
151 1 45.00686331856688 35.241533836775375 16.177339258717463 0 0 0
111 1 51.78355979588674 33.992797429725854 17.737882221067146 0 -1 -1
32 1 45.967166652304485 37.984372666323495 16.127815852637784 0 -1 0
70 1 51.293571790462885 37.2882829468483 15.783368886579611 0 0 0
883 1 49.77015110932398 35.91179048682822 17.81110512433137 0 -1 0
117 1 51.86592740213246 36.33734759211188 21.764337175442694 0 0 0
149 1 47.510463133642176 35.59312175596036 22.505784707593357 0 -1 0
107 1 47.1250355665323 26.06408911592829 20.896735047637463 0 0 0
190 1 49.53470336143103 22.806722683760185 19.620184799410495 0 0 0
123 1 46.598306500168 29.36136864585161 18.68009982079364 0 0 0
118 1 48.14465397188265 26.96648612156019 18.38002032051029 0 0 -1
35 1 50.691201438333835 25.116407330336035 18.557250477028113 0 0 0
106 1 50.98633184667649 30.448270861014457 20.437599254163782 0 0 -1
172 1 46.067303416754484 30.819276995167826 15.141831143677864 0 -1 0
140 1 47.99015185090537 31.31769324777376 17.000182593064583 0 0 0
122 1 50.230923529798 30.23421913825343 15.953307835368175 0 0 -1
863 1 52.19548284635398 33.51107744890968 6.372339181762043 0 -1 0
113 1 49.93243202983778 32.750241573757975 19.907377179404737 0 -1 -1
138 1 47.30959568116564 32.57123580330167 19.49261959973698 0 0 0
54 1 46.96906617969903 35.01936322922816 18.116549842530777 0 -1 0
121 1 45.99437368297784 33.5331152560659 21.69161375444487 0 0 0
511 1 45.838034298163834 37.45124511472892 19.065554768888354 0 -1 0
103 1 49.92772652198741 34.513979557000454 21.819139268339516 0 0 -1
624 1 46.674114844606144 20.807942541178498 22.79200909760338 0 0 -1
133 1 47.20603599370098 37.86252676879729 21.288087934506624 0 0 0
165 1 47.83416331890827 24.47679980570376 0.2858261977929089 0 -1 0
189 1 47.62020642173297 23.256110159287473 21.36991238895807 0 0 -1
64 1 51.17089096024455 20.5381987589742 18.634794406688826 0 0 -1
109 1 44.960820266847925 26.987260730552848 22.676029475791037 0 0 -1
102 1 52.13088029441283 38.65112274965381 23.663964499357004 0 0 0
96 1 52.15170605942925 21.737028057509402 21.197303043662277 0 0 -1
809 1 51.493191403854446 23.996470658958685 16.14961881465294 0 0 0
893 1 52.4428076128401 29.341701128332158 9.498845453210224 0 -1 0
906 1 48.989994164748516 39.933418752576266 18.592115746564094 0 -1 0
683 1 48.34888174617065 20.57810871383344 17.702487789621895 0 0 -1
319 1 49.10678202270898 40.17074471457657 13.972497054404254 0 -1 0
440 1 51.59114842110494 40.352304467721645 19.404041678931517 0 -1 0
205 1 51.62787970048001 20.3910094573562 1.8101247163982896 0 0 1
100 1 49.88868827132338 40.36942543111253 22.95141409567736 0 -1 -1
16 1 47.09525893192352 40.34131268853355 22.72432125295885 0 0 -1
316 1 74.81524409496755 17.434199696863523 0.20490784527290273 0 0 1
199 1 55.45429436135153 0.13992151311063195 2.405918745103709 0 0 0
680 1 59.35876479066372 1.9438714357945295 23.58781428153382 0 1 -1
777 1 58.27872426469085 1.0614090187126786 2.841985669553414 0 1 0
287 1 62.861348299741636 1.6255247674995654 2.2111746338762783 0 0 0
286 1 65.44628683011686 2.0191768036232056 3.1756510845280714 0 0 0
856 1 73.9102318076795 0.8682747348313545 16.433765149307476 0 1 0
258 1 67.62163394878215 3.4771501411601333 23.702861295202485 0 0 -1
559 1 67.92601167510932 1.2001043603176313 2.1379120043364828 0 0 1
202 1 70.9519711986274 1.7138996198245475 1.1523093562629887 0 1 0
1150 1 73.6753546097026 1.2213353059319854 2.245471744832177 0 0 1
853 1 72.4280684791581 0.8993695236306143 21.948345463169815 0 0 0
565 1 55.90701177676945 3.3798861016390584 2.1746887302161513 0 1 0
337 1 68.98885425432012 0.8988630887239316 6.331670203692414 0 1 -1
320 1 58.46138172156724 4.414134575664351 2.3549699342296346 0 1 0
275 1 61.40334275302622 3.976256062990006 1.5826493713628362 0 0 0
583 1 68.10564195010133 7.29833936367853 3.561968267151818 0 0 1
395 1 64.92785196073753 4.557693874085953 2.1637313505496905 0 0 1
207 1 72.30309752409411 2.5616781785668827 5.12329458265507 0 1 0
218 1 71.38225305573107 4.550333119154814 2.5181897764850847 0 1 1
405 1 74.36789036174432 3.8249061231685153 3.0012429296757395 0 0 1
1105 1 76.92114976983281 5.513572339330524 3.343023206720949 0 0 1
209 1 58.88047499995585 7.079622703112655 1.6326422317185385 0 0 0
276 1 59.92462150991846 8.546670668508046 3.798802528169185 0 0 0
571 1 56.825634691589514 8.686941838843582 0.7911369917807023 0 1 1
289 1 62.622392768960715 10.675675279591903 2.3891941883006487 0 0 0
215 1 71.10024845524225 7.659739379748748 3.1415825162651965 0 1 1
531 1 68.90065525380093 10.43857954974786 2.470178303873822 0 0 0
418 1 75.18624279843614 8.276731574856072 4.079365468401008 0 0 0
30 1 52.877260334575254 9.56893003728484 14.750672012276747 0 0 -1
1120 1 76.80227617645272 8.167715325763574 1.678901480881177 0 1 1
555 1 56.00980880106514 19.943211992974486 0.798378632400308 0 0 1
230 1 55.81887427818917 9.868606798588527 3.3015446675658735 0 0 1
295 1 56.98706113372589 12.439055516091063 3.2013374226811315 0 0 1
361 1 59.96405262493418 11.318340023204883 3.2449621629147294 0 0 0
309 1 60.39827976260198 12.089519645382111 0.3119549834737348 0 0 0
221 1 66.77849589948056 12.216651895874037 2.0622088085350763 0 1 0
235 1 71.46961710136196 13.928020557901093 0.6045635309592836 0 0 1
358 1 72.23682967562839 8.177145227003875 0.15259336687539451 0 0 0
908 1 73.02566362888876 9.607727182718861 2.6750812602493803 0 0 0
76 1 53.050472526674454 15.666168237214853 4.207498170559529 0 0 0
592 1 75.80953191316517 11.080762586865443 1.2337771400253204 0 0 1
747 1 55.807639138554535 15.873214929414686 1.4471599759009783 0 0 0
500 1 53.99722878201364 13.895853711844305 23.232101965907805 0 0 -1
451 1 57.99225385695145 14.252990672272993 1.104129728953839 0 0 0
299 1 60.38818374934275 16.014342429113405 0.9383668418331627 0 0 0
621 1 61.43320660298 16.06047425040174 4.704656549963005 0 0 1
356 1 67.00588906852448 14.81948734797786 3.2772897449485017 0 0 0
552 1 67.0710890713584 16.944061245356895 1.1965089947210956 0 0 1
242 1 70.84256039940352 18.00025352257195 23.316512058469414 0 0 0
761 1 74.07333451679618 14.820837345171514 0.34145077778112237 0 0 -1
245 1 77.51147683888466 17.536258088364352 0.6137375515288092 0 0 1
749 1 74.29575647475009 14.210635500441061 3.176897521954005 0 0 0
1199 1 77.93830770760373 15.03339463350985 2.1545250529277267 0 0 0
462 1 53.06650698563453 7.084035662608126 18.448631142917776 0 0 0
849 1 66.7401919046529 1.154698167968537 10.015783929044495 0 1 0
916 1 63.58321748297505 19.72087976592144 23.5048172180103 0 0 0
627 1 64.3964510680851 17.014715808770003 0.6325482662005274 0 0 1
628 1 67.30329808719067 19.742978629345235 2.2870241619859386 0 0 1
932 1 73.76011795479076 19.013387487924494 2.1398305265801603 0 0 1
1316 1 75.38035628350458 18.33230521767823 4.307859211567088 0 0 2
726 1 78.65823736935873 0.8870842542176041 11.293220851837896 0 0 0
212 1 66.17150231761768 0.14891096146094368 0.24832000540424914 0 1 1
210 1 59.299307160486556 1.4068717580514802 5.574088983936473 0 0 0
198 1 57.41152679770449 3.3432960985099083 5.396571151596588 0 1 1
345 1 65.47923597423315 1.6944596040011626 5.943097705432873 0 0 0
273 1 74.38524096137749 1.0959103303634945 7.2368384743016385 0 0 1
13 1 53.0641467073997 11.046826519738818 0.17242545619795077 0 0 1
484 1 62.55560986248777 19.181305517801082 15.42014439745861 0 0 0
342 1 54.67037479269961 5.0057751324234365 4.051809948036666 0 0 0
391 1 58.49247879389821 7.62213529534326 9.05908519851335 0 0 0
223 1 63.02204719461357 5.742264264116772 3.895520868591282 0 0 1
267 1 58.76079442274557 4.661186156501415 7.352986985086333 0 0 1
582 1 68.38715637395934 4.755514265824832 4.963760485126653 0 0 1
279 1 69.59164318599584 2.5604282522804804 4.087734582308846 0 0 1
328 1 72.46472948004963 5.492638836443917 7.143318655816702 0 0 0
459 1 72.79519963940778 2.87589099841789 8.579274991660103 0 1 1
585 1 76.45702123210317 3.2581533054957297 7.191343928860907 0 0 1
393 1 56.44742950070659 6.257899769655151 6.113019764530842 0 0 0
410 1 57.44954280238305 8.789180282437647 5.272610983626439 0 0 0
423 1 60.55935268558736 6.813150066331474 6.455835473145406 0 0 0
300 1 60.99622599159451 12.130824092524335 5.833648222752609 0 0 0
298 1 63.10432031627514 8.559002317855617 4.066665878238144 0 0 0
346 1 65.91187110121884 8.73712874007385 5.0370024134544895 0 1 0
291 1 71.80111413798274 10.37100873888129 5.197036975372938 0 0 1
302 1 73.0498552783752 6.153576583955694 4.378136913556769 0 0 0
1106 1 76.10799175144128 5.8349562516592695 6.125750841213462 0 1 1
695 1 64.03193523950426 20.2110963982172 12.680993829705747 0 0 0
208 1 52.83143906683907 6.9597727874434 2.8598255307636418 0 0 0
514 1 52.94381090456752 11.69857158512796 3.08472811601988 0 0 0
424 1 58.544255015985755 10.786181176646938 6.774363092633552 0 0 -1
233 1 64.90871207228784 14.219410697980905 5.296621018406144 0 0 0
251 1 65.12100681352395 11.300659253320626 4.25376987591149 0 0 0
292 1 70.8574929863287 12.153184079661509 2.732786015493686 0 0 1
433 1 77.85726071428628 12.899742904813362 5.127823951264118 0 0 1
630 1 75.76668636780055 11.514738514290872 4.268136285937498 0 0 0
372 1 55.79518352405705 14.898435099738393 4.3110606748012765 0 0 1
470 1 58.09368763237168 13.243870072987658 5.921094268739456 0 0 0
297 1 59.32016206715967 15.531373864375066 7.003680666194921 0 0 0
806 1 57.097807492407775 17.591773340588407 7.081656306371777 0 0 0
296 1 62.659595376423745 13.507147900127674 3.8424084402513627 0 0 0
303 1 64.55058102915824 16.963371132552595 3.5733116247485572 0 0 0
318 1 69.3976627964574 14.079553160005695 4.8185477868482245 0 0 1
617 1 71.84704079893694 15.246880837805518 3.9112166344335138 0 0 0
1045 1 76.24347660533438 15.53365021458681 4.469482884002996 0 0 0
191 1 54.55595908878086 18.860531592311997 7.822511641020227 0 0 0
78 1 57.176701274728416 17.22404681279917 4.256884358466092 0 0 0
250 1 60.47163840907224 20.175507750210155 3.2699659398121503 0 0 1
945 1 59.70600791668525 17.47418109060183 3.0780336502913013 0 0 0
85 1 53.22597925720194 4.3390001840205805 18.68479169117466 0 0 0
247 1 63.34491045067344 17.089705445640536 6.474572546852858 0 0 1
252 1 65.18847585975392 19.699749573029496 4.192291408819192 0 0 1
244 1 67.92796529801417 17.1126803757286 5.2933859714243 0 0 1
1016 1 71.8469455395265 17.94539496101037 3.7087230721949065 0 0 1
281 1 69.40680974312642 19.24638359869963 4.139405791820582 0 0 1
1078 1 73.15628906093254 18.969686565462 6.159611328147735 0 0 0
383 1 76.54741416091328 0.6144329802713312 19.436595534826793 0 1 0
83 1 55.63780862782898 1.8771948888178 7.24819685053497 0 0 0
1028 1 74.74981596392787 0.03980705165786661 4.513662795454713 0 0 1
676 1 61.4749710957713 0.18535458490473544 4.034179732829332 0 0 0
390 1 61.471076007411654 2.5970558475014034 7.0010203499900525 0 0 0
605 1 77.3384810390029 0.021498472061261344 22.11603676965842 0 0 0
335 1 63.98833936884391 1.9982040997512525 9.9568191849855 0 1 0
352 1 64.66611766782067 3.493018005387718 7.802183005530062 0 0 0
525 1 67.93707804973772 2.978258820343094 8.118052218385982 0 0 0
255 1 58.390356802993544 18.303409643089875 20.857215802548012 0 1 0
338 1 70.74013761756405 0.7463941614360834 8.57708195072381 0 1 1
387 1 74.7762953223944 2.9693231888163165 10.642344954865779 0 1 0
1206 1 77.61900675550848 11.289076337453178 10.200101521019983 0 1 0
1145 1 78.54629867952684 2.404101833509857 8.862106704088237 0 1 1
67 1 54.883903322696085 4.4213580025910675 8.432725022251386 0 0 0
461 1 55.417744440450896 7.445379461491046 8.435737065172107 0 0 0
474 1 59.90043651866229 3.28073086226651 9.471375509988768 0 0 0
265 1 62.97295539238859 5.148361226677491 6.530486091188946 0 0 0
224 1 68.00044842825724 8.098789791924139 7.0127367204114 0 0 1
394 1 69.71209030498188 5.661053720316071 7.044998775275293 0 1 0
797 1 76.8221998908749 5.215167022145809 10.219740018094466 0 1 1
1255 1 78.0602138357935 18.893913617059113 5.027885672143393 0 0 0
56 1 53.54212634937132 9.183687685489602 7.608826449080696 0 0 0
355 1 60.9850224754566 9.108942052824311 7.70270501482309 0 0 0
290 1 65.24431724540882 8.941986571153818 8.1223401872313 0 0 1
288 1 63.71013379173367 6.4987235349917825 9.015225847153689 0 0 1
365 1 68.86769240969917 10.31929913147933 5.271578549160374 0 0 0
344 1 66.52255811424227 5.518295983145423 8.742584681928749 0 0 0
564 1 72.83899227931522 7.209681953509708 9.204402982899612 0 0 0
414 1 68.98066233211705 12.556737934597436 7.249089822626662 0 0 0
271 1 75.49047607298807 7.1907833489334445 8.63207732633514 0 0 0
282 1 75.4267742545077 8.879167430104339 11.409904444162535 0 0 0
407 1 78.31202510255874 8.550640015484118 9.789026625686494 0 0 1
308 1 58.80559924075495 19.64065483606434 8.035464223728846 0 0 1
399 1 56.51443104056982 13.125151542238264 9.869614528971978 0 0 0
537 1 57.8048607164845 10.32457870867158 9.860233354936023 0 0 0
482 1 56.594036554503745 15.533666000336703 11.581997381993169 0 0 0
310 1 63.2319709820073 10.461597703761946 6.675402978929592 0 0 0
368 1 64.40841121269784 12.87866746410969 7.843335568511302 0 0 1
357 1 69.34734969426741 15.870320295953771 7.197783414898915 0 0 0
366 1 72.05443224128008 9.939053767245769 7.98964849815279 0 0 1
1189 1 73.49652636122728 12.470020847951991 5.701188024584352 0 0 0
305 1 76.33053301656292 9.362808243672072 6.824129473719485 0 0 1
1215 1 76.48808813914314 15.46498661795 7.224100512785199 0 0 0
1138 1 76.42277162984317 12.298059212514229 7.725210630219849 0 0 1
508 1 55.59845624410509 14.940314716602689 13.918761377130084 0 0 0
163 1 55.28584352898307 13.22862917522071 7.341039393713941 0 0 0
425 1 60.752185696210795 16.058625751631297 9.265604229908226 0 0 0
626 1 67.88081308779375 15.723643658067319 9.364060147886255 0 0 0
364 1 63.441067340325624 15.374037862256277 8.757716190958057 0 0 0
430 1 71.69794949274794 12.815483634730244 8.22323218941988 0 0 0
1031 1 70.80927363713812 18.26028395012947 7.571840306803545 0 0 0
420 1 72.36609156064098 15.268193777446996 6.934425783479758 0 0 1
553 1 74.04324885188004 16.672185946113522 10.65695806806674 0 0 0
315 1 74.38711108670874 16.9591347511623 7.844194189488802 0 0 1
631 1 77.62936995561509 17.606190421993414 8.896217957540486 0 0 0
682 1 54.5229386948646 15.725823295224611 7.155695036339738 0 0 0
132 1 54.09621016389785 15.718620434461915 10.297477666943966 0 0 0
351 1 53.1934978882202 9.275945773371236 4.717351751643612 0 0 0
979 1 61.179788515765104 18.95852147347145 9.62865358500965 0 0 0
813 1 65.51995971407206 17.210578049300167 9.273068052264472 0 0 0
376 1 66.58938594841324 18.977829766171897 6.953773936776176 0 0 0
802 1 63.879272131191925 19.568292001689255 9.492967064297646 0 0 -1
748 1 77.87807767468813 2.263421218276147 14.487635213337063 0 1 0
914 1 69.13157249306433 0.5145006752632085 20.847143762225425 0 0 0
464 1 53.61732177164002 2.989826737008951 12.023987456506417 0 0 0
685 1 63.28184179163865 19.784155183348805 6.932137007667874 0 -1 0
400 1 61.792570162127 3.263881506767875 11.621390983033924 0 0 0
845 1 69.39591767965777 1.7813464950156181 11.425727685992795 0 1 0
502 1 68.21796486341592 3.743760304522079 12.915998123765648 0 1 0
131 1 54.16777432568503 1.6308185684706953 14.34447808090264 0 0 -1
330 1 70.22466723996773 4.23576062221768 9.369947809532427 0 1 0
58 1 52.85056993217555 11.78952477800657 7.836925053721932 0 0 0
347 1 71.97802205061107 2.6692882160879097 11.932542191926863 0 0 0
266 1 53.60231326075456 5.614599967408652 13.336906352407638 0 0 0
389 1 55.977737596590146 3.01017092269137 10.828689471803306 0 1 1
409 1 60.394959890510165 6.012141533509911 10.678834320508711 0 0 0
401 1 57.78843463793439 4.057498441191839 12.659948982650775 0 0 0
523 1 62.94868510133994 5.487389173732763 14.196751769434869 0 0 0
412 1 66.73476547035435 5.9090800621227 11.791964008811155 0 0 1
339 1 70.74300714513986 5.328906608445178 13.416643262573547 0 0 0
341 1 70.35021653627773 6.751956263007008 10.691314436518066 0 0 0
534 1 76.14852484315323 5.961811718084587 12.716809196769091 0 0 -1
62 1 53.258617110237935 7.591370201801398 11.013635325385172 0 0 0
360 1 55.96009993951917 8.53472135190226 11.705556434660712 0 0 1
147 1 53.23970261071864 12.105079768927284 13.445821618660807 0 0 1
472 1 61.93088354932342 8.434639911259955 10.560768194500998 0 0 -1
411 1 60.56773073406152 8.705147423110295 13.355120829788811 0 0 0
354 1 63.626045647045906 5.255912575522844 11.58870361121629 0 0 0
348 1 65.1522081213866 8.463309139303943 11.240459481815234 0 0 0
314 1 67.30197382859139 10.267446677571025 9.522639609132264 0 0 0
426 1 69.81247915917261 9.405097458016895 9.53071255917997 0 0 0
468 1 74.53171913267987 10.763049769353659 9.36195067532164 0 1 0
544 1 69.56886533647886 9.96143301642255 12.38214536281925 0 0 1
1227 1 73.25018890195878 7.181675357909042 12.234741239117962 0 0 0
1429 1 77.62176131986224 8.919285801958605 13.449509120331182 0 1 0
75 1 54.67664505424089 11.264426489809612 10.850386297340888 0 0 0
434 1 59.83300145152748 11.808704700214648 11.031260362736967 0 0 -1
432 1 62.377917008777885 11.254388237663903 9.81823481577131 0 0 1
428 1 66.85692342376947 12.978374488403126 9.285140012993937 0 0 0
419 1 70.34992298315657 14.400324622697866 13.229757796837239 0 0 0
404 1 70.2153239808142 12.40604135144736 10.970423542900152 0 0 0
1265 1 73.1588976079897 12.550169864980427 10.7746128342367 0 0 0
1228 1 75.73419094799095 11.944897364294935 14.88822352050493 0 0 0
61 1 52.58430793258982 13.366544344647787 10.270679283597897 0 0 0
26 1 56.6030710293162 14.442614057479222 17.816600794451826 0 0 -1
983 1 59.3086400946113 14.537637352778026 11.266697996632722 0 0 0
359 1 64.7529298163911 11.257369484087405 11.123499237444285 0 0 0
540 1 62.16568419935406 13.869659980805084 14.67810771859714 0 0 0
752 1 69.3159681924149 16.441763895055836 11.538546896680954 0 0 0
490 1 74.51862974167892 14.556927015110867 12.529422021128877 0 0 0
1200 1 77.31754143761455 14.17624114161899 13.855372844002677 0 0 -1
512 1 54.48142313169976 0.10410185618807065 20.942986463784113 0 0 0
548 1 54.815561494552064 17.88817911451106 18.710289058017768 0 0 0
633 1 56.915922617188194 18.097489533199543 11.924524936214604 0 0 1
556 1 54.809929656278904 18.56646612164347 13.801596926251879 0 0 0
602 1 59.02347726323382 18.178612413295063 13.614538826976661 0 0 0
604 1 64.08617259403604 15.026471102371422 11.510172333673598 0 0 -1
590 1 61.646212249352125 15.54120897846684 12.324285463029392 0 0 -1
429 1 67.9256945162527 17.7814483244439 13.767945828774032 0 0 0
745 1 71.46984071561924 17.714193950732344 10.380585821827292 0 0 0
614 1 72.90194085922434 19.199084314449607 13.064573912509557 0 0 0
1617 1 78.3833207775345 3.241600089032095 4.881235435001194 0 1 1
438 1 75.28606614221283 18.126464941204116 12.50875774497911 0 0 0
402 1 73.58296812558069 0.17039484832421184 12.323802699203604 0 0 0
68 1 54.627999256119594 3.6747362577945712 16.46545037374131 0 0 0
441 1 56.91512150765132 1.1487885388103667 16.28261224411989 0 0 0
333 1 58.450714908286166 1.1185546904648653 13.688415800169071 0 0 -1