
# Create simulation box
#
region 	     all block 0 ${XDIM} 0 ${YDIM} 0 ${ZDIM} units box
region 	     all block 0 157.504 0 ${YDIM} 0 ${ZDIM} units box
region 	     all block 0 157.504 0 40.430543199995086 0 ${ZDIM} units box
region 	     all block 0 157.504 0 40.430543199995086 0 24.0 units box
create_box          1 all
Created orthogonal box = (0.0000000 0.0000000 0.0000000) to (157.50400 40.430543 24.000000)
  6 by 2 by 1 MPI processor grid

# fill box with randomly distributed atoms of number density 0.0327 N/A**3
#
create_atoms        1 random 4998 63782 all
Created 4998 atoms
  create_atoms CPU = 0.001 seconds
mass                1 18.015

# Define potential
#
pair_style          sw
pair_coeff          * * ML.sw mW
Reading sw potential file ML.sw with DATE: 2019-02-27

# Run minimization
#
minimize            1.0e-8 1.0e-8 10000 1000
WARNING: Using 'neigh_modify every 1 delay 0 check yes' setting during minimization (../min.cpp:187)
Neighbor list info ...
  update every 1 steps, delay 0 steps, check yes
  max neighbors/atom: 2000, page size: 100000
  master list distance cutoff = 6.0032907
  ghost atom cutoff = 6.0032907
  binsize = 3.0016454, bins = 53 14 8
  1 neighbor lists, perpetual/occasional/extra = 1 0 0
  (1) pair sw, perpetual
      attributes: full, newton on
      pair build: full/bin/atomonly
      stencil: full/bin/3d
      bin: standard
Per MPI rank memory allocation (min/avg/max) = 4.211 | 4.213 | 4.217 Mbytes
Step Temp E_pair E_mol TotEng Press 
       0            0    5414040.3            0    5414040.3    3416651.4 
     667            0   -53909.621            0   -53909.621   -790.65738 
Loop time of 1.16995 on 12 procs for 667 steps with 4998 atoms

97.8% CPU use with 12 MPI tasks x no OpenMP threads

Minimization stats:
  Stopping criterion = max force evaluations
  Energy initial, next-to-last, final = 
      5414040.34565937  -53909.4468840097  -53909.6205324145
  Force two-norm initial, final = 43331883.0 3.5658621
  Force max component initial, final = 19896590.0 0.64091522
  Final line search alpha, max atom move = 0.062028064 0.039754731
  Iterations, force evaluations = 667 1000

MPI task timing breakdown:
Section |  min time  |  avg time  |  max time  |%varavg| %total
---------------------------------------------------------------
Pair    | 0.69802    | 0.82686    | 0.95788    |   7.6 | 70.68
Neigh   | 0.020415   | 0.022769   | 0.030498   |   1.7 |  1.95
Comm    | 0.096009   | 0.18207    | 0.37318    |  18.4 | 15.56
Output  | 0          | 0          | 0          |   0.0 |  0.00
Modify  | 0          | 0          | 0          |   0.0 |  0.00
Other   |            | 0.1382     |            |       | 11.82

Nlocal:        416.500 ave         431 max         402 min
Histogram: 1 1 1 2 1 2 1 1 0 2
Nghost:        1036.75 ave        1087 max        1012 min
Histogram: 3 4 0 0 2 0 1 1 0 1
Neighs:        0.00000 ave           0 max           0 min
Histogram: 12 0 0 0 0 0 0 0 0 0
FullNghs:      11730.2 ave       12512 max       10846 min
Histogram: 1 0 1 1 3 2 1 0 1 2

Total # of neighbors = 140762
Ave neighs/atom = 28.163665
Neighbor list builds = 29
Dangerous builds = 0

# Add velocity/set timestep
#
velocity            all create ${TEMP} 120598 rot yes dist gaussian
velocity            all create 240 120598 rot yes dist gaussian
timestep            5.0

# Define output
#
compute	            1 all msd
thermo	            100
thermo_style        custom step temp press vol etotal ke pe c_1[4] density

# Neighbor lists
#
neigh_modify        delay 0 every 1 check yes

# Set fixes
#
fix                 1 all momentum 10 linear 1 1 1 rescale
fix                 2 all nve
fix                 3 all temp/csvr ${TEMP} ${TEMP} 500.0 928347
fix                 3 all temp/csvr 240 ${TEMP} 500.0 928347
fix                 3 all temp/csvr 240 240 500.0 928347
fix                 4 all press/berendsen z ${PRES} ${PRES} 1000.0 modulus 20000
fix                 4 all press/berendsen z 1 ${PRES} 1000.0 modulus 20000
fix                 4 all press/berendsen z 1 1 1000.0 modulus 20000

# Run 0.25 ns equilibration
#
dump                1 all custom 1000 whole.${NAME}.dump id type x y z vx vy vz
dump                1 all custom 1000 whole.Ibeam_MLmW_240K.dump id type x y z vx vy vz
run                 50000
Per MPI rank memory allocation (min/avg/max) = 3.461 | 3.463 | 3.468 Mbytes
Step Temp Press Volume TotEng KinEng PotEng c_1[4] Density 
     667          240    278.58297    152831.33   -50334.795    3574.8259   -53909.621            0     0.978289 
     700    123.17088   -394.52144    152882.78   -49774.156    1834.6436     -51608.8   0.16281084   0.97795981 
     800    175.41505   -211.72641    152588.59   -48610.881    2612.8261   -51223.707   0.59188419   0.97984529 
     900    201.46607   -366.55696    152450.94   -47958.321    3000.8589    -50959.18    1.0389959   0.98072999 
    1000    217.57905   -152.60406    152232.42   -47488.645    3240.8634   -50729.509    1.5678645   0.98213781 
    1100     224.8815    127.52445    152206.89   -47184.326    3349.6342   -50533.961    2.1058068   0.98230253 
    1200    230.63663   -279.68323     152196.4   -47008.533    3435.3574    -50443.89    2.6893837   0.98237024 
    1300    233.96248   -102.17847     152007.3    -46866.15    3484.8964   -50351.046    3.3154913    0.9835923 
    1400    238.28834   -274.75629    151863.12   -46856.089    3549.3306    -50405.42    3.9200289   0.98452617 
    1500    236.19034   -103.45547    151562.38   -46786.362    3518.0805   -50304.442    4.6101456   0.98647969 
    1600    238.43346   -273.92295    151201.16   -46825.703    3551.4921   -50377.195    5.1986198   0.98883644 
    1700    241.46744   -85.031454    151023.24   -46875.519    3596.6835   -50472.203    5.8482065   0.99000139 
    1800    239.51839    142.25698    151060.41   -46847.494    3567.6522   -50415.146     6.529046   0.98975775 
    1900    240.94723    259.07107     151108.9   -46824.753     3588.935   -50413.688     7.066628   0.98944016 
    2000    240.34115    11.505745    151152.34   -46817.178    3579.9073   -50397.085    7.7402555   0.98915578 
    2100    242.06843   -100.45414    151139.63   -46930.961    3605.6354   -50536.596    8.2450935   0.98923897 
    2200    243.38007   -58.232959    151037.06   -46928.036    3625.1723   -50553.208    9.0136926    0.9899108 
    2300    244.47098   -38.118796    151052.36   -46924.371    3641.4216   -50565.792    9.7889908   0.98981052 
    2400    242.44856  -0.55498372    151142.78    -46964.02    3611.2974   -50575.318    10.354344   0.98921837 
    2500    239.91181   -51.767648     151180.8   -46971.225    3573.5123   -50544.738    10.903353   0.98896959 
    2600    245.02496    74.332271    151137.53   -46872.109    3649.6732   -50521.782    11.700055    0.9892527 
    2700    242.38586   -180.94761    151159.55   -46936.458    3610.3635   -50546.821    12.336751   0.98910864 
    2800       239.79   -141.80729    151133.23   -46961.505    3571.6978   -50533.203    13.037758   0.98928086 
    2900    240.50527    222.48838    151126.86    -46936.22    3582.3519   -50518.572    13.943831    0.9893226 
    3000    245.89591    158.06712     151234.2   -46900.471    3662.6461   -50563.117    14.658218   0.98862038 
    3100    242.66057    215.92437    151094.49   -46912.621    3614.4554   -50527.076    15.344656   0.98953455 
    3200     241.2082    22.872267    151152.38    -46897.72    3592.8222   -50490.542    16.021189   0.98915552 
    3300    244.06117   -44.374081    151088.77   -46911.735    3635.3174   -50547.052    16.816034   0.98957198 
    3400    235.99558    60.841746    150865.05   -46920.426    3515.1796   -50435.605    17.357686   0.99103944 
    3500    247.93779   -338.97161    150872.16   -46830.692    3693.0601   -50523.752    17.919155   0.99099275 
    3600    236.52391   -182.51473    150894.35   -46886.185    3523.0491   -50409.234    18.504608   0.99084701 
    3700    237.74534   -57.955141    150850.78   -46842.956    3541.2425   -50384.198    18.994446   0.99113318 
    3800    241.58961    35.777124    151027.75   -46848.458    3598.5032   -50446.961    19.800969    0.9899718 
    3900    238.93007    97.702152    150855.82   -46968.804    3558.8891   -50527.693    20.380391   0.99110005 
    4000    239.55687   -54.532845    150677.87   -46975.502    3568.2254   -50543.728    20.874326   0.99227059 
    4100     243.5091    132.90913    150543.58   -46945.986    3627.0943    -50573.08    21.416124   0.99315567 
    4200    240.82869    112.49708    150535.96    -46991.26    3587.1693    -50578.43    21.997682   0.99320594 
    4300    238.52717    15.232786    150623.05   -46962.495    3552.8878   -50515.382    22.604504   0.99263168 
    4400    244.23323    -131.4451    150546.13   -46938.614    3637.8803   -50576.494    23.292579   0.99313885 
    4500    238.76598    14.770694     150452.7   -46947.793     3556.445   -50504.238      23.9111   0.99375562 
    4600     238.8998    205.43536    150461.66    -46953.13    3558.4383   -50511.568     24.36713   0.99369642 
    4700    241.88216   -111.58971    150427.03   -47002.923    3602.8609   -50605.784     24.79833   0.99392519 
    4800    241.95267   -42.592523    150475.14   -46963.635    3603.9111   -50567.546    25.420346   0.99360743 
    4900    239.45144    170.35865    150493.57   -46980.721    3566.6551   -50547.376    25.999822   0.99348576 
    5000    242.19669    173.99146    150487.68   -47027.748    3607.5459   -50635.294    26.542686   0.99352462 
    5100    236.28442    234.60773    150893.57   -47033.952    3519.4819   -50553.434    27.222918   0.99085215 
    5200    235.10012   -35.451446    150890.47   -47051.128    3501.8416    -50552.97    27.934775   0.99087249 
    5300    241.11424    60.415234    150935.58   -47016.614    3591.4226   -50608.036    28.685097   0.99057636 
    5400     242.5589   -245.34487    150919.81   -46931.618     3612.941   -50544.559    29.276852   0.99067984 
    5500    245.44333    210.59172    150853.03   -46925.022    3655.9049   -50580.927    29.899484   0.99111841 
    5600    244.51075    40.962186    150760.11   -46878.099     3642.014   -50520.113    30.500753    0.9917293 
    5700    241.39903    375.98533    150854.45   -46947.774    3595.6647   -50543.438    31.171598   0.99110905 
    5800    243.61033    133.56642    150881.04   -46907.274    3628.6021   -50535.876    31.816839   0.99093438 
    5900    235.80705   -71.810154    150931.43   -47080.544    3512.3715   -50592.916    32.527439   0.99060361 
    6000    236.05178    145.91997    151006.25   -47108.893    3516.0167    -50624.91    33.028111   0.99011277 
    6100    243.56602   -132.32094    151046.21    -47051.59    3627.9421   -50679.532    33.371421   0.98985079 
    6200    241.20637   -10.646947    151073.21   -47068.923    3592.7948   -50661.718    33.816593   0.98967392 
    6300    242.08398   -127.44478    151077.24   -47052.655    3605.8669   -50658.521    34.373725   0.98964752 
    6400    237.51547    20.846058    151051.57   -47080.835    3537.8185   -50618.654    34.903101   0.98981568 
    6500    237.53831    351.83922    151093.84   -47089.913    3538.1587   -50628.071    35.508214   0.98953876 
    6600    242.90549   -53.499573    151201.12   -47157.905    3618.1035   -50776.009    35.972373   0.98883667 
    6700    241.63311   -36.319754     151256.3   -47175.215    3599.1512   -50774.367    36.634311   0.98847597 
    6800    231.22893    190.22414     151204.2   -47225.757    3444.1798   -50669.937    37.134172   0.98881653 
    6900     238.2635    241.32653    151030.95   -47136.432    3548.9605   -50685.392    37.746974   0.98995083 
    7000    242.15055     109.4834    151028.95   -47028.203    3606.8585   -50635.062    38.325876   0.98996396 
    7100    236.28982    -177.2208    151118.87   -47118.031    3519.5623   -50637.593    38.799872   0.98937487 
    7200    239.32838    1.9077405    150975.33   -47143.142     3564.822   -50707.964    39.301941   0.99031552 
    7300    233.60536    86.813873    151007.48    -47143.46     3479.577   -50623.037    40.005537   0.99010467 
    7400    234.86676   -99.341695    150981.92   -47185.575    3498.3657   -50683.941    40.280441   0.99027233 
    7500    240.06217    9.7374485    150964.52   -47071.523     3575.752   -50647.275    40.593102   0.99038646 
    7600    238.83579    38.745323    150867.22   -47079.452    3557.4849   -50636.937    41.281635   0.99102515 
    7700    241.84135    167.87929    150911.06   -47039.507    3602.2529    -50641.76    41.651928    0.9907373 
    7800    242.98631    104.76118    150835.31    -47061.36    3619.3072   -50680.667    41.745709   0.99123483 
    7900    235.20684   -119.89473    150989.51   -47143.426    3503.4312   -50646.857    42.341434   0.99022255 
    8000    240.53056   -88.694539    151056.51   -47118.225    3582.7286   -50700.954       43.054   0.98978334 
    8100    242.37495    92.847321    150985.01   -47048.274     3610.201   -50658.475    43.654742   0.99025201 
    8200    238.27926     219.5797    151095.31   -47062.472    3549.1952   -50611.668    44.191677   0.98952913 
    8300    241.72618   -120.87217    151029.93   -47016.028    3600.5375   -50616.565    44.877371    0.9899575 
    8400     241.8539   -108.56659    151047.43   -47102.043    3602.4399   -50704.483     45.50672   0.98984284 
    8500    238.31325    215.33404    151057.84   -47106.855    3549.7015   -50656.557     46.26004   0.98977462 
    8600    240.91132    68.184909    151081.02   -47065.965    3588.4001   -50654.365    46.720764   0.98962273 
    8700    240.48109    43.188699    151073.99   -47019.381    3581.9918   -50601.373    47.460522    0.9896688 
    8800    242.71928    -117.5562    150939.06   -47001.378    3615.3299   -50616.708    48.014124   0.99055353 
    8900    242.00696    79.530108    150993.98   -47044.839    3604.7198   -50649.559    48.707405   0.99019324 
    9000    245.53926   -6.5136334    151043.67   -46959.555    3657.3338   -50616.888    49.417206   0.98986745 
    9100    241.97193   -136.74919    151113.55   -47017.778     3604.198   -50621.976    49.931205   0.98940969 
    9200    238.58113    140.65876    151273.83   -47047.159    3553.6916    -50600.85    50.522297   0.98836139 
    9300    241.72196   -12.074146    151406.16   -46998.615    3600.4746    -50599.09    51.289428   0.98749753 
    9400    238.76411   -118.05346    151265.79   -47025.044    3556.4172   -50581.462    51.689861   0.98841394 
    9500    237.87325    46.874224    151346.45   -47057.078    3543.1478   -50600.226    52.300853   0.98788713 
    9600    235.95306   -54.015343    151225.68   -47074.839    3514.5463   -50589.385    52.966036   0.98867608 
    9700    238.96977   -144.14122    151150.05   -47034.605    3559.4804   -50594.085    53.560387    0.9891708 
    9800    238.58411    40.812454    151114.55   -47021.083     3553.736   -50574.819    54.254886   0.98940318 
    9900    241.03878    104.64198     151001.3    -47003.23    3590.2986   -50593.528      55.0155   0.99014522 
   10000    241.18438    92.447675    151088.11   -47132.382    3592.4673    -50724.85    55.536265   0.98957634 
   10100    242.23144   -12.731685    151099.57   -47094.016    3608.0634    -50702.08    55.885769   0.98950122 
   10200    236.96479   -78.940023    150981.22   -47112.445    3529.6161   -50642.061    56.489213    0.9902769 
   10300      240.906   -256.50473    150908.58   -47025.214    3588.3209   -50613.535     57.14206   0.99075356 
   10400    239.94401    91.608892     150879.4   -46978.783    3573.9919   -50552.775    57.840049   0.99094515 
   10500    241.07936   -30.120428     150894.7   -46988.236    3590.9031   -50579.139    58.732083   0.99084473 
   10600    242.08002   -59.900304    150935.26   -46990.262     3605.808    -50596.07    59.484276   0.99057846 
   10700     240.5162   -118.66224    151057.41    -47016.88    3582.5147   -50599.395    60.106086   0.98977745 
   10800    242.33604   -175.90623    150930.48   -47008.915    3609.6214   -50618.537    60.735907   0.99060979 
   10900    241.45794   -209.29977    150759.45   -46934.785    3596.5421   -50531.327    61.572649   0.99173364 
   11000    235.97335   -15.405173    150779.89   -46926.165    3514.8485   -50441.014    62.559797   0.99159915 
   11100    243.52544   -88.431411     150748.1   -46954.679    3627.3378   -50582.017    63.262253   0.99180828 
   11200    242.58569   -63.712669    150842.75   -46991.223      3613.34   -50604.563     63.87098   0.99118592 
   11300    241.91362   -151.72654    151007.65   -47033.681    3603.3294    -50637.01    64.645776   0.99010355 
   11400    237.58355   -91.277488    150984.55   -47029.839    3538.8326   -50568.672    65.384022   0.99025507 
   11500    236.91764    42.832943    151107.15   -47130.819    3528.9137   -50659.732    66.362169   0.98945161 
   11600    233.96834    95.977005    151114.66    -47200.46    3484.9837   -50685.444    66.901527   0.98940243 
   11700    239.17262   -129.37033     151080.3   -47035.928     3562.502    -50598.43    67.561045   0.98962748 
   11800    242.93754    52.880799    151036.06   -47066.192    3618.5808   -50684.773      67.8753   0.98991736 
   11900    237.12469    252.17868     151261.5   -47137.727    3531.9978   -50669.725    68.730064   0.98844196 
   12000    240.31723   -118.32765    151363.22   -47127.382    3579.5511   -50706.934    69.475568   0.98777769 
   12100    238.84803   -209.24619    151167.57   -47123.277    3557.6672   -50680.944    70.084228   0.98905616 
   12200    241.94598    116.71077     151132.6   -46991.041    3603.8114   -50594.853    70.444942   0.98928497 
   12300    243.90364    38.327709    151097.49   -46969.866    3632.9711   -50602.837    70.878774   0.98951484 
   12400    241.91458   -156.92845     151064.9    -46915.52    3603.3437   -50518.864    71.287355   0.98972836 
   12500     240.3626    120.23102    151264.08   -46961.861    3580.2269   -50542.088    71.672301   0.98842508 
   12600    237.27997    239.43504    151419.92    -46999.81    3534.3107   -50534.121    71.862022   0.98740782 
   12700    241.57523    15.459739    151499.79    -46988.75    3598.2892   -50587.039    72.427188   0.98688724 
   12800    239.60206    12.008185    151542.92   -47025.015    3568.8985   -50593.914    72.809576   0.98660642 
   12900    240.43221   -79.253257    151616.69   -47017.371    3581.2637   -50598.635    73.268863   0.98612634 
   13000    239.30254   -119.14195    151667.02   -47071.316    3564.4371   -50635.753    73.868247   0.98579912 
   13100    241.17403    167.06704    151721.14   -47027.217    3592.3133    -50619.53    74.252088    0.9854475 
   13200    242.75773    52.142582    151705.26   -46939.012    3615.9026   -50554.915    74.582282   0.98555066 
   13300    240.50981   -288.51731    151702.22   -46940.525    3582.4195   -50522.945    74.681011   0.98557035 
   13400    236.32532   -150.62332    151636.56   -46985.365    3520.0912   -50505.456    75.000294   0.98599715 
   13500    242.34863   -72.806767    151516.22   -47012.136     3609.809   -50621.945    75.474092   0.98678027 
   13600    242.17072    154.05008    151617.58   -47001.183     3607.159   -50608.342    76.093679   0.98612058 
   13700    236.09099   -4.8716523    151515.98   -47059.322    3516.6008   -50575.922     76.56689   0.98678179 
   13800    238.32348   -135.08593    151476.06   -47092.445    3549.8539   -50642.299    77.170482    0.9870419 
   13900    236.78067   -248.52701    151426.35   -47070.956    3526.8736    -50597.83    77.637854   0.98736587 
   14000    237.70615   -190.51046     151384.6   -47140.399    3540.6587   -50681.058    78.417092   0.98763822 
   14100    234.77131    81.792361    151193.37   -47097.364     3496.944   -50594.308    79.057939   0.98888739 
   14200    237.64339    224.02534    151241.28   -47059.295     3539.724   -50599.019    79.902224   0.98857414 
   14300    239.57586   -105.69895    151090.36   -47100.525    3568.5083   -50669.033    80.627715   0.98956157 
   14400    237.49255    87.451817    151237.26       -47047    3537.4772   -50584.477    81.402945   0.98860038 
   14500    235.65537    204.98328    151247.64   -47073.585    3510.1121   -50583.697    82.068166   0.98853254 
   14600    238.64418    40.343967    151320.59   -46981.713    3554.6308   -50536.344    83.036339   0.98805601 
   14700    241.86906    115.99119    151499.91   -46980.922    3602.6657   -50583.588    83.674718   0.98688651 
   14800    240.99522    101.04572    151716.79   -47068.755    3589.6497   -50658.405    84.566883    0.9854757 
   14900    239.60015   -213.72545    151711.75   -47044.843      3568.87   -50613.713    85.444952   0.98550845 
   15000    240.93367   -117.00565     151691.3   -47136.617     3588.733    -50725.35    86.018128   0.98564132 
   15100    239.15791   -177.82458     151595.9   -47124.665    3562.2828   -50686.948    86.986175   0.98626162 
   15200    234.72709   -272.08707    151461.39   -47187.399    3496.2854   -50683.685    87.939487   0.98713747 
   15300    237.05021    31.501888    151432.53   -47115.968    3530.8884   -50646.857    88.734912   0.98732559 
   15400    238.42964    67.308799    151291.13   -47010.838    3551.4353   -50562.273    89.357113   0.98824837 
   15500    241.87031    70.035934    151259.15   -47045.748    3602.6844   -50648.432    90.541065   0.98845732 
   15600    241.78258   -33.308557    151081.78   -47080.556    3601.3776   -50681.933    91.488334   0.98961774 
   15700    237.84706   -175.27964    151022.31   -47093.419    3542.7576   -50636.177    92.349016   0.99000749 
   15800    242.58778   -229.39802    151088.18   -47101.438    3613.3711   -50714.809    93.655591   0.98957584 
   15900    238.33337    18.788233    151099.66   -47092.007    3550.0012   -50642.008    94.685909   0.98950064 
   16000    240.27278    105.80891    151108.37   -47150.232     3578.889   -50729.121    95.572411    0.9894436 
   16100     237.3056    103.48097    151169.02   -47172.065    3534.6925   -50706.758    96.762767   0.98904663 
   16200    243.21014    165.10489    151191.77   -47030.238    3622.6412   -50652.879    97.566359   0.98889786 
   16300     242.0419    245.97999    151147.01   -47017.794    3605.2402   -50623.035    98.097511   0.98919066 
   16400    239.49688    194.09793    151249.34   -46978.375    3567.3318   -50545.707    98.603416   0.98852144 
   16500    243.65793   -10.764576    151260.53   -46965.968    3629.3112   -50595.279     99.09752   0.98844833 
   16600    238.98066    102.39647    151216.49   -46965.376    3559.6426   -50525.019    99.254169   0.98873619 
   16700    238.22533    63.443591    151308.09   -47042.912     3548.392   -50591.305    99.443845   0.98813762 
   16800    237.54164   -63.267902    151159.38   -47029.008    3538.2083   -50567.216     99.58606   0.98910973 
   16900    243.75484    125.95559    150946.58   -47006.275    3630.7546    -50637.03    99.771195   0.99050418 
   17000    238.47018   -90.126618    150927.88   -46996.392    3552.0391   -50548.431    99.917246   0.99062685 
   17100    239.43305    236.61919    150902.83   -46988.857    3566.3811   -50555.238    100.25168   0.99079135 
   17200    241.49164    302.72508    150970.82   -46925.652     3597.044   -50522.696    100.61173   0.99034513 
   17300    238.68418   -90.042069    151025.49   -46931.087    3555.2266   -50486.314    100.91135   0.98998661 
   17400    235.56539    58.285854    150951.23   -46957.518    3508.7718    -50466.29    101.41112   0.99047362 
   17500    240.75336    122.37065    151055.78   -46955.367    3586.0473   -50541.414    102.04315   0.98978811 
   17600    236.17431    41.414535    151030.87   -47012.644    3517.8418   -50530.486    102.12089   0.98995137 
   17700    238.40151    152.52866    151100.91   -46939.352    3551.0162   -50490.368    102.24538   0.98949246 
   17800     237.1391    3.3424814    150999.32   -47002.005    3532.2125   -50534.217    102.44881   0.99015818 
   17900    242.75632    42.802855    150968.62   -47045.645    3615.8815   -50661.526    102.93594   0.99035955 
   18000    241.49869    141.50979    150924.14   -47099.279     3597.149   -50696.428    103.25921   0.99065143 
   18100    238.09611    38.768167     150964.6   -47079.622    3546.4672   -50626.089    103.89641   0.99038594 
   18200    235.95573   -134.23169    151093.21   -47045.908    3514.5861   -50560.495    104.76791   0.98954292 
   18300    237.96259    140.39267    151188.81   -47060.755    3544.4784   -50605.233    105.26392   0.98891717 
   18400    239.95326   -230.68934    151109.38   -47116.462    3574.1296   -50690.592    105.89759   0.98943703 
   18500     240.0707   -6.9710416    151116.22   -47048.385    3575.8789   -50624.264    106.38327    0.9893922 
   18600    239.33431   -110.98592     151026.7    -47057.68    3564.9104    -50622.59    107.09435   0.98997868 
   18700    241.60293   -83.895844       151140    -46955.42    3598.7017   -50554.121    107.86772   0.98923659 
   18800    239.88943   -141.59452    151004.65   -47021.806    3573.1789   -50594.985    108.29928   0.99012326 
   18900    237.90401    15.909802    150829.18   -47030.554    3543.6058    -50574.16    108.71982   0.99127516 
   19000    237.49852    124.01778     150937.6   -47029.945    3537.5661   -50567.511     109.4231   0.99056307 
   19100    242.63015    54.789609    151192.93   -47062.288    3614.0023   -50676.291    110.03186   0.98889024 
   19200    243.86677   -121.23717    151346.54   -47034.901    3632.4218   -50667.323    110.53979   0.98788658 
   19300    237.22674    186.21281    151349.36   -47028.477    3533.5179   -50561.995    110.42602   0.98786817 
   19400    240.36846   -6.2059017    151543.01   -47047.359    3580.3142   -50627.673    110.71967    0.9866058 
   19500    239.61738   -77.252995    151476.78   -47005.189    3569.1267   -50574.315    110.67489   0.98703718 
   19600    242.67201   -82.354185    151242.55   -46944.964    3614.6258    -50559.59    110.77139   0.98856582 
   19700    240.27833   -86.409624    151121.41   -46959.582    3578.9716   -50538.553    110.99232   0.98935825 
   19800    237.60112    49.941343     151140.4    -46952.92    3539.0943   -50492.014    111.87892   0.98923396 
   19900    240.62075    241.51892    151229.78   -46889.951     3584.072   -50474.023    112.14844    0.9886493 
   20000    241.50631   -46.577538    151315.12   -46874.468    3597.2626   -50471.731    112.25083   0.98809168 
   20100    243.36767   -114.09933    151100.78   -46890.496    3624.9877   -50515.484    112.22131   0.98949335 
   20200    244.03406    21.755324    150839.17   -46870.593    3634.9137   -50505.507    112.19459    0.9912095 
   20300    240.32414   -3.9849125    150776.63   -46828.842     3579.654   -50408.496    112.17412   0.99162064 
   20400    242.61205    136.24684    150665.05   -46843.018    3613.7326    -50456.75    112.05868   0.99235498 
   20500    244.77672   -100.79693    150789.73   -46781.062    3645.9757   -50427.038    112.34873   0.99153445 
   20600    242.10965   -158.36289    150735.03   -46887.933    3606.2494   -50494.182    112.47369    0.9918943 
   20700    243.82208    8.7971688    150830.88   -46947.736    3631.7561   -50579.492    112.82196   0.99126397 
   20800    239.61921    3.9485163     150937.3   -46977.385     3569.154   -50546.539    112.92271   0.99056505 
   20900    240.93907    280.39409    150922.02   -46980.945    3588.8135   -50569.758    113.19818   0.99066536 
   21000     241.4453   -45.923201    151165.45   -46910.879    3596.3537   -50507.232    113.35758   0.98907004 
   21100    241.51574      -78.289     151209.2   -46980.224     3597.403   -50577.627    113.46073   0.98878384 
   21200    238.93526   -123.05238    151143.08   -47087.291    3558.9664   -50646.257    113.50088   0.98921641 
   21300    238.33227   -39.981047    151089.99   -47071.321    3549.9849   -50621.305    113.71772   0.98956398 
   21400    238.78719    5.3940546    151028.52   -47008.055    3556.7609   -50564.816    113.60342   0.98996676 
   21500     241.5448   -40.384714    151052.43   -46963.423    3597.8358   -50561.259    113.31639   0.98981003 
   21600    241.31206   -107.80282    151169.87   -47014.818    3594.3691   -50609.187     113.2277   0.98904108 
   21700     242.6223    325.26777     151252.8   -46955.522    3613.8853   -50569.407    113.14759   0.98849885 
   21800    244.10739   -117.38755    151188.48   -46963.483    3636.0059   -50599.489    112.70765   0.98891936 
   21900    237.84563   -238.01803    151115.26   -46898.427    3542.7363   -50441.163     112.5852   0.98939852 
   22000    241.61599   -121.99667    151073.94   -46944.932    3598.8962   -50543.829    112.27712    0.9896691 
   22100    241.59954    280.18524    151005.28   -46906.519    3598.6513   -50505.171    112.32172   0.99011915 
   22200     242.6721    67.180593    151143.51   -46909.655    3614.6271   -50524.282    112.81617   0.98921359 
   22300    242.86801    132.75216     151241.6   -46950.254    3617.5452     -50567.8    112.81269   0.98857199 
   22400    241.67857     78.07209    151200.04   -47025.083    3599.8284   -50624.911    112.82776   0.98884375 
   22500    240.55391   -40.100985    151238.24   -47025.113    3583.0765    -50608.19    112.92654     0.988594 
   22600    239.19471    299.32641    151397.67   -47017.254     3562.831   -50580.085    112.89041   0.98755295 
   22700    241.36965   -138.99315    151388.97   -47033.253     3595.227    -50628.48    112.86236   0.98760972 
   22800    233.42971   -210.84256    151237.89   -47109.025    3476.9607   -50585.986    112.82425   0.98859626 
   22900    238.76504     102.5454    151129.25   -47093.504    3556.4311   -50649.935    112.64629   0.98930695 
   23000    244.83345    317.39951    151178.35   -47008.413    3646.8207   -50655.234    112.67313   0.98898564 
   23100    240.28403     45.65435    151363.99   -47013.085    3579.0565   -50592.141    112.80374   0.98777268 
   23200    241.20914   -181.91981    151281.53   -47043.426    3592.8361   -50636.262    113.15655   0.98831112 
   23300    236.92587     278.2761    151165.67   -47090.469    3529.0364   -50619.505    113.41877   0.98906858 
   23400    239.97513     189.0706    151162.07   -47062.235    3574.4554    -50636.69    113.60931   0.98909216 
   23500    240.49531   -11.480234    151102.06    -47050.02    3582.2035   -50632.223    113.68646   0.98948494 
   23600    237.11857   -187.41238    151158.97    -47088.49    3531.9067   -50620.396    113.74746   0.98911244 
   23700    236.67161    -169.8762    151062.86   -47092.832    3525.2491   -50618.081    113.91596   0.98974173 
   23800    240.71669    246.21501    150856.24     -47043.5     3585.501   -50629.001     114.3836   0.99109731 
   23900    240.46066   -140.80595    150942.99   -46970.175    3581.6875   -50551.863    114.78482   0.99052772 
   24000    239.66186   -303.56126    150851.33   -46958.938    3569.7893   -50528.727    115.10298   0.99112955 
   24100    242.30812     126.7719     150935.7   -46960.872    3609.2056   -50570.077    115.50894   0.99057557 
   24200    245.90745    12.994608    150917.98    -46883.71     3662.818   -50546.528    115.96224   0.99069186 
   24300    241.23767   -392.37896    150960.38   -46926.324    3593.2611   -50519.585    116.20554   0.99041363 
   24400    240.96778   -190.63912    150930.29   -46895.538    3589.2411   -50484.779    116.31854   0.99061107 
   24500    243.47848   -76.452768    150914.46   -46923.849    3626.6382   -50550.487    116.58984   0.99071498 
   24600    238.48067   -7.4789262    150923.74   -46921.841    3552.1953   -50474.036    116.95852   0.99065403 
   24700    239.65882    35.315261    150889.68   -46911.706    3569.7439   -50481.449    117.29329   0.99087767 
   24800      236.969   -305.32908    150701.58   -46893.567    3529.6788   -50423.246     117.4358   0.99211445 
   24900    237.71596   -107.31699    150646.39   -46937.917    3540.8048   -50478.721    117.77626   0.99247788 
   25000    236.33331   -138.31223    150544.18   -46955.923    3520.2101   -50476.134    118.06429   0.99315171 
   25100    239.65131   -87.958403    150383.82   -46950.616    3569.6322   -50520.248    118.42592    0.9942108 
   25200    238.87585   -227.85364    150256.92   -46992.795    3558.0816   -50550.877    118.93849   0.99505041 
   25300     240.8612   -38.638257    150246.29   -47031.333    3587.6536   -50618.987    119.44658   0.99512081 
   25400    241.37175   -55.091952    150356.47    -46987.25    3595.2582   -50582.509    119.81327   0.99439162 
   25500    236.67023   -56.660644    150243.81   -46998.513    3525.2285   -50523.742    120.30148   0.99513727 
   25600    236.05335    314.80296    150317.22   -47035.327    3516.0401   -50551.367    120.65768   0.99465125 
   25700    239.06041    85.150847    150370.69   -47039.182    3560.8305   -50600.012    121.09104   0.99429762 
   25800    237.99562   -95.561688    150281.94   -47101.367    3544.9705   -50646.338    121.24826    0.9948848 
   25900    238.36712     67.21219    150111.01   -47145.002    3550.5039   -50695.506    121.64261   0.99601762 
   26000    237.30628   -202.86892    150184.79   -47027.493    3534.7026   -50562.195    121.88375   0.99552832 
   26100    238.34695    315.50394    150308.31    -47048.98    3550.2035   -50599.184    122.44983   0.99471025 
   26200    241.63616   -222.56109    150367.63   -46951.126    3599.1967   -50550.323    122.93596   0.99431782 
   26300    239.57546    68.075863    150668.01   -46967.646    3568.5024   -50536.149    123.56157   0.99233546 
   26400    236.86509    94.858498     150564.3   -46994.547     3528.131   -50522.678    123.94529   0.99301903 
   26500    242.61138    137.09366    150658.67   -46849.696    3613.7227   -50463.419    124.56351     0.992397 
   26600    240.89719   -104.38221    150721.61   -46939.455    3588.1896   -50527.644    124.53488   0.99198257 
   26700    241.21834   -20.164267    150761.67   -46870.355    3592.9732   -50463.328    124.72828   0.99171898 
   26800    238.48342   -79.895808    150643.73   -46884.139    3552.2363   -50436.375    124.88446   0.99249546 
   26900    240.03363   -21.220973    150629.04   -46974.146    3575.3267   -50549.473    125.34701   0.99259226 
   27000    235.86644    79.241423     150636.5    -46981.29    3513.2561   -50494.546    125.61728   0.99254306 
   27100    242.03744    1.9979515    150595.74    -46931.75    3605.1738   -50536.924    125.66177    0.9928117 
   27200    241.99521    106.56091    150600.95   -46930.429    3604.5447   -50534.974    125.83855    0.9927774 
   27300    241.76542    197.76995    150711.21   -46915.717    3601.1219   -50516.839    126.19982   0.99205106 
   27400     244.5117    20.063296    150980.29   -46896.235    3642.0282   -50538.263    126.93859   0.99028298 
   27500     241.9219    207.42391     151067.4   -46962.387    3603.4527    -50565.84    127.39972   0.98971195 
   27600    242.73762    81.368619    151254.02   -46897.192     3615.603   -50512.795     128.1231   0.98849083 
   27700    244.74698     -114.471     151339.7   -46893.557    3645.5327   -50539.089    128.33343   0.98793119 
   27800    242.32269   -252.29769    151236.85   -46889.948    3609.4226    -50499.37    128.91658   0.98860305 
   27900    241.39851    136.82668    151292.77   -46931.557    3595.6568   -50527.214    129.29564   0.98823767 
   28000    242.69704    40.518408    151245.34   -46846.299    3614.9986   -50461.298    129.71802   0.98854756 
   28100    242.50091   -51.237156    151048.01   -46902.725    3612.0772   -50514.802    130.13414   0.98983905 
   28200    237.12236    124.85757    151056.65   -47018.503    3531.9631   -50550.466    131.04883   0.98978243 
   28300    238.95143     100.5925    151078.44   -47015.759    3559.2073   -50574.967    131.86746   0.98963967 
   28400    243.91527    97.085994    151153.06   -46895.469    3633.1442   -50528.613    132.38595    0.9891511 
   28500     236.6275     399.2413    151215.18   -46972.452    3524.5922   -50497.044    133.08043   0.98874476 
   28600    238.95529   -59.500186    151526.69   -47001.569    3559.2648   -50560.834    134.06046   0.98671207 
   28700    235.88389   -3.8946135    151497.24   -47075.498     3513.516   -50589.014    134.46649   0.98690389 
   28800    238.69958    210.74951    151707.23   -47016.944    3555.4559     -50572.4    134.88537   0.98553785 
   28900    239.67345   -83.335621    151724.19    -47025.17    3569.9619   -50595.132    135.58753   0.98542769 
   29000    238.41439    178.27135    151518.56    -47019.54    3551.2081   -50570.748    136.18085   0.98676501 
   29100    242.71532   -71.454851    151418.54   -47011.192    3615.2709   -50626.463    136.49131   0.98741682 
   29200    241.58073    39.372633    151448.68   -47072.566     3598.371   -50670.937    137.09835   0.98722034 
   29300    239.37522   -28.462272    151479.89   -47065.489    3565.5197   -50631.008    137.77085   0.98701693 
   29400    239.60599   -71.869457    151438.18    -47092.04    3568.9571   -50660.998    138.78083   0.98728879 
   29500    242.03825   -146.90739    151501.32   -47086.873    3605.1859   -50692.059    139.35171   0.98687732 
   29600    238.97683     227.7712    151549.03   -47080.995    3559.5857   -50640.581    139.89642   0.98656665 
   29700    239.95469   -204.61415    151538.49   -47081.897     3574.151   -50656.048    140.04256   0.98663526 
   29800    240.42929    2.6603651    151363.47   -47024.667    3581.2202   -50605.887    140.40221   0.98777609 
   29900    240.40577    -307.1527    151327.32   -47039.638    3580.8699   -50620.508     140.9823   0.98801202 
   30000    241.75263   -62.145262    151182.51   -47019.537    3600.9315   -50620.468     141.2274   0.98895839 
   30100    241.93994    117.74878    151243.96   -47022.607    3603.7215   -50626.328    141.81226   0.98855659 
   30200    239.48904   -89.699841    151268.58   -47023.016     3567.215   -50590.231    142.41743   0.98839572 
   30300    241.24834   -253.13211    151260.61   -46998.592      3593.42   -50592.012    143.28797   0.98844777 
   30400     238.0862   -25.164396    151211.07   -47098.988    3546.3197   -50645.307    143.44763    0.9887716 
   30500    236.82899   -91.780014    151250.91   -47080.594    3527.5933   -50608.188    143.94495   0.98851116 
   30600      238.629   -119.36983    151098.88   -47080.463    3554.4046   -50634.867    144.32265   0.98950577 
   30700    241.44729   -28.235976    150990.99   -47039.589    3596.3835   -50635.972    144.69331   0.99021285 
   30800    237.27895   -290.35512    150925.14   -46990.222    3534.2956   -50524.517    145.08714   0.99064484 
   30900    240.86678   -6.1823286    150856.07   -46983.619    3587.7367   -50571.356     145.4562   0.99109841 
   31000    241.10646    -31.00402    150785.68   -46941.186    3591.3067   -50532.492    145.74266   0.99156109 
   31100    233.29643    167.54078    150655.27   -47077.823    3474.9755   -50552.798     145.8761   0.99241941 
   31200     235.9982   -16.946388    150612.43   -47054.797    3515.2186   -50570.015    146.24384   0.99270169 
   31300    238.49118     260.0369    150538.77   -46988.416    3552.3518   -50540.768    146.47474   0.99318745 
   31400    239.09891     71.12052    150568.55   -47026.078     3561.404   -50587.482    146.87407     0.992991 
   31500    237.66291    248.57725     150643.2   -46951.605    3540.0147    -50491.62    147.20389    0.9924989 
   31600    241.60467   -17.689021    150967.07   -46931.821    3598.7275   -50530.549    148.14142   0.99036968 
   31700    242.00547    60.296746    150997.47   -46978.532    3604.6976    -50583.23    148.30276   0.99017032 
   31800    237.85153   -189.64089    150908.32   -46993.876    3542.8242     -50536.7    148.65084   0.99075526 
   31900    237.56541    46.467696    150890.06   -46964.068    3538.5624    -50502.63    149.27198    0.9908752 
   32000    241.49277    93.247545    150960.85   -46911.167    3597.0609   -50508.228      150.133   0.99041052 
   32100    234.39032    18.197319     151032.3   -46979.633    3491.2691   -50470.902     150.8044     0.989942 
   32200    236.88888   -181.55974    151064.27   -46961.276    3528.4853   -50489.762    151.70543   0.98973251 
   32300    240.00655   -221.90893     150975.6   -46951.178    3574.9234   -50526.102    152.12421   0.99031379 
   32400     244.3911   -148.54504    150951.61   -46888.585    3640.2317   -50528.817    152.54381   0.99047116 
   32500    241.84959   -105.01592    150783.97   -46994.012    3602.3757   -50596.388    153.13807   0.99157234 
   32600    241.24491   -84.654486    150588.79   -46985.952    3593.3689   -50579.321    153.83762   0.99285755 
   32700    243.06701   -255.23218    150390.02   -46983.281    3620.5093    -50603.79    154.28792   0.99416976 
   32800     240.6209    104.02295    150404.97   -47026.411    3584.0742   -50610.485     155.2235   0.99407095 
   32900    239.96002     80.53558    150509.86     -47081.7    3574.2304   -50655.931    155.89049   0.99337822 
   33000    241.55971    4.0960224    150494.51   -47075.046    3598.0579   -50673.104    156.43415   0.99347952 
   33100    240.04712   -60.766195    150511.96   -47025.727    3575.5277   -50601.255    157.54699   0.99336437 
   33200     238.2927   -152.10535    150482.82   -46969.852    3549.3954   -50519.248    158.47337   0.99355669 
   33300    242.01265    127.27673    150684.26   -46912.507    3604.8045   -50517.311    159.00702   0.99222847 
   33400    235.39201    67.118051    150844.82   -46972.738    3506.1893   -50478.928    159.65479   0.99117233 
   33500    243.47972   -161.32466    150920.07   -46910.636    3626.6567   -50537.292    160.42584   0.99067817 
   33600    237.60372    118.53056    151006.69   -46947.235     3539.133   -50486.368     161.0775   0.99010988 
   33700    239.81437   -188.55924    150815.52   -46954.766    3572.0608   -50526.827    161.11971   0.99136489 
   33800    240.94309    78.452227    150755.88   -46938.898    3588.8733   -50527.771    162.03209   0.99175712 
   33900    240.14127   -251.93017    150716.82   -46958.692    3576.9301   -50535.622    162.45496   0.99201414 
   34000    243.33197    143.26855    150696.47   -46972.363     3624.456   -50596.819    162.49827   0.99214811 
   34100     239.5869    22.269141     150674.6   -47041.758    3568.6727   -50610.431    163.20884   0.99229212 
   34200    239.32533     139.4149    150631.42   -47002.941    3564.7766   -50567.717    164.07668   0.99257654 
   34300    242.71455    155.88359    150702.12   -46958.729    3615.2594   -50573.988    164.93806   0.99211091 
   34400    244.64063   -41.373479    150621.69   -46900.389    3643.9485   -50544.338    165.70878   0.99264068 
   34500    246.98338   -8.2863822    150566.81   -46891.319     3678.844   -50570.163    166.38226   0.99300244 
   34600    241.27409    103.96741     150563.6   -46962.476    3593.8036   -50556.279    166.48756   0.99302364 
   34700    241.00874    118.78815    150636.88   -47017.865    3589.8512   -50607.717    166.60481   0.99254056 
   34800    240.74901    285.32544     150847.2   -47043.174    3585.9824   -50629.156    167.17438   0.99115668 
   34900    239.58672    102.88864     151062.1   -47042.615      3568.67   -50611.285    167.80716   0.98974671 
   35000    238.66659    15.918665    151114.72   -47102.114    3554.9646   -50657.079    168.24901   0.98940207 
   35100    238.98241    135.36044    151299.13   -47048.896    3559.6688   -50608.565    168.59847   0.98819612 
   35200    248.60841   -14.625151    151368.94   -46880.394    3703.0491   -50583.443    169.06567    0.9877404 
   35300    240.60048   -43.044092    151244.11   -46990.934    3583.7701   -50574.704    169.62053   0.98855561 
   35400    238.95406    -10.89196    151110.69   -47098.711    3559.2465   -50657.958     169.4363   0.98942845 
   35500    237.14498    250.05139    151161.39   -47044.822       3532.3   -50577.122    169.65162    0.9890966 
   35600    235.98362    213.11605    151206.88   -47021.846    3515.0014   -50536.847    170.02649   0.98879901 
   35700    241.21411   -127.62333    151165.64   -46977.341    3592.9102   -50570.251    170.67637   0.98906881 
   35800    241.68407    142.04986    151077.78   -47018.111    3599.9102   -50618.022    171.27652   0.98964397 
   35900    241.18306    130.66835     151185.7   -46978.708    3592.4477   -50571.155    171.85728   0.98893754 
   36000    239.62586   -40.490036    151188.18   -47001.102     3569.253   -50570.355    172.37734   0.98892134 
   36100    236.98321     258.3651    151142.56    -47024.47    3529.8905    -50554.36    172.74597   0.98921983 
   36200    239.33939    37.115049    151138.33   -47004.391     3564.986   -50569.377    173.46895   0.98924748 
   36300    239.63159   -167.34264    150812.65   -46996.714    3569.3383   -50566.052    173.71237   0.99138374 
   36400    243.29102    40.545365    150870.13   -46912.708     3623.846   -50536.554    174.24348   0.99100609 
   36500    242.41514   -75.323608    150807.13   -46849.453    3610.7997   -50460.253    174.70449   0.99142008 
   36600    242.05047   -16.687421    150819.31   -46940.826    3605.3678   -50546.194    175.30067   0.99133998 
   36700    242.12142    6.1667226    150910.69   -46970.084    3606.4247   -50576.509    175.85923   0.99073968 
   36800    238.88561    37.515692    150870.79   -47003.088    3558.2269   -50561.315    176.47034   0.99100176 
   36900    240.71014    78.140047    150676.42   -47114.316    3585.4034   -50699.719    176.96143   0.99228012 
   37000    232.75301   -74.946281    150795.93   -47052.034    3466.8811   -50518.916    177.86433   0.99149369 
   37100    236.39194    171.25961    150756.74   -47042.911    3521.0834   -50563.994    178.43439   0.99175144 
   37200    242.25504    336.99109    150744.16   -47018.153     3608.415   -50626.568    179.22446    0.9918342 
   37300    241.62709    14.334829    150981.74    -47023.29    3599.0616   -50622.351    180.04542   0.99027349 
   37400    235.43924    -112.7583    151001.85   -47093.494    3506.8929   -50600.386    180.10686   0.99014161 
   37500    240.46169    111.26894    151148.76   -47108.951    3581.7028   -50690.654    180.79056    0.9891792 
   37600    238.50135    184.41018    151234.39   -47084.641    3552.5033   -50637.144    181.65401   0.98861916 
   37700    236.92607   -37.426491    151331.71   -47115.966    3529.0393   -50645.005    182.64521   0.98798337 
   37800    241.72267   -136.52402    151281.63   -47101.779    3600.4852   -50702.264    183.31394   0.98831046 
   37900    238.76864    63.903488    151343.01   -47153.841    3556.4846   -50710.326     183.8472   0.98790963 
   38000    238.65531    174.44517    151384.43   -47116.428    3554.7965   -50671.225    184.17592   0.98763934 
   38100    235.60046     98.46187    151417.02   -47115.195    3509.2943   -50624.489    185.04029   0.98742677 
   38200     241.9602    144.92401    151566.13   -47085.206    3604.0232   -50689.229    185.52387    0.9864553 
   38300    237.14023    36.576088    151583.77   -47183.824    3532.2293   -50716.053    185.75594   0.98634054 
   38400    236.13856   -254.77732    151636.96   -47236.273    3517.3094   -50753.582    185.76182   0.98599453 
   38500    234.46053 -0.043639527    151498.45   -47258.371    3492.3149   -50750.686    185.92269   0.98689599 
   38600    238.42083    3.8931361    151640.86   -47142.374     3551.304   -50693.678    186.76069   0.98596917 
   38700    235.88402    16.823559    151659.13   -47135.728    3513.5179   -50649.245    187.06679   0.98585037 
   38800    236.38822    170.30736    151728.23   -47083.216     3521.028   -50604.244    187.42115   0.98540145 
   38900    243.32009   -86.803505    151696.31    -46993.72     3624.279   -50617.999    187.89702   0.98560876 
   39000    240.73899   -85.649653    151557.76   -47038.972    3585.8332   -50624.806    188.41217   0.98650977 
   39100    239.25768    68.840575       151554   -47061.351    3563.7689    -50625.12    188.74356   0.98653424 
   39200    241.84198   -21.835015    151593.15   -47017.687    3602.2624   -50619.949    189.58061   0.98627951 
   39300     241.8086   -23.594406    151591.32   -46998.993    3601.7652   -50600.758    190.32074   0.98629137 
   39400    237.67818   -211.67845    151561.33   -47015.808    3540.2421    -50556.05    191.21036   0.98648657 
   39500    239.24678   -59.788124     151681.7   -46975.331    3563.6066   -50538.938    192.18057   0.98570371 
   39600    244.20231   -56.557767    151649.94   -46964.907    3637.4198   -50602.327    192.86453   0.98591013 
   39700    240.44556    101.52138       151627   -47062.779    3581.4625   -50644.242    193.69927   0.98605929 
   39800    238.24511   -36.406931       151617   -47023.663    3548.6865   -50572.349    194.47855   0.98612434 
   39900    235.73804    199.22401     151666.9   -47221.039    3511.3435   -50732.383    194.80894   0.98579992 
   40000    241.73096    54.541472    151739.27   -47092.562    3600.6087   -50693.171    194.82964   0.98532976 
   40100    238.04658   -131.12785    151804.85   -47099.496    3545.7294   -50645.225    195.75953   0.98490408 
   40200    237.87798   -367.21569    151793.68   -46995.387    3543.2182   -50538.605    196.93517   0.98497652 
   40300    240.60761   -108.26633    151797.63   -47023.426    3583.8763   -50607.302     197.5076   0.98495094 
   40400    232.36856   -222.49495     151704.3   -47049.629    3461.1547   -50510.784    198.59183   0.98555687 
   40500    235.50312    44.041346    151596.13   -47031.848    3507.8444   -50539.693    199.08275   0.98626007 
   40600    244.45697   -132.61213    151520.67   -46987.763    3641.2129   -50628.976    199.83337   0.98675131 
   40700    236.84195   -272.04507    151311.39   -47009.836    3527.7864   -50537.623      200.114   0.98811607 
   40800    239.23811    88.026333    151120.41   -46991.454    3563.4775   -50554.932    200.91462    0.9893648 
   40900    237.53457   -16.767831    151128.48   -47025.263     3538.103   -50563.366     201.9968   0.98931198 
   41000    238.20406   -17.202341    151061.02   -47011.127    3548.0751   -50559.202    202.91019   0.98975376 
   41100    238.46155    53.501801     151086.6   -47001.262    3551.9105   -50553.172    203.67221   0.98958621 
   41200    239.52392   -45.254445    151204.16   -46914.768    3567.7347   -50482.503    204.14163   0.98881678 
   41300    234.40799   -215.73453    151115.44   -47030.361    3491.5323   -50521.893    204.46746   0.98939732 
   41400    240.26841   -241.48145    151011.92   -47029.841    3578.8239   -50608.665    205.12526   0.99007557 
   41500    238.60428   -277.00539    150927.51   -47020.876    3554.0365   -50574.912    205.80855   0.99062928 
   41600    242.21599    12.826012    150954.57   -46944.787    3607.8333   -50552.621    206.53983   0.99045171 
   41700    237.54713   -50.238884    151054.16   -47063.116    3538.2901   -50601.406    206.92563   0.98979873 
   41800    240.53842    160.49486    151351.06   -46982.449    3582.8457   -50565.295    207.63266   0.98785708 
   41900    237.53557   -127.78374    151519.07   -46964.827    3538.1179   -50502.945     208.2966   0.98676169 
   42000    245.56344   -38.507398    151553.08   -46992.974     3657.694   -50650.668    208.72607   0.98654024 
   42100    241.38329   -478.93513    151362.44   -47029.164    3595.4302   -50624.595    208.51248   0.98778278 
   42200    240.11866    69.084445    151218.23   -46988.663    3576.5934   -50565.256     208.9159   0.98872482 
   42300    238.20853   -39.464486    151323.37   -47068.697    3548.1418   -50616.839    209.21564   0.98803783 
   42400    235.70284    119.42876    151341.56   -47046.002    3510.8192   -50556.821     209.8159   0.98791906 
   42500    238.59221   -246.45856    151368.91   -47077.724    3553.8567    -50631.58    210.56249   0.98774057 
   42600    233.25655   -27.236458    151212.16   -47129.769    3474.3815   -50604.151    211.28558   0.98876448 
   42700    234.93302   -214.56412    151268.44   -47134.236    3499.3526   -50633.589    212.01786    0.9883966 
   42800    236.84177    127.83768    151275.83   -47156.196    3527.7836    -50683.98    212.46621   0.98834835 
   42900    235.37922    178.43658    151536.09    -47088.41    3505.9988   -50594.409    213.00953   0.98665085 
   43000    237.42437     134.0595    151524.86   -47045.644    3536.4616   -50582.106    213.20845   0.98672399 
   43100    238.31812    106.88705    151497.13   -47054.827     3549.774   -50604.601    213.47978   0.98690459 
   43200     239.1777    176.26902     151602.7   -47066.259    3562.5776   -50628.837    213.92001   0.98621734 
   43300    238.26261   -178.72421    151627.28   -47092.694    3548.9473   -50641.641    213.91729   0.98605746 
   43400    236.44574    277.53228    151561.55   -47129.475    3521.8847    -50651.36    213.80684   0.98648513 
   43500    239.58285    169.28804       151680   -47069.329    3568.6124   -50637.941    213.98835   0.98571473 
   43600    236.55374   -103.63669    151610.46   -47093.402    3523.4935   -50616.895    213.87519   0.98616691 
   43700    242.41621   -42.003657    151560.12     -47049.6    3610.8155   -50660.415    214.33982   0.98649441 
   43800    240.28153   -8.3436747    151493.18   -46993.332    3579.0193   -50572.351    214.28506   0.98693035 
   43900    238.50704   -337.37485    151243.66   -47100.587    3552.5881   -50653.175    214.15295   0.98855856 
   44000    240.02185   -46.643139    151120.65   -47036.301    3575.1514   -50611.452    214.23632   0.98936321 
   44100    244.56321   -157.48321    151039.68   -46976.823    3642.7955   -50619.618    214.70782   0.98989359 
   44200    240.79559   -9.1410735    151055.37   -47042.821    3586.6763   -50629.497    214.72579   0.98979081 
   44300    238.12579   -161.91539    151070.35   -47166.946    3546.9093   -50713.856    215.00216   0.98969265 
   44400    235.67861    350.73629    151164.12   -47149.762    3510.4584    -50660.22    215.67237   0.98907874 
   44500     239.4401   -3.0047244    151223.02   -47168.479    3566.4861   -50734.965     216.1726   0.98869345 
   44600    236.92184    229.91313    151261.24   -47127.746    3528.9764   -50656.722    216.44228   0.98844363 
   44700    232.94033    224.71267    151375.89   -47157.279    3469.6713   -50626.951    216.64491   0.98769503 
   44800    238.72658   -132.45131    151519.43   -47123.115    3555.8581   -50678.974    217.21695   0.98675937 
   44900    241.88934   -76.516024    151525.35    -47152.31    3602.9678   -50755.278    217.00299   0.98672081 
   45000    238.42856    38.126065    151495.99   -47146.646    3551.4192   -50698.065    217.16202   0.98691201 
   45100    238.30005    194.47216    151420.02   -47085.274    3549.5049   -50634.778    217.71186   0.98740716 
   45200    240.09722    72.238936    151436.44   -47080.816     3576.274    -50657.09    218.06393   0.98730011 
   45300    234.61132    94.301724    151569.79   -47132.834    3494.5609   -50627.395    218.98336   0.98643147 
   45400    236.65838    144.11503    151534.47   -47142.611    3525.0521   -50667.663    219.44426   0.98666143 
   45500     239.1395    374.35359    151696.69   -47073.539    3562.0086   -50635.547    220.67753   0.98560628 
   45600    236.98279    64.734839    151590.64   -47128.368    3529.8843   -50658.252    221.70114   0.98629579 
   45700    245.29378   -40.224162    151510.64   -47041.314    3653.6774   -50694.992    222.65884   0.98681659 
   45800     241.5947    55.389562    151402.06   -47057.865    3598.5791   -50656.444    223.49302   0.98752434 
   45900     242.6019    123.53606    151580.93    -47037.36    3613.5814   -50650.942    224.86551     0.986359 
   46000    233.99076   -89.685065    151698.13   -47069.826    3485.3176   -50555.144    226.01896   0.98559693 
   46100       238.55    -34.51976    151594.83   -47032.754     3553.228   -50585.982    226.90459   0.98626856 
   46200    237.32365   -87.501632    151497.59   -47027.137    3534.9614   -50562.098    227.47734   0.98690163 
   46300     243.1411   -338.89101    151300.09    -47033.36    3621.6129   -50654.973    228.35159   0.98818985 
   46400    238.37986     42.44353    151248.33   -47015.756    3550.6937    -50566.45    228.30579   0.98852805 
   46500    236.45715   -173.91084     151168.4   -46973.664    3522.0547   -50495.718    228.65654   0.98905073 
   46600    242.59209   -111.34877     151106.8   -46912.079    3613.4354   -50525.515    229.06094   0.98945392 
   46700    239.85466      159.557    151106.99   -46905.042     3572.661   -50477.703    229.77435   0.98945268 
   46800    244.11578   -125.75096    151183.43   -46856.817    3636.1308   -50492.948    230.46436    0.9889524 
   46900    242.37799   -104.06806    151034.61    -46871.63    3610.2463   -50481.876    230.70725   0.98992686 
   47000    243.76185   -12.129503    151002.31   -46926.666     3630.859   -50557.525    231.85578   0.99013862 
   47100    239.15826   -79.728055    151003.54   -46942.407    3562.2881   -50504.695    232.41926   0.99013051 
   47200     241.5299   -280.19938    151104.76   -46983.459    3597.6139   -50581.073    233.35288   0.98946724 
   47300    242.15624    -103.0819     151111.9   -46950.641    3606.9433   -50557.585    234.03137   0.98942052 
   47400      243.627   -113.71956    151060.99   -46925.929    3628.8504    -50554.78    234.07246   0.98975394 
   47500    237.54022   -7.3114283    150952.51   -47005.015    3538.1872   -50543.203     234.0877   0.99046526 
   47600    241.83827   -79.954114    151030.68   -46974.409    3602.2071   -50576.617    234.69064   0.98995259 
   47700    236.55822    16.940739    151004.11   -47040.724    3523.5602   -50564.284    235.43728   0.99012678 
   47800    239.36255    88.816435    150925.13   -47078.679     3565.331    -50644.01    236.25589   0.99064492 
   47900    242.49368    66.457686    150995.72   -47025.508    3611.9696   -50637.477    236.37955   0.99018181 
   48000    237.82753   -130.04887    151088.83   -47049.409    3542.4666   -50591.876    237.12275   0.98957158 
   48100    238.72403   -77.425197    151117.25   -47079.702    3555.8201   -50635.522    237.82249   0.98938549 
   48200    240.67653    34.580778    151075.13   -47035.743    3584.9029   -50620.646    237.81996    0.9896613 
   48300    234.57736    40.673103    151068.68   -47004.047    3494.0551   -50498.102    238.03343   0.98970359 
   48400    239.93105    89.341368    151077.43   -46957.505    3573.7988   -50531.304    238.36039   0.98964624 
   48500    237.15797   -120.53575    150975.45   -47049.397    3532.4936    -50581.89    238.36297   0.99031476 
   48600    240.88847    52.990361    150848.14   -47024.445    3588.0597   -50612.505    239.52218   0.99115056 
   48700    235.14703   -127.07166    150869.05   -47112.099    3502.5403    -50614.64    239.96566   0.99101316 
   48800    238.53055    -2.835818    150751.64   -47056.877    3552.9383   -50609.815    240.78887   0.99178499 
   48900    240.49427   -139.49732    150742.52   -47000.394    3582.1881   -50582.582    241.59462   0.99184503 
   49000    238.67737    53.102343    150730.54   -46954.042    3555.1252   -50509.167    242.47517   0.99192385 
   49100    238.20029   -75.519978     150728.3   -47004.498     3548.019   -50552.517    242.37736   0.99193857 
   49200    237.84898    62.475506     150593.9   -47061.358    3542.7862   -50604.144    242.51245   0.99282383 
   49300    239.63284    140.59379    150729.25   -47033.049    3569.3569   -50602.406    242.68264   0.99193228 
   49400    238.36184   -30.111776    151052.21   -47035.257    3550.4253   -50585.682    243.40006   0.98981152 
   49500    236.16051   -34.825912    151305.39   -47028.272    3517.6363   -50545.909    244.71438   0.98815527 
   49600    239.41005    77.008593    151260.07   -47007.739    3566.0385   -50573.778    244.89467   0.98845132 
   49700    239.04006   -19.033706    151372.73   -46990.194    3560.5275   -50550.721    245.73802   0.98771565 
   49800    233.31355    241.10976    151434.96   -46966.328    3475.2304   -50441.559    246.48656   0.98730974 
   49900    237.79513   -70.270106    151508.84   -47029.699    3541.9841   -50571.684    246.68633    0.9868283 
   50000    233.82296    2.5974028    151557.07   -47036.845    3482.8182   -50519.664    247.87144   0.98651427 
   50100     240.3717   -117.80128    151582.86   -47015.082    3580.3623   -50595.444    248.68698   0.98634645 
   50200    233.76671   -68.187676    151391.86   -46974.196    3481.9804   -50456.177    249.24177   0.98759086 
   50300    241.15131    -294.9617    151380.71   -46915.855    3591.9748    -50507.83    249.71634   0.98766355 
   50400    238.71159   -218.12629    151297.52   -46941.776    3555.6349    -50497.41     250.7098   0.98820666 
   50500     237.1789   -51.320068    151178.53   -46951.963    3532.8053   -50484.768      251.696   0.98898441 
   50600    239.04811   -219.76861    151080.48   -46978.161    3560.6473   -50538.808    252.28109   0.98962631 
   50667    239.10913   -190.82575    151037.82   -46961.387    3561.5563   -50522.943    252.84165   0.98990579 
Loop time of 50.3892 on 12 procs for 50000 steps with 4998 atoms

Performance: 428.663 ns/day, 0.056 hours/ns, 992.277 timesteps/s
98.1% CPU use with 12 MPI tasks x no OpenMP threads

MPI task timing breakdown:
Section |  min time  |  avg time  |  max time  |%varavg| %total
---------------------------------------------------------------
Pair    | 36.608     | 37.475     | 38.774     |  10.3 | 74.37
Neigh   | 2.2536     | 2.2963     | 2.348      |   1.8 |  4.56
Comm    | 4.9545     | 6.0961     | 6.8903     |  22.5 | 12.10
Output  | 0.11213    | 0.11574    | 0.14962    |   3.0 |  0.23
Modify  | 3.2852     | 3.9424     | 4.8363     |  25.1 |  7.82
Other   |            | 0.4632     |            |       |  0.92

Nlocal:        416.500 ave         432 max         403 min
Histogram: 1 1 0 3 2 3 0 1 0 1
Nghost:        1048.33 ave        1061 max        1032 min
Histogram: 1 0 2 0 0 5 0 1 2 1
Neighs:        0.00000 ave           0 max           0 min
Histogram: 12 0 0 0 0 0 0 0 0 0
FullNghs:      11931.5 ave       12515 max       11307 min
Histogram: 1 0 0 1 4 3 1 1 0 1

Total # of neighbors = 143178
Ave neighs/atom = 28.647059
Neighbor list builds = 3053
Dangerous builds = 0

unfix               2
unfix               3
unfix               4

write_data		data.whole_${NAME}
write_data		data.whole_Ibeam_MLmW_240K
System init for write_data ...


# Create the I-beam, width 35A
region beam block 46.252 111.252 0.0 INF 0.0 INF side out
delete_atoms region beam
Deleted 2928 atoms, new total = 2070

fix                 1 all momentum 10 linear 1 1 1 rescale
fix                 2 all nve
fix                 3 all temp/csvr ${TEMP} ${TEMP} 500.0 928347
fix                 3 all temp/csvr 240 ${TEMP} 500.0 928347
fix                 3 all temp/csvr 240 240 500.0 928347

# Run 0.05 ns equilibration
#
dump                2 all custom 1000 eq.${NAME}.dump id type x y z vx vy vz
dump                2 all custom 1000 eq.Ibeam_MLmW_240K.dump id type x y z vx vy vz
run                 10000
Per MPI rank memory allocation (min/avg/max) = 4.739 | 4.742 | 4.746 Mbytes
Step Temp Press Volume TotEng KinEng PotEng c_1[4] Density 
   50667    238.33739   -243.26749    151037.82   -19021.999    1469.8972   -20491.896     264.9954   0.40998499 
   50700    251.58519    228.28782    151037.82   -19020.289    1551.6004   -20571.889    265.27622   0.40998499 
   50800    241.22947   -59.447655    151037.82   -19103.247    1487.7335    -20590.98    266.50447   0.40998499 
   50900    241.83619   -72.519238    151037.82   -19156.536    1491.4754   -20648.011     267.8032   0.40998499 
   51000    239.61775   -69.905748    151037.82   -19164.782    1477.7936   -20642.576    268.65643   0.40998499 
   51100    245.17002    6.9439674    151037.82   -19143.114    1512.0361    -20655.15    269.61604   0.40998499 
   51200    245.72778    111.99471    151037.82   -19147.447     1515.476   -20662.923    271.10363   0.40998499 
   51300    238.24554    71.975357    151037.82   -19102.299    1469.3308    -20571.63    270.95465   0.40998499 
   51400    237.06738   -276.43964    151037.82   -19127.056    1462.0647   -20589.121    273.15655   0.40998499 
   51500    249.15545    53.439355    151037.82   -19123.143    1536.6154   -20659.758    273.52939   0.40998499 
   51600    236.21154    76.144806    151037.82   -19172.122    1456.7865   -20628.908    274.54309   0.40998499 
   51700    235.12855   -230.60373    151037.82   -19196.497    1450.1074   -20646.604    275.45691   0.40998499 
   51800    239.64001   -70.016426    151037.82   -19165.884    1477.9309   -20643.815    275.55573   0.40998499 
   51900    236.42255    66.408383    151037.82   -19181.245    1458.0879   -20639.333    276.30188   0.40998499 
   52000    248.71268    165.92297    151037.82   -19185.606    1533.8847   -20719.491    276.19942   0.40998499 
   52100    240.25476   -130.32309    151037.82   -19228.382    1481.7222   -20710.104    276.90365   0.40998499 
   52200    232.45612    13.792704    151037.82   -19237.774    1433.6257     -20671.4    277.63952   0.40998499 
   52300    243.34866    -83.71831    151037.82   -19205.167    1500.8032    -20705.97    277.28445   0.40998499 
   52400    239.96361   -166.74535    151037.82   -19200.107    1479.9266   -20680.033    277.79132   0.40998499 
   52500    241.59105   -111.23311    151037.82   -19172.926    1489.9635    -20662.89    278.69524   0.40998499 
   52600    243.87473    -179.4613    151037.82   -19106.438    1504.0477   -20610.485    278.21084   0.40998499 
   52700    241.39707   -36.770095    151037.82   -19132.779    1488.7672   -20621.546    277.72093   0.40998499 
   52800    234.77164    146.86813    151037.82   -19164.109    1447.9062   -20612.015    277.85823   0.40998499 
   52900    241.08858    72.100311    151037.82   -19182.601    1486.8646   -20669.466     278.7582   0.40998499 
   53000    245.22386   -192.90295    151037.82   -19156.996    1512.3681   -20669.365    279.60918   0.40998499 
   53100    237.16135   -168.79703    151037.82   -19181.998    1462.6443   -20644.642    279.88945   0.40998499 
   53200    238.69721    -247.6278    151037.82   -19173.425    1472.1163   -20645.541    280.66362   0.40998499 
   53300    241.01569   -268.32636    151037.82   -19181.159    1486.4151   -20667.574    281.27671   0.40998499 
   53400     244.8151    19.704066    151037.82   -19201.816    1509.8472   -20711.663    282.13079   0.40998499 
   53500    246.35547   -33.433168    151037.82   -19160.821    1519.3471   -20680.168    282.89521   0.40998499 
   53600     246.1308   -146.01646    151037.82   -19190.865    1517.9615   -20708.827    283.66169   0.40998499 
   53700    251.22149    93.946104    151037.82    -19157.34    1549.3573   -20706.697    284.75094   0.40998499 
   53800    247.20306    -318.5683    151037.82   -19190.778    1524.5744   -20715.352    286.15908   0.40998499 
   53900     234.5524   -207.75608    151037.82   -19284.116    1446.5541    -20730.67    287.07441   0.40998499 
   54000    235.81311   -64.411882    151037.82    -19290.48    1454.3293   -20744.809    288.36521   0.40998499 
   54100    234.12546    19.991024    151037.82   -19234.765     1443.921   -20678.686    289.19198   0.40998499 
   54200    229.85552   -152.94625    151037.82   -19228.547     1417.587   -20646.134    290.00262   0.40998499 
   54300    234.76591    57.737648    151037.82   -19166.615    1447.8708   -20614.486    291.07505   0.40998499 
   54400    241.28255    99.518443    151037.82   -19154.647    1488.0609   -20642.708    292.13232   0.40998499 
   54500    240.85829   -101.80381    151037.82   -19152.623    1485.4443   -20638.067    292.81002   0.40998499 
   54600    239.37035   -280.02657    151037.82   -19171.775    1476.2678   -20648.043    294.61257   0.40998499 
   54700    235.83458   -128.26774    151037.82   -19212.197    1454.4616   -20666.659    294.70218   0.40998499 
   54800    241.01538   -6.6056579    151037.82   -19204.517    1486.4132    -20690.93    295.78871   0.40998499 
   54900    249.76341    65.404604    151037.82   -19197.398    1540.3649   -20737.763    295.89683   0.40998499 
   55000    238.12287    181.69002    151037.82   -19255.822    1468.5742   -20724.396    296.57089   0.40998499 
   55100    239.68945    106.89679    151037.82   -19222.622    1478.2358   -20700.858     297.9201   0.40998499 
   55200    240.04138    -422.0238    151037.82   -19245.271    1480.4062   -20725.677    298.82983   0.40998499 
   55300     239.5449    26.567808    151037.82   -19212.248    1477.3443   -20689.592    299.65544   0.40998499 
   55400    244.54892    73.307459    151037.82   -19174.175    1508.2056   -20682.381    300.01415   0.40998499 
   55500    236.92324   -93.768767    151037.82   -19153.273    1461.1757   -20614.448    301.38085   0.40998499 
   55600    244.38398   -20.820463    151037.82   -19136.612    1507.1883     -20643.8    301.93536   0.40998499 
   55700    242.89822   -187.39254    151037.82    -19175.11    1498.0252   -20673.136      302.739   0.40998499 
   55800    250.74021    209.52818    151037.82   -19141.868    1546.3891   -20688.257    303.05748   0.40998499 
   55900    235.05401    64.662255    151037.82   -19228.497    1449.6477   -20678.144    303.48151   0.40998499 
   56000    237.07206    67.874212    151037.82   -19249.637    1462.0936   -20711.731    303.60032   0.40998499 
   56100    236.54705   -22.956074    151037.82   -19249.889    1458.8557   -20708.745    303.82606   0.40998499 
   56200    240.27242    42.111466    151037.82   -19245.364    1481.8311   -20727.196      304.553   0.40998499 
   56300    239.65634    1.6968342    151037.82   -19238.318    1478.0316   -20716.349    304.98959   0.40998499 
   56400      240.986   -32.531661    151037.82   -19241.591     1486.232   -20727.823    305.60334   0.40998499 
   56500     234.5445   -50.501165    151037.82   -19236.198    1446.5053   -20682.704    305.96071   0.40998499 
   56600    238.08251   -43.824804    151037.82   -19285.626    1468.3253   -20753.951    306.90645   0.40998499 
   56700    240.45185   -76.786091    151037.82   -19281.733    1482.9377   -20764.671    307.42793   0.40998499 
   56800    242.06958      96.7401    151037.82   -19334.134    1492.9147   -20827.049    307.90681   0.40998499 
   56900    239.18781    146.42583    151037.82   -19316.487     1475.142   -20791.629    308.83333   0.40998499 
   57000    239.41172    -173.2269    151037.82   -19240.967     1476.523    -20717.49    308.50946   0.40998499 
   57100    231.41286   -87.261428    151037.82   -19313.426    1427.1916   -20740.617    308.45042   0.40998499 
   57200    235.75237   -17.389323    151037.82   -19318.453    1453.9546   -20772.408    308.96222   0.40998499 
   57300    234.68615    1.1085071    151037.82    -19322.72    1447.3789   -20770.098    309.31331   0.40998499 
   57400    232.20662   -145.28582    151037.82   -19338.682    1432.0869   -20770.769    308.67757   0.40998499 
   57500    236.89542   -15.134787    151037.82   -19296.677    1461.0042   -20757.681    308.89442   0.40998499 
   57600    239.84864   -178.03722    151037.82   -19269.226    1479.2175   -20748.444    309.26947   0.40998499 
   57700     238.0687    33.473524    151037.82    -19243.72    1468.2402    -20711.96    309.30424   0.40998499 
   57800    239.42169    120.48302    151037.82   -19261.578    1476.5844   -20738.162    309.29231   0.40998499 
   57900    236.43582   -166.48239    151037.82    -19337.31    1458.1697    -20795.48    309.51652   0.40998499 
   58000    236.52413   -358.53749    151037.82   -19326.235    1458.7143   -20784.949    310.75346   0.40998499 
   58100     242.4617    46.949182    151037.82   -19267.278    1495.3331   -20762.611     310.8963   0.40998499 
   58200    240.46288    116.77832    151037.82   -19299.426    1483.0058   -20782.432     310.6497   0.40998499 
   58300    241.73088    36.636528    151037.82   -19301.551    1490.8259   -20792.377    311.81059   0.40998499 
   58400     236.9541   -241.63859    151037.82   -19300.721    1461.3661   -20762.087    312.68491   0.40998499 
   58500    233.94702    110.75449    151037.82   -19304.222    1442.8205   -20747.042    312.50699   0.40998499 
   58600    244.63874     140.6232    151037.82   -19276.665    1508.7595   -20785.424    312.66847   0.40998499 
   58700    237.89343   -150.53846    151037.82   -19242.158    1467.1592   -20709.317    313.00581   0.40998499 
   58800    237.36358    -32.32062    151037.82    -19225.01    1463.8914   -20688.902    313.41452   0.40998499 
   58900    241.61904   -18.663009    151037.82   -19239.637    1490.1361   -20729.773    313.55598   0.40998499 
   59000    251.95349     27.29284    151037.82   -19184.152    1553.8717   -20738.024    313.04717   0.40998499 
   59100    242.38143    245.78007    151037.82   -19223.225     1494.838   -20718.063    313.03986   0.40998499 
   59200    236.45535   -45.611416    151037.82   -19244.884    1458.2901   -20703.174    312.76894   0.40998499 
   59300       237.07   -40.550588    151037.82   -19263.274    1462.0808   -20725.355    312.89532   0.40998499 
   59400    232.71623   -77.291161    151037.82   -19268.779    1435.2299   -20704.009    313.92773   0.40998499 
   59500     233.7665   -194.24546    151037.82   -19263.709    1441.7072   -20705.417    314.45963   0.40998499 
   59600     236.9522    -144.1259    151037.82   -19285.575    1461.3544   -20746.929    315.45521   0.40998499 
   59700    235.92366   -202.21603    151037.82   -19264.051     1455.011   -20719.062    315.20999   0.40998499 
   59800    239.60689    172.22643    151037.82   -19274.378    1477.7266   -20752.105    315.44907   0.40998499 
   59900    247.34526    19.208043    151037.82   -19215.067    1525.4514   -20740.518    315.56086   0.40998499 
   60000    234.31314   -88.085351    151037.82   -19317.656    1445.0785   -20762.735    316.29714   0.40998499 
   60100      238.827   -136.19446    151037.82   -19244.999    1472.9168   -20717.916    317.18406   0.40998499 
   60200     236.2528   -52.643391    151037.82   -19295.764    1457.0409   -20752.805    317.28429   0.40998499 
   60300    236.06191   -111.65311    151037.82   -19266.945    1455.8637   -20722.809    318.11411   0.40998499 
   60400    242.58285    69.836788    151037.82   -19243.646    1496.0802   -20739.726    318.32009   0.40998499 
   60500    236.12664   -111.06818    151037.82   -19243.071    1456.2629   -20699.334    317.94844   0.40998499 
   60600    241.42155   -66.699584    151037.82   -19226.376    1488.9181   -20715.294       318.21   0.40998499 
   60667    240.57243   -141.75683    151037.82   -19253.528    1483.6814   -20737.209    318.38341   0.40998499 
Loop time of 8.3865 on 12 procs for 10000 steps with 2070 atoms

Performance: 515.114 ns/day, 0.047 hours/ns, 1192.393 timesteps/s
98.7% CPU use with 12 MPI tasks x no OpenMP threads

MPI task timing breakdown:
Section |  min time  |  avg time  |  max time  |%varavg| %total
---------------------------------------------------------------
Pair    | 0.00074179 | 2.6899     | 6.9614     | 175.3 | 32.07
Neigh   | 0.0011305  | 0.15498    | 0.39798    |  40.6 |  1.85
Comm    | 0.0097695  | 2.3701     | 6.4124     | 176.7 | 28.26
Output  | 0.030511   | 0.031301   | 0.038886   |   1.3 |  0.37
Modify  | 0.23139    | 2.987      | 8.2131     | 212.5 | 35.62
Other   |            | 0.1532     |            |       |  1.83

Nlocal:        172.500 ave         423 max           0 min
Histogram: 4 2 2 0 0 0 0 0 0 4
Nghost:        471.750 ave        1051 max           0 min
Histogram: 4 0 0 4 0 0 0 0 0 4
Neighs:        0.00000 ave           0 max           0 min
Histogram: 12 0 0 0 0 0 0 0 0 0
FullNghs:      4790.33 ave       12257 max           0 min
Histogram: 4 2 2 0 0 0 0 0 0 4

Total # of neighbors = 57484
Ave neighs/atom = 27.770048
Neighbor list builds = 569
Dangerous builds = 0


write_data		data.${NAME}
write_data		data.Ibeam_MLmW_240K
System init for write_data ...
Total wall time: 0:01:00
