
# Set production fixes - Nose/Hoover
#
fix                 4 water temp/csvr ${START_TEMP} ${END_TEMP} 500.0 928347
fix                 4 water temp/csvr 240 ${END_TEMP} 500.0 928347
fix                 4 water temp/csvr 240 227 500.0 928347


## divide "droplet" into core and surface
#region		core_reg cylinder z 135 135 44.6 20 INF units box
#region		surface_reg cylinder z 135 135 44.6 20 INF units box side out
#group		core dynamic all region core_reg
#group		surface dynamic all region surface_reg

## compute pressure core
#compute        peratom_core core stress/atom NULL
#compute        p_core core reduce sum c_peratom_core[1] c_peratom_core[2] c_peratom_core[3]
#variable       press_core equal -(c_p_core[1]+c_p_core[2]+c_p_core[3])/(3*1249982.5)


## compute pressure surface
#compute        peratom_surf surface stress/atom NULL
#compute        p_surf surface reduce sum c_peratom_surf[1] c_peratom_surf[2] #c_peratom_surf[3]
#variable       press_surf equal -(c_p_surf[1]+c_p_surf[2]+c_p_surf[3])/(3*42395)

## compute total pressure of drop
compute        peratom water stress/atom NULL
compute        p water reduce sum c_peratom[1] c_peratom[2] c_peratom[3]
variable       press equal -(c_p[1]+c_p[2]+c_p[3])/(3*58301)


# compute order parameter
compute        3 all orientorder/atom nnn NULL cutoff 3.5

# compute center of mass of bridge
compute 	4 water com

# Run simulation
thermo_style        custom step c_2 press vol etotal ke pe v_press c_1[4] c_4[*]
thermo              200
dump		     1 water custom 400 ${DIR}/prod.${NAME}.dump id type x y z vx vy vz c_3[*] c_peratom[*]
dump		     1 water custom 400 run_14/prod.${NAME}.dump id type x y z vx vy vz c_3[*] c_peratom[*]
dump		     1 water custom 400 run_14/prod.ibeam_cooling_14.dump id type x y z vx vy vz c_3[*] c_peratom[*]
run                 ${STEPS}
run                 5200000
Neighbor list info ...
  update every 1 steps, delay 0 steps, check yes
  max neighbors/atom: 2000, page size: 100000
  master list distance cutoff = 6.67472
  ghost atom cutoff = 6.67472
  binsize = 3.33736, bins = 57 9 12
  2 neighbor lists, perpetual/occasional/extra = 1 1 0
  (1) pair sw, perpetual
      attributes: full, newton on
      pair build: full/bin/atomonly
      stencil: full/bin/3d
      bin: standard
  (2) compute orientorder/atom, occasional, copy from (1)
      attributes: full, newton on
      pair build: copy
      stencil: none
      bin: none
Per MPI rank memory allocation (min/avg/max) = 0.8507 | 6.035 | 7.259 Mbytes
Step c_2 Press Volume TotEng KinEng PotEng v_press c_1[4] c_4[1] c_4[2] c_4[3] 
       0    239.36588   -472.75346    204420.41    -23230.55    1737.3827   -24967.933   -1119.8463    35.325537    95.096112    14.528633    27.811767 
     200    237.83331   -358.77005    204420.41   -23255.365     1726.259   -24981.624   -752.54303    36.054804    95.095566    14.525022    27.805712 
     400    239.15181   -137.14109    204420.41   -23247.995     1735.829   -24983.824    47.704703    37.384021      95.0973    14.522947    27.797154 
     600    244.18113   -210.43617    204420.41   -23145.855    1772.3332   -24918.188   -211.32751    39.075498    95.097086    14.520166    27.806452 
     800    248.28792   -340.69096    204420.41   -23133.567    1802.1414   -24935.709   -660.04023    40.461574    95.096262    14.519486    27.810255 
    1000     244.7576   -417.15533    204420.41   -23209.865    1776.5173   -24986.382   -942.96104    41.966546    95.094075    14.521646    27.830167 
    1200    239.01917    -398.1531    204420.41    -23147.14    1734.8662   -24882.007    -827.0554    43.461058    95.092698    14.520367     27.84549 
    1400    238.96674   -247.63566    204420.41   -23178.799    1734.4857   -24913.285   -369.92242    44.309626    95.091606     14.51879    27.842315 
    1600    243.95517   -329.59878    204420.41   -23181.199    1770.6931   -24951.892   -649.38081    45.828257    95.089809     14.51904    27.818812 
    1800     239.0905   -434.09803    204420.41   -23157.663     1735.384   -24893.047   -970.09207    47.531143    95.089618    14.519237    27.830872 
    2000    241.75133    -348.8386    204420.41   -23107.521     1754.697   -24862.218   -703.19811    49.148893    95.090781    14.520471    27.808952 
    2200     243.0927   -161.86659    204420.41   -23214.773     1764.433   -24979.206   -29.688034    50.929765    95.092073    14.521174    27.817111 
    2400    242.59532   -298.71777    204420.41   -23155.522    1760.8229   -24916.345    -500.9438    52.058966    95.092492    14.522936    27.806581 
    2600    235.05793   -195.66197    204420.41   -23162.823    1706.1145   -24868.938   -171.81128    54.622708    95.091137    14.520663    27.783574 
    2800    243.24757   -392.24492    204420.41   -23120.255    1765.5572   -24885.813   -864.46664     55.63971    95.093219    14.521306    27.780378 
    3000    246.54682   -199.90818    204420.41   -23143.245     1789.504   -24932.749   -156.66408    57.415213    95.093387     14.52236    27.779891 
    3200    232.32836   -381.71631    204420.41   -23216.999    1686.3026   -24903.302   -805.96308    59.196309     95.09425     14.52776    27.779186 
    3400    240.66943   -192.12688    204420.41   -23180.276    1746.8443   -24927.121   -152.07574    61.491182    95.095695    14.528963    27.779719 
    3600     238.6417   -443.53564    204420.41   -23183.175    1732.1265   -24915.302   -1011.8898    62.705778    95.095914    14.533674    27.761837 
    3800    244.39467     -385.508    204420.41   -23146.923    1773.8831   -24920.806    -839.8055     65.17734    95.095717    14.533853    27.753481 
    4000    239.31346   -440.26208    204420.41    -23211.77    1737.0023   -24948.773   -984.30836    67.532137    95.095098    14.535829    27.773144 
    4200    241.08604   -349.77756    204420.41   -23182.176    1749.8681   -24932.045   -687.53188    69.648353    95.095527     14.53746    27.783211 
    4400    242.83701   -465.16078    204420.41    -23229.38    1762.5772   -24991.957   -1121.8763    71.076706      95.0937    14.538232    27.772732 
    4600     234.1858   -220.31034    204420.41   -23327.252    1699.7844   -25027.036   -268.21769    74.096351    95.093775    14.538517    27.795202 
    4800    240.13722   -215.35401    204420.41   -23205.116    1742.9814   -24948.098   -239.04364    75.883973    95.093886    14.539677    27.805796 
    5000    237.39884   -399.52523    204420.41   -23268.836    1723.1055   -24991.941   -870.29361    77.141669    95.094816    14.537404    27.816827 
    5200    237.51698   -512.39317    204420.41   -23251.624    1723.9629   -24975.587   -1265.8422    77.852618    95.095809    14.536651    27.818304 
    5400    241.49292   -206.37098    204420.41   -23291.454    1752.8214   -25044.275   -179.16589    78.454351    95.094411    14.536857     27.84447 
    5600    240.35691   -276.29631    204420.41   -23262.072     1744.576   -25006.648   -437.02286    78.407535    95.094087    14.538573    27.852685 
    5800    241.82859   -304.97646    204420.41   -23221.653    1755.2578    -24976.91   -518.78412    80.418126    95.094911    14.536214    27.875076 
    6000    241.36483   -446.08415    204420.41   -23263.526    1751.8917   -25015.418   -1038.8877     81.61436    95.093738    14.534609    27.881092 
    6200     237.7728   -481.83707    204420.41   -23325.442    1725.8197   -25051.262   -1177.4417    83.118327     95.09331    14.537519     27.87263 
    6400    229.93265   -210.82873    204420.41   -23279.858    1668.9138   -24948.772   -198.58309    85.437908    95.094025     14.53798    27.871589 
    6600     239.5569   -363.64756    204420.41   -23233.905    1738.7692   -24972.674   -756.19163    87.590791    95.094179    14.537796    27.893965 
    6800    239.12239   -282.22711    204420.41   -23206.739    1735.6154   -24942.354   -478.23193     90.12531    95.095757    14.540856    27.901831 
    7000    243.17629   -311.20411    204420.41   -23194.676    1765.0398   -24959.716   -551.26259    92.661651    95.095434    14.540494    27.902262 
    7200    233.64664   -225.27519    204420.41   -23293.649     1695.871    -24989.52   -276.61875     93.80235    95.094802     14.53918    27.877268 
    7400    235.86843   -401.08686    204420.41    -23235.21    1711.9973   -24947.208   -908.57273    94.407982    95.095297    14.538135    27.858815 
    7600    252.54149   -108.38141    204420.41   -23151.079     1833.015   -24984.094    162.01615     94.78253    95.096728    14.537359    27.854061 
    7800    238.93124   -58.698964    204420.41    -23284.35     1734.228   -25018.578    337.18018    95.711611    95.097311    14.536517    27.834401 
    8000     242.5366   -351.49171    204420.41   -23156.975    1760.3967   -24917.372   -710.51121    97.417692    95.098196    14.537108    27.832019 
    8200    242.43306   -468.29914    204420.41   -23178.662    1759.6452   -24938.307   -1125.7253    98.388258    95.097459    14.540112    27.829047 
    8400    249.63449   -162.73333    204420.41   -23122.797    1811.9151   -24934.712   -71.344661    99.538206    95.096345    14.541265    27.864068 
    8600    243.20172   -362.16847    204420.41   -23166.513    1765.2243   -24931.737   -759.45936    101.09963    95.094526    14.543853    27.878142 
    8800    241.11479   -429.57228    204420.41   -23194.364    1750.0769   -24944.441   -1002.3692    101.89406    95.093346    14.543346    27.895306 
    9000    240.92132   -224.53462    204420.41   -23210.912    1748.6726   -24959.585   -266.38302    103.22999    95.093089    14.540954    27.880597 
    9200    245.76494   -269.30414    204420.41    -23182.17    1783.8289   -24965.999   -426.67869     105.8003    95.093758    14.540668    27.891284 
    9400     242.4506   -301.70928    204420.41   -23247.968    1759.7725    -25007.74    -532.1909    106.93638    95.093587    14.539299    27.895051 
    9600    242.86311   -237.83636    204420.41   -23304.838    1762.7667   -25067.605   -308.51094    107.05246    95.095539     14.53962    27.889435 
    9800    241.33857   -239.17219    204420.41    -23178.27    1751.7011   -24929.971   -301.10415    109.39473    95.095862    14.540727    27.871519 
   10000    236.91043   -392.55336    204420.41   -23227.321    1719.5605   -24946.882   -861.07835    112.21294    95.095978    14.540459    27.866518 
   10200    238.68513   -397.37891    204420.41   -23143.546    1732.4417   -24875.988   -837.63466    114.54469    95.096827    14.540327    27.885023 
   10400    242.91064   -239.28158    204420.41   -23140.235    1763.1116   -24903.347   -270.19373    116.11494    95.097261    14.544535    27.875701 
   10600    245.61914   -330.33013    204420.41   -23229.909    1782.7706    -25012.68   -560.46087    116.72061    95.097352    14.547271    27.860296 
   10800    238.62056   -263.23347    204420.41   -23302.966     1731.973   -25034.939    -386.1062    118.91351    95.097484    14.546086     27.86132 
   11000    237.68159   -331.00429    204420.41    -23345.27    1725.1578   -25070.427    -622.2064    121.55623      95.0983    14.548105    27.865682 
   11200    237.68052   -511.43143    204420.41   -23339.594      1725.15   -25064.744   -1263.0145    122.31986    95.098223    14.549488     27.84448 
   11400    240.38981   -176.92625    204420.41   -23229.783    1744.8147   -24974.597   -124.72695    122.58755    95.098627    14.548711    27.851175 
   11600    244.98204   -179.76041    204420.41    -23145.51    1778.1464   -24923.656   -119.31837    124.11076    95.097806    14.548241    27.851402 
   11800    246.85795   -432.01902    204420.41   -23160.553    1791.7622   -24952.315   -947.07771    123.64853    95.098997    14.545831    27.863311 
   12000    245.16184   -394.47557    204420.41   -23180.317    1779.4514   -24959.768   -852.59075    124.25874    95.099736    14.542981    27.883456 
   12200    233.25452   -219.54954    204420.41   -23182.454    1693.0248   -24875.479   -223.00736    125.34871    95.100356    14.539327    27.910012 
   12400    242.00743   -238.81557    204420.41   -23195.909    1756.5559   -24952.465   -316.47954    127.65974    95.100776    14.537282    27.913674 
   12600    240.84353   -220.51454    204420.41   -23141.296     1748.108   -24889.404    -244.5859    130.61758    95.101646     14.53607    27.931315 
   12800    240.55929   -350.72136    204420.41   -23203.229    1746.0448   -24949.274   -723.58237     133.0395    95.101044     14.53455    27.934546 
   13000     236.6153   -578.06311    204420.41   -23246.072    1717.4183   -24963.491   -1476.4343    134.75179    95.101495    14.533897    27.939382 
   13200    237.24962   -247.06188    204420.41   -23279.772    1722.0224   -25001.794   -348.31698    134.06101    95.102657    14.530444    27.926741 
   13400    233.66435   -247.02715    204420.41    -23322.77    1695.9995    -25018.77   -299.44288    133.93646    95.102534    14.531629    27.933195 
   13600    236.90509   -537.73485    204420.41   -23280.816    1719.5217   -25000.338   -1327.8501    134.07018    95.102786    14.530809    27.947777 
   13800    243.41029   -244.15167    204420.41   -23191.618    1766.7382   -24958.357   -327.31037    134.58979    95.101295    14.530475    27.944924 
   14000    250.14119   -425.77552    204420.41   -23161.253    1815.5929   -24976.845   -969.69482     135.2636    95.101469    14.531983    27.943828 
   14200    238.84917   -360.41792    204420.41   -23253.546    1733.6323   -24987.179   -745.81483    135.17493    95.102918    14.533294    27.944893 
   14400    238.80199   -337.39684    204420.41   -23306.077    1733.2899   -25039.367   -689.64281    137.26905    95.103221    14.535639    27.954445 
   14600    238.50829   -304.01849    204420.41   -23265.657    1731.1582   -24996.815   -551.08975    139.93039    95.101564    14.535731    27.945244 
   14800     239.6637   -337.13482    204420.41   -23231.305    1739.5445    -24970.85    -666.3555    141.45884     95.10241    14.534348    27.940229 
   15000    239.26463   -415.73933    204420.41   -23247.492    1736.6479    -24984.14   -942.41963    143.71541    95.102529    14.537701    27.937888 
   15200    242.10604   -553.34266    204420.41   -23196.084    1757.2716   -24953.356   -1427.7919    145.16623    95.102013     14.53719    27.934908 
   15400    233.89941   -328.04431    204420.41   -23295.611    1697.7056   -24993.317   -652.15638    147.88314    95.102981    14.534545    27.950053 
   15600    241.54034   -342.83515    204420.41   -23154.452    1753.1656   -24907.617   -685.45362    149.45101    95.101915    14.534782    27.933342 
   15800    245.66672   -622.76377    204420.41   -23167.077     1783.116   -24950.193   -1674.9653      151.902    95.102951    14.538283     27.94123 
   16000     240.1661   -256.04889    204420.41   -23210.819     1743.191    -24954.01   -385.52773    153.07231     95.10388    14.540551    27.935817 
   16200    238.81546   -165.68471    204420.41   -23168.271    1733.3877   -24901.659    -88.54579    153.89853    95.104328    14.541745    27.940526 
   16400    235.32163   -297.80444    204420.41   -23204.737    1708.0285   -24912.766   -530.29068    156.20848    95.102943    14.541548    27.952716 
   16600    246.26066   -259.32003    204420.41   -23133.332     1787.427   -24920.759   -400.93433    157.84953    95.102753    14.541502     27.96374 
   16800    240.99732   -388.52786    204420.41   -23189.112    1749.2242   -24938.336   -850.05889    160.10582     95.10181    14.538347    27.954931 
   17000    240.06168   -191.51666    204420.41   -23246.269    1742.4331   -24988.703   -226.03214    160.97465    95.100543    14.539747    27.956541 
   17200    238.51664   -373.58426    204420.41   -23242.245    1731.2187   -24973.464   -775.64343    163.02899     95.10169    14.541747    27.954818 
   17400     234.3855    -349.0317    204420.41   -23331.625    1701.2338   -25032.859   -730.64237    164.98229    95.102604    14.546509    27.982665 
   17600    245.82496   -404.05113    204420.41   -23245.412    1784.2645   -25029.677   -918.32534    166.14979    95.101013     14.54917    27.964278 
   17800    238.59818   -302.16263    204420.41   -23231.138    1731.8106   -24962.948   -514.49527    167.54365    95.100827    14.551532    27.956904 
   18000    239.32915   -405.78142    204420.41   -23162.357    1737.1162   -24899.473   -908.09232    169.83103    95.100616    14.553181    27.963431 
   18200    239.94773    -363.5634    204420.41   -23190.723     1741.606   -24932.329   -741.85837    173.89799    95.099767    14.553752    27.965172 
   18400    244.12236   -312.62152    204420.41   -23192.165    1771.9066   -24964.072   -595.36842    175.95204    95.097851    14.555057    27.972957 
   18600    242.01828   -270.58144    204420.41   -23174.462    1756.6346   -24931.096   -449.68616    176.31907    95.096782    14.552536    27.973789 
   18800    237.85589    -342.8435    204420.41   -23221.289    1726.4229   -24947.712   -653.48548    178.27531    95.095464     14.55116    27.993459 
   19000    237.62872   -381.71049    204420.41   -23146.787     1724.774   -24871.561   -792.13459    180.34322    95.095274     14.55252    27.983618 
   19200     239.4655   -439.62469    204420.41   -23150.263    1738.1059   -24888.369   -996.30479    181.94192    95.095504    14.552941    27.980432 
   19400    247.87202    -458.6683    204420.41   -23116.276    1799.1227   -24915.399   -999.61928    183.60979    95.094813    14.549166    27.968209 
   19600    245.05003   -469.14751    204420.41   -23154.365    1778.6399   -24933.005   -1115.4646    184.16848    95.092479    14.549266    27.960894 
   19800     235.8798   -280.66652    204420.41   -23148.639    1712.0798   -24860.719   -460.84351    183.85916    95.090738    14.549295     27.96578 
   20000    249.60582    -249.2606    204420.41   -23191.088    1811.7071   -25002.795   -364.54901    185.63199    95.089433    14.547085     27.96389 
   20200    236.34538   -335.21245    204420.41   -23272.105    1715.4592   -24987.565   -640.43631    187.41508    95.090036    14.544402    27.979993 
   20400    243.21033   -356.88711    204420.41   -23175.982    1765.2868   -24941.269   -702.98102    188.85612    95.089319    14.544218    27.961206 
   20600    236.57394   -417.29865    204420.41   -23276.896    1717.1181   -24994.014    -942.1156    192.72316    95.088932     14.54347    27.991871 
   20800    243.50769   -265.17222    204420.41   -23187.775    1767.4452    -24955.22   -379.11898     194.2059    95.087754    14.542311    27.989824 
   21000    233.99545   -262.37519    204420.41   -23203.185    1698.4027   -24901.588   -444.36273    195.44542    95.088072    14.541528    28.007358 
   21200    245.31184   -440.32236    204420.41   -23205.828    1780.5401   -24986.368   -1024.3805     198.0116    95.086706    14.538551    28.011589 
   21400    238.74858   -256.22996    204420.41   -23198.423    1732.9023   -24931.325   -378.88302    198.86608    95.085161    14.535678    28.020619 
   21600    243.81403   -430.62471    204420.41    -23124.66    1769.6687   -24894.329    -947.8435    200.77099    95.084305    14.534857    28.041858 
   21800    236.44936   -210.10721    204420.41   -23253.606    1716.2139    -24969.82   -208.77453    202.57397    95.082731    14.534751    28.064749 
   22000    235.96622   -330.79746    204420.41   -23317.753    1712.7071    -25030.46   -632.14531    205.06008    95.081259    14.535441    28.056348 
   22200    234.56065   -392.55334    204420.41   -23378.533    1702.5051   -25081.038   -825.39827    207.75705    95.080231    14.539219    28.065558 
   22400    245.58032   -182.63439    204420.41   -23217.789    1782.4889   -25000.278   -130.20642    210.54778    95.080096    14.538958    28.076254 
   22600    243.42448   -259.18397    204420.41   -23227.904    1766.8412   -24994.746   -370.54458    212.29311    95.078612    14.537955    28.094129 
   22800    239.05418   -234.68456    204420.41   -23200.782    1735.1204   -24935.902   -261.33314    214.85242    95.078566    14.536619     28.09681 
   23000     236.0157   -193.60645    204420.41   -23312.125    1713.0663   -25025.191   -192.95386    215.30648    95.081053    14.538694    28.100274 
   23200    235.41925   -374.15254    204420.41   -23218.756     1708.737   -24927.493   -788.66062    215.43303    95.080926    14.539998    28.109581 
   23400    247.31133   -114.20746    204420.41   -23226.798    1795.0531   -25021.851    115.47528    214.57194    95.079539    14.541885    28.102796 
   23600    246.49978   -450.21405    204420.41   -23129.824    1789.1626   -24918.986   -1031.7803    212.78704    95.079927    14.542089    28.091538 
   23800    241.79108   -304.49483    204420.41    -23164.15    1754.9855   -24919.136   -536.00158    212.90612    95.081272    14.545538    28.092441 
   24000    238.16139   -212.30367    204420.41   -23207.315    1728.6403   -24935.955   -241.66217    214.63363    95.080912    14.546187    28.094977 
   24200    241.94682   -339.28833    204420.41   -23206.323     1756.116   -24962.439   -629.70778    215.99263    95.079929    14.547371    28.093522 
   24400    236.44237   -384.15984    204420.41   -23227.224    1716.1631   -24943.388   -838.49565    216.45096    95.080853    14.546413    28.086221 
   24600    237.36223   -413.79862    204420.41   -23318.174    1722.8398   -25041.013   -932.61467    217.67498     95.07973    14.546477    28.085455 
   24800    239.51417   -244.29614    204420.41   -23306.352    1738.4591   -25044.811   -333.84007    218.66883     95.08041    14.550381    28.088192 
   25000     234.9612   -344.83041    204420.41   -23306.549    1705.4124   -25011.961   -705.12602     222.3994    95.080239    14.552881    28.080941 
   25200    231.09685   -359.52762    204420.41    -23419.36    1677.3639   -25096.724   -715.55212    226.01743    95.081034    14.552431    28.097723 
   25400    235.15105   -389.80366    204420.41   -23312.788    1706.7904   -25019.578   -856.67017    229.01753    95.081974    14.553298    28.121869 
   25600    247.07662   -368.55141    204420.41   -23176.577    1793.3494   -24969.927   -765.35074    232.41063    95.082088    14.551377    28.118562 
   25800    240.19272   -394.77016    204420.41   -23217.702    1743.3842   -24961.086    -830.5805    234.26542    95.082712    14.552865    28.093945 
   26000    239.16009   -215.19078    204420.41   -23247.743    1735.8891   -24983.632   -212.83875    236.93006    95.084015    14.554297    28.069478 
   26200    238.21175   -365.59202    204420.41   -23277.166    1729.0058   -25006.172   -729.09858    237.90247    95.084651    14.554743    28.068171 
   26400    243.84424   -549.25396    204420.41   -23315.985     1769.888   -25085.873   -1370.1236    239.19944    95.085348    14.552605    28.072944 
   26600    238.09328   -464.86509    204420.41    -23220.22    1728.1459   -24948.366    -1079.212    240.50584    95.085798    14.551027    28.096902 
   26800    237.31406   -230.96856    204420.41   -23277.709    1722.4901   -25000.199   -304.79184    242.40009    95.085958    14.547835    28.100511 
   27000    247.63932   -646.51248    204420.41   -23209.932    1797.4336   -25007.366   -1690.5947    242.62072    95.085985    14.547059    28.100155 
   27200    241.43073   -106.15299    204420.41   -23275.355      1752.37   -25027.725     130.3236    242.43578    95.084622    14.547907    28.115744 
   27400    244.96991   -649.53135    204420.41   -23197.402    1778.0583   -24975.461   -1732.3235    244.71547    95.085086    14.552227    28.127463 
   27600    234.10029   -291.71656    204420.41   -23309.044    1699.1637   -25008.208   -513.97324    247.53192    95.083817    14.551532    28.109205 
   27800    244.98879   -465.48491    204420.41   -23192.359    1778.1954   -24970.554   -1088.0459    246.89831    95.082863    14.552549    28.107126 
   28000    234.89559   -306.53637    204420.41   -23301.922    1704.9362   -25006.859    -552.9034    248.81015    95.082908    14.550459    28.102863 
   28200    243.14974   -326.19292    204420.41   -23276.245    1764.8471   -25041.092   -630.42813    251.11462    95.083662    14.548955    28.104361 
   28400    240.02534   -474.51944    204420.41   -23279.716    1742.1693   -25021.886   -1084.1828    251.94038    95.084752    14.546985    28.125788 
   28600    235.83529   -231.43366    204420.41   -23286.119    1711.7568   -24997.876    -292.3045    253.39491    95.087235    14.549174    28.122346 
   28800    245.75197   -273.20542    204420.41   -23254.377    1783.7348   -25038.112   -389.29475    255.12023    95.086724    14.549065    28.125052 
   29000     244.2957   -194.75507    204420.41   -23219.641    1773.1648   -24992.805   -168.19325    255.12836    95.087039    14.550377    28.135599 
   29200    247.64474   -410.42507    204420.41   -23197.806     1797.473   -24995.279   -950.96928    255.76356    95.086599    14.552131    28.115083 
   29400    242.98287   -467.91673    204420.41   -23200.335    1763.6358    -24963.97   -1098.0278    256.16912     95.08645    14.552846    28.112386 
   29600    243.59221   -446.32392    204420.41   -23190.412    1768.0587    -24958.47   -1012.2495    257.62284     95.08682    14.552503    28.099038 
   29800     235.0224   -341.83438    204420.41   -23324.005    1705.8566   -25029.862   -706.73126    260.22662    95.087395    14.550836    28.100986 
   30000    234.15304   -351.97405    204420.41   -23375.019    1699.5465   -25074.565   -708.84653    265.08113    95.086843    14.552088    28.105582 
   30200    241.39451   -452.19946    204420.41   -23322.373    1752.1071    -25074.48   -1019.0935    266.34838    95.087394    14.556876    28.134052 
   30400    238.90939   -316.28249    204420.41   -23348.891    1734.0695    -25082.96   -569.04558    267.59164    95.087838    14.558442    28.137416 
   30600    234.79806   -322.33445    204420.41   -23355.228    1704.2283   -25059.456   -580.89763    268.68156    95.086455    14.556755    28.149851 
   30800    242.49393   -393.95738    204420.41   -23273.191     1760.087   -25033.278   -794.32552    269.83312    95.086954    14.557976    28.151653 
   31000     242.5731   -630.85201    204420.41   -23221.402    1760.6616   -24982.064   -1637.6244    270.09508    95.087529    14.557651    28.148323 
   31200     244.0023   -178.13769    204420.41   -23194.832    1771.0351   -24965.868   -62.035891    271.29251    95.088186    14.559763    28.150384 
   31400     241.9799   -137.71736    204420.41    -23182.06     1756.356   -24938.416    72.077108    272.47722    95.088978    14.560451    28.159219 
   31600     237.0726   -454.40275    204420.41   -23235.549    1720.7375   -24956.286   -1032.5217    275.02709    95.088259    14.559809    28.158171 
   31800    239.09509   -376.23837    204420.41    -23164.84    1735.4173   -24900.257   -769.59048    278.04382    95.086192    14.560149    28.157229 
   32000    242.67781   -320.35209    204420.41   -23223.518    1761.4217    -24984.94   -605.45248    280.83158     95.08345    14.559299    28.148708 
   32200    242.03309   -426.25042    204420.41   -23243.151    1756.7421   -24999.894   -937.23942    283.51887    95.084302    14.558358    28.164677 
   32400     239.5797   -394.88838    204420.41   -23277.953    1738.9348   -25016.887   -853.72204    286.64165    95.085602    14.559033     28.17922 
   32600    243.20067    -305.4013    204420.41   -23195.835    1765.2167   -24961.052   -536.25553    289.12431    95.084575     14.55918    28.179172 
   32800    245.44507   -315.42476    204420.41   -23161.703    1781.5072    -24943.21   -512.59947    291.52537     95.08385    14.561957    28.165498 
   33000    243.72203   -277.24571    204420.41   -23180.991    1769.0009   -24949.992   -463.08532    292.77199    95.083979     14.56074    28.160146 
   33200    239.93219   -332.83726    204420.41   -23216.761    1741.4932   -24958.254   -646.49227    293.97102    95.083181    14.561417    28.158274 
   33400    242.02206   -407.72389    204420.41   -23280.745     1756.662   -25037.407   -883.51355    293.07435    95.083859    14.562007    28.151451 
   33600    239.19124   -347.28842    204420.41   -23297.737    1736.1152   -25033.852   -657.72579    292.76283    95.084073    14.561928    28.140175 
   33800    246.10713   -333.78458    204420.41   -23115.552    1786.3126   -24901.865   -622.16018    294.23594    95.085669    14.560398    28.115665 
   34000    244.77358   -356.64611    204420.41   -23279.507    1776.6333    -25056.14   -731.19855    295.20695     95.08599     14.55988     28.09736 
   34200    241.81746   -513.24214    204420.41   -23255.122     1755.177   -25010.299   -1266.6789    295.63662    95.087029    14.558281    28.097368 
   34400    237.06965   -293.10865    204420.41   -23296.269    1720.7161   -25016.985   -465.31566    297.26395    95.088436    14.554822    28.074365 
   34600    244.07662   -468.86759    204420.41   -23152.092    1771.5746   -24923.667   -1062.4472    299.75698    95.088969    14.555217    28.061722 
   34800     238.0587   -467.70155    204420.41   -23219.277    1727.8949   -24947.172   -1147.7051    303.50699    95.089462    14.557421    28.046005 
   35000    233.76427   -411.42743    204420.41   -23253.148    1696.7248   -24949.873   -889.36725    306.34902    95.089579    14.555781    28.024753 
   35200    243.34393   -258.08737    204420.41   -23167.889    1766.2565   -24934.145   -365.38772    306.32087    95.090478    14.555524    28.018485 
   35400    243.21154   -155.63696    204420.41    -23173.63    1765.2956   -24938.926   -20.573283    307.20539      95.0893    14.560006     28.02026 
   35600    241.67842   -459.68475    204420.41   -23188.884    1754.1678   -24943.052   -1079.1293    310.35035     95.08982    14.561423     28.01767 
   35800    239.76027   -178.50764    204420.41   -23061.751    1740.2454   -24801.996   -77.673896    311.05102    95.090916    14.563562    28.007011 
   36000    235.42708   -396.65597    204420.41   -23211.966    1708.7939    -24920.76   -841.76975    314.46089    95.092341    14.564268    28.008585 
   36200    243.13318   -281.80182    204420.41   -23241.548    1764.7269   -25006.275   -450.63144    315.55039    95.091903    14.566236    28.000579 
   36400    240.77011    -209.6034    204420.41   -23214.591    1747.5751   -24962.166   -220.30626    315.35719     95.09273    14.567025    27.991388 
   36600    246.47963   -386.50116    204420.41   -23210.807    1789.0163   -24999.823   -831.16961    314.89698    95.092582    14.563893    27.982522 
   36800    229.53869   -121.23227    204420.41   -23263.388    1666.0544   -24929.443    104.09357     314.2057    95.091301    14.562329    27.971162 
   37000    235.79781   -506.72246    204420.41   -23249.267    1711.4847   -24960.752   -1238.0552    315.51973    95.090868    14.560925    27.971552 
   37200    232.58446   -426.91968    204420.41   -23303.452    1688.1614   -24991.614   -981.05913    315.91366    95.091153    14.557298    27.946972 
   37400    235.77263   -318.53179    204420.41    -23341.99     1711.302   -25053.292   -571.39587     316.4698    95.091693    14.559094    27.941824 
   37600    234.07725   -202.74537    204420.41   -23341.119    1698.9964   -25040.116   -190.55062    317.26051     95.09048    14.561173    27.933113 
   37800    228.85932   -393.71315    204420.41    -23365.68    1661.1233   -25026.803    -848.1778    319.18529    95.089504    14.561354    27.935361 
   38000    239.40978   -327.54308    204420.41   -23215.206    1737.7014   -24952.908   -646.63265    319.20513    95.089822    14.562347    27.926749 
   38200    239.51692   -481.11832    204420.41   -23226.764    1738.4791   -24965.243   -1110.2753    319.45539    95.088147    14.560454    27.937209 
   38400    241.51197    -304.9668    204420.41   -23152.498    1752.9597   -24905.458   -551.84199    319.99811    95.087546    14.557428    27.930285 
   38600    239.33874   -544.07772    204420.41   -23261.133    1737.1858   -24998.319   -1384.8843    321.86233    95.088291    14.553644    27.936426 
   38800     237.9455   -454.63704    204420.41   -23230.993    1727.0732   -24958.066   -1039.3616    323.13037    95.089534    14.553515    27.939678 
   39000    243.96817   -337.74767    204420.41   -23209.713    1770.7875     -24980.5   -680.22699    325.08043    95.089409     14.55203    27.916597 
   39200    238.25461   -461.86616    204420.41   -23317.242    1729.3169   -25046.558   -1136.1595    327.74968    95.089502    14.551818    27.914519 
   39400    238.28783   -264.52943    204420.41   -23279.913     1729.558   -25009.471   -372.54495    328.52526    95.089794    14.554307    27.924609 
   39600    245.98645   -176.99467    204420.41   -23222.745    1785.4367   -25008.181   -92.227334    330.34838    95.090714    14.553474    27.946971 
   39800    240.73312   -303.95327    204420.41   -23248.312    1747.3066   -24995.618   -544.22851    331.43378    95.091827    14.552198    27.931132 
   40000    240.12369   -382.16989    204420.41   -23208.459    1742.8832   -24951.342   -831.78669    332.59695    95.091155    14.553986    27.912365 
   40200    244.19934   -191.43512    204420.41   -23220.071    1772.4653   -24992.536   -140.98504    333.95417    95.091675    14.553313     27.89253 
   40400    231.25955   -375.39198    204420.41   -23281.626    1678.5448   -24960.171   -764.55944    334.26976    95.091928    14.552039    27.892269 
   40600    244.98801   -274.44732    204420.41   -23227.896    1778.1897   -25006.086   -426.50802    333.47993    95.091457    14.551615    27.919016 
   40800     235.5332   -247.86593    204420.41   -23298.757    1709.5642   -25008.321   -336.52526    336.88571    95.092157    14.552273     27.91665 
   41000    232.00159   -275.99672    204420.41   -23255.946    1683.9307   -24939.877   -449.66771    339.92246    95.091814    14.552153    27.906681 
   41200    241.13446   -300.93454    204420.41   -23168.793    1750.2196   -24919.013   -530.86888    341.22459    95.090149    14.551808    27.887547 
   41400    239.70664   -531.33047    204420.41   -23205.534    1739.8561   -24945.391    -1332.303    344.35912    95.090337     14.55128    27.883113 
   41600    241.13724   -192.23946    204420.41   -23185.933    1750.2398   -24936.173   -155.50347    345.32579    95.089739    14.548214    27.869741 
   41800    241.93586   -469.68626    204420.41   -23197.176    1756.0364   -24953.212   -1105.3798      348.394    95.089044    14.546571    27.865162 
   42000    244.43412   -372.79533    204420.41   -23221.713    1774.1694   -24995.883   -780.53383    349.99188    95.088584    14.544306    27.865558 
   42200    234.35053   -244.96408    204420.41   -23253.891      1700.98   -24954.871   -323.87538    351.72674    95.089798     14.54663    27.866457 
   42400    238.88111   -341.27725    204420.41   -23207.454    1733.8642   -24941.318   -662.87632    353.86733    95.088601    14.548465    27.885275 
   42600     241.1116   -437.16767    204420.41   -23190.659    1750.0537   -24940.712   -996.96519    355.97501    95.087952    14.551407    27.891116 
   42800    242.48556   -247.13065    204420.41   -23174.654    1760.0263   -24934.681   -350.73527    358.96927    95.087074     14.54908     27.88535 
   43000     245.6233   -245.66463    204420.41   -23193.304    1782.8008   -24976.105   -392.12109    362.88812    95.086763    14.547743    27.880871 
   43200    242.01319    -260.0863    204420.41   -23213.568    1756.5977   -24970.166   -409.97321    363.94694    95.087025    14.547417    27.872325 
   43400    240.18441   -468.52292    204420.41   -23215.538    1743.3239   -24958.862   -1140.0587    364.90426    95.085874    14.548666    27.865046 
   43600    236.26958   -297.94809    204420.41   -23249.359     1714.909   -24964.268   -510.48055    363.58698     95.08534    14.549164    27.875707 
   43800    241.45815   -96.602203    204420.41   -23283.572     1752.569   -25036.141    172.05707    363.37637    95.084237     14.55197    27.877785 
   44000    236.73406   -651.09867    204420.41   -23341.977    1718.2803   -25060.258    -1743.844    364.95974    95.083137    14.552713    27.877248 
   44200    235.09328   -354.61349    204420.41     -23269.7    1706.3711   -24976.071   -700.66776    364.81254    95.082417    14.553168    27.878103 
   44400    241.65682   -391.94557    204420.41   -23286.178     1754.011   -25040.189   -849.01244    365.00876    95.083442    14.554183    27.878032 
   44600    240.32983   -271.62847    204420.41   -23313.952    1744.3794   -25058.332   -427.13764    366.06446    95.081877    14.552338    27.894189 
   44800    236.82471   -362.54989    204420.41   -23322.442    1718.9382    -25041.38   -746.31659    365.56915    95.079137    14.554992    27.875397 
   45000    239.51935   -314.62454    204420.41   -23275.372    1738.4967   -25013.868   -569.66652    366.52301    95.080992    14.555755     27.87924 
   45200     235.4126   -310.11012    204420.41    -23278.99    1708.6888   -24987.679   -491.88907    369.27283    95.082568    14.554869    27.876772 
   45400    238.75398   -230.53199    204420.41   -23322.429    1732.9414   -25055.371   -284.08085    368.47038    95.083917      14.5558    27.893539 
   45600    239.02957   -271.49038    204420.41   -23230.141    1734.9417   -24965.083   -450.10593    369.87902    95.083971    14.555044    27.885136 
   45800     251.0828    -283.6178    204420.41   -23216.743    1822.4274    -25039.17   -445.02344    370.22918    95.085213    14.552303    27.891115 
   46000    244.21202    -275.8896    204420.41   -23185.744    1772.5574   -24958.302   -420.61533     371.4356    95.088483    14.548224    27.895379 
   46200    240.41765   -372.21071    204420.41    -23158.62    1745.0168   -24903.637    -750.9218    372.02449    95.087016    14.548476    27.884718 
   46400    234.73553   -323.25355    204420.41   -23213.345    1703.7745    -24917.12    -616.9739    373.15896    95.086431    14.549413    27.875437 
   46600    244.40394   -391.67475    204420.41    -23235.19    1773.9504    -25009.14   -819.92341    372.02073    95.087012    14.550341    27.860852 
   46800    238.17202   -355.38063    204420.41   -23213.664    1728.7174   -24942.382   -726.14937    375.17529    95.085175    14.550126    27.855831 
   47000    239.80204   -238.46887    204420.41   -23212.281    1740.5485    -24952.83   -335.27254    375.23395    95.084595    14.549611    27.878665 
   47200    232.49922   -303.44453    204420.41   -23296.459    1687.5427   -24984.002   -551.92394     375.7889    95.084629    14.551295    27.875302 
   47400    245.78713   -329.17957    204420.41    -23241.55    1783.9899    -25025.54   -627.06078      375.046     95.08726    14.550105     27.86356 
   47600    238.69668   -206.78816    204420.41   -23269.723    1732.5256   -25002.249   -199.64556    371.60152    95.087579    14.548207    27.846681 
   47800    236.93439   -398.00464    204420.41   -23300.709    1719.7343   -25020.443   -874.07347    375.25794    95.088374    14.548187    27.836579 
   48000    231.22046   -392.04864    204420.41   -23304.672    1678.2611   -24982.933   -874.26996    375.02325    95.091416    14.545571    27.840601 
   48200     232.7719   -409.71723    204420.41   -23269.887    1689.5219   -24959.409   -915.73435    373.89513      95.0903    14.545976    27.816923 
   48400    241.15799   -338.14822    204420.41   -23268.173    1750.3904   -25018.563   -634.50187    373.91197    95.088367    14.544683    27.820725 
   48600    235.09015   -411.74976    204420.41   -23322.927    1706.3484   -25029.275   -887.19118    373.53598    95.086382    14.544133    27.818885 
   48800    234.16629   -340.11311    204420.41   -23278.743    1699.6428   -24978.385   -694.05573     373.3854     95.08659    14.541999    27.816313 
   49000    237.12219    -325.5259    204420.41   -23271.929    1721.0975   -24993.027   -606.29816    372.18157    95.086139    14.544588    27.815807 
   49200    238.40135   -433.34426    204420.41   -23209.416    1730.3819   -24939.798   -1013.8826    371.87314    95.087495    14.545498    27.815545 
   49400    230.42737   -482.78024    204420.41   -23289.173    1672.5046   -24961.677   -1177.2174    371.28097    95.089653    14.546242    27.833478 
   49600    239.17531   -405.18696    204420.41   -23247.425    1735.9996   -24983.425   -890.67664    372.17731    95.088926    14.543507    27.846657 
   49800    242.03165   -364.55946    204420.41   -23223.756    1756.7316   -24980.487   -800.32601    373.14426    95.087668    14.543538    27.848858 
   50000     235.7684   -346.06374    204420.41   -23208.635    1711.2713   -24919.906    -676.0692    375.43503     95.09109      14.5471    27.843396 
   50200    244.88994   -391.59242    204420.41   -23142.332    1777.4779    -24919.81   -876.89439    377.32949    95.093643    14.546228    27.849084 
   50400    245.89442   -434.28853    204420.41   -23213.323    1784.7687   -24998.092   -945.39864    379.03507     95.09427    14.544904     27.83608 
   50600    243.71316   -510.79995    204420.41   -23125.313    1768.9366   -24894.249   -1254.4544    381.31471    95.093929    14.545306    27.831109 
   50800    237.15408   -274.61458    204420.41    -23340.79    1721.3289   -25062.119   -431.68379    384.55248    95.094217    14.545746    27.812951 
   51000    234.93759   -359.77909    204420.41   -23272.595     1705.241   -24977.836   -686.98258    386.40924    95.095001    14.544802    27.807751 
   51200    237.76766    -161.5109    204420.41   -23259.232    1725.7824   -24985.014   -32.125543    386.46569    95.095223    14.545041    27.810639 
   51400    236.88778   -241.51264    204420.41   -23236.286     1719.396   -24955.683   -276.99488    386.30609    95.096351    14.542849    27.803495 
   51600    234.19541   -182.49261    204420.41   -23254.988    1699.8541   -24954.842   -105.35889    388.38565    95.096698    14.540673    27.798477 
   51800     239.0317   -306.44551    204420.41   -23200.017    1734.9572   -24934.975   -565.95357    388.06296    95.095029    14.543166    27.794296 
   52000    234.30626   -189.30363    204420.41    -23252.82    1700.6586   -24953.479   -188.08074    387.13287      95.0945    14.544791    27.793792 
   52200     236.7738   -247.00535    204420.41   -23276.596    1718.5687   -24995.164   -324.15968    386.96529    95.095898    14.547012    27.828537 
   52400    234.04547   -176.27605    204420.41   -23379.778    1698.7658   -25078.544   -75.056045     387.6673    95.097528    14.548098    27.828884 
   52600    243.54973   -287.48818    204420.41   -23259.614    1767.7503   -25027.364   -457.99008    388.79644    95.098244    14.548786    27.841858 
   52800    242.56468   -370.02809    204420.41    -23193.05    1760.6005   -24953.651   -771.11122    390.94712    95.098247    14.549687    27.835393 
   53000    243.41037   -224.14065    204420.41   -23143.328    1766.7388   -24910.067   -289.79049     391.6359    95.098462    14.554025    27.836222 
   53200    238.03492   -258.04246    204420.41   -23249.781    1727.7223   -24977.503   -378.56262    391.52256    95.098327    14.555048    27.846726 
   53400    240.04088   -199.69135    204420.41   -23220.547    1742.2821   -24962.829   -179.55305    390.83995    95.099224    14.551841    27.860818 
   53600    236.96623   -416.65236    204420.41   -23283.956    1719.9655   -25003.922   -964.33781    390.50103    95.099617     14.55136    27.864343 
   53800     239.5615   -346.78711    204420.41   -23226.128    1738.8027   -24964.931   -695.57299     389.1192    95.100039    14.552335    27.879939 
   54000    245.87948   -445.60033    204420.41   -23181.393    1784.6603   -24966.053   -1044.1583    390.49787    95.100243    14.552069    27.901192 
   54200    247.67137   -332.25027    204420.41   -23138.501    1797.6663   -24936.167   -612.83837    391.59968    95.100328    14.553585    27.887075 
   54400    244.85667   -259.99035    204420.41   -23115.723    1777.2364    -24892.96   -415.60661    393.23869    95.099947    14.555239    27.924738 
   54600    247.14052   -414.40801    204420.41   -23155.717    1793.8133    -24949.53   -940.09338    392.66318     95.09801    14.555867    27.958464 
   54800     235.9927    -195.0519    204420.41   -23154.289    1712.8993   -24867.188   -195.17837    392.00585    95.097354    14.555834    27.939037 
   55000    243.38414    -356.0385    204420.41   -23109.277    1766.5484   -24875.825   -720.26877    394.30982    95.100263    14.556364    27.926247 
   55200    232.09689   -308.12536    204420.41   -23248.282    1684.6225   -24932.904   -574.80255    396.74117    95.099691     14.55988    27.962404 
   55400    237.72736     -508.457    204420.41   -23244.436      1725.49   -24969.926   -1283.3445    399.07163    95.098847    14.561739    27.976686 
   55600    239.22664    -338.3131    204420.41   -23231.867    1736.3721   -24968.239   -623.99446    398.03734    95.098094    14.563997    27.969515 
   55800     244.9334   -205.06951    204420.41   -23121.303    1777.7933   -24899.096   -190.55545    398.54763    95.098254    14.564258    27.974983 
   56000    242.06421   -264.75384    204420.41   -23160.702     1756.968    -24917.67   -415.53182    401.46922    95.096933     14.56599    27.973176 
   56200    242.34834   -408.07276    204420.41    -23162.85    1759.0303    -24921.88   -879.19203    403.30109    95.097481    14.565079    27.968786 
   56400    233.22411   -387.12026    204420.41   -23277.935    1692.8041   -24970.739   -842.87022    403.69803    95.101147    14.562469    27.954251 
   56600    234.44135   -331.92226    204420.41   -23362.299    1701.6392   -25063.938   -612.79738    403.29636    95.100642    14.561544    27.948137 
   56800    242.75996    -330.6572    204420.41   -23237.623    1762.0179   -24999.641   -618.00239    403.40038    95.101532    14.563876    27.933228 
   57000    237.10866   -377.42444    204420.41   -23306.219    1720.9993   -25027.218    -821.6937    402.72783    95.100529     14.56319    27.938785 
   57200    241.29694   -213.65869    204420.41   -23212.041     1751.399    -24963.44   -218.30431    401.94275    95.102213    14.563878    27.926991 
   57400    242.97996   -278.83646    204420.41   -23239.469    1763.6148   -25003.083   -443.07404    402.78556    95.102185    14.562455    27.934852 
   57600    238.57771   -270.24535    204420.41   -23300.984     1731.662   -25032.646   -449.90825    402.91513    95.103075     14.56366    27.936076 
   57800    244.83554   -323.49372    204420.41   -23226.122    1777.0831   -25003.205   -610.58066    402.39278    95.101985     14.56049    27.942999 
   58000    237.16037   -502.59072    204420.41   -23242.398    1721.3746   -24963.773   -1235.5441    404.54013    95.102337    14.561235    27.938054 
   58200    245.55274   -236.54488    204420.41   -23207.185    1782.2887   -24989.474   -337.67477    405.36068    95.100354    14.561598    27.959787 
   58400    237.49146   -280.01764    204420.41   -23223.561    1723.7777   -24947.339   -467.99587    407.30499     95.09818    14.562509    27.963408 
   58600    234.70318   -456.07359    204420.41   -23232.981    1703.5396   -24936.521   -1097.3777    408.03406      95.0974    14.564973    27.954937 
   58800    242.84998   -425.73666    204420.41   -23207.681    1762.6713   -24970.352   -968.31635    407.43315    95.096954    14.566776    27.943357 
   59000    244.36803    -364.4974    204420.41   -23148.247    1773.6897   -24921.936   -764.31056     408.7628    95.097461    14.569758    27.948029 
   59200    238.04274   -431.53576    204420.41   -23214.774    1727.7791   -24942.553   -990.40713    410.39528    95.096383    14.569232     27.95108 
   59400    236.18907   -435.35094    204420.41   -23227.285    1714.3246   -24941.609   -996.79263    411.06673    95.097792    14.568682    27.966017 
   59600    237.69127   -469.40779    204420.41   -23333.931     1725.228   -25059.159   -1118.0611    411.47275    95.097373    14.569728     27.97493 
   59800    236.76123   -216.00915    204420.41   -23248.575    1718.4775   -24967.052   -215.15945    413.00511     95.09821    14.572007    27.989819 
   60000    241.53089   -127.68375    204420.41   -23225.705     1753.097   -24978.802    62.038713    413.22156    95.097361    14.571531    28.013326 
   60200    236.02563   -253.82088    204420.41   -23261.745    1713.1383   -24974.884   -338.97215    414.37157    95.096729    14.571625    28.012842 
   60400    238.75712     -254.715    204420.41   -23186.822    1732.9642   -24919.787   -354.57741     414.9656    95.097126    14.569074    28.005193 
   60600    238.26557   -245.99611    204420.41   -23177.217    1729.3965   -24906.613    -359.0022    417.69321    95.096607    14.568217     27.98879 
   60800    243.09636   -275.40669    204420.41   -23081.711    1764.4596   -24846.171   -465.19557    420.56313     95.09692    14.568329    27.989748 
   61000    247.14201   -246.11353    204420.41   -23189.571    1793.8241   -24983.395   -320.51637    424.69724    95.094443    14.566525    27.978577 
   61200    239.89472   -490.57361    204420.41    -23183.76    1741.2212   -24924.981   -1175.9358    425.65687    95.094396    14.566439    27.962726 
   61400    242.85923    -478.9256    204420.41   -23180.826    1762.7385   -24943.565   -1126.9626     429.8861     95.09491    14.566004    27.935918 
   61600    241.59187   -220.14235    204420.41   -23226.948    1753.5396   -24980.488   -254.04101    431.36292    95.095741     14.56493    27.918792 
   61800    240.40614   -333.00935    204420.41   -23322.462    1744.9333   -25067.396   -591.74423    431.69816    95.095889     14.56509     27.92986 
   62000    238.30349   -536.19003    204420.41   -23246.415    1729.6717   -24976.087   -1364.6807    431.98082    95.096763    14.566807    27.914442 
   62200     240.3969   -238.80434    204420.41   -23238.197    1744.8662   -24983.063    -309.0334    432.37086    95.096106    14.567816    27.909794 
   62400    239.41824   -178.23556    204420.41   -23254.327    1737.7628    -24992.09   -110.95213    433.34932    95.096427    14.567408    27.919549 
   62600    236.41578   -291.22585    204420.41   -23218.656    1715.9702   -24934.626   -477.94126    437.31844    95.094476    14.566241    27.936326 
   62800    235.03028   -336.66414    204420.41   -23314.895    1705.9138   -25020.809   -637.71359    440.30345    95.092279    14.567236    27.931457 
   63000    242.61315   -483.66033    204420.41   -23252.037    1760.9523   -25012.989   -1167.6973    440.72228    95.092088    14.568773    27.919133 
   63200    239.23397   -337.56228    204420.41   -23273.336    1736.4253   -25009.762   -642.96633    439.06761    95.093033    14.567111    27.937109 
   63400    234.12604   -312.18658    204420.41   -23331.135    1699.3506   -25030.485    -582.2904    437.99354    95.092599    14.566676    27.936378 
   63600    235.02753   -215.78031    204420.41   -23348.692    1705.8938   -25054.586    -216.8829    435.70009    95.092422    14.567927    27.939504 
   63800    231.43291   -462.14665    204420.41   -23398.959    1679.8031   -25078.763   -1103.5804    437.95444     95.09246    14.569643     27.95981 
   64000    245.06247   -422.11966    204420.41   -23242.439    1778.7302   -25021.169   -951.50047    439.51377     95.09243    14.572118    27.957876 
   64200    236.81395   -357.97295    204420.41   -23252.579    1718.8602    -24971.44   -727.65681    441.33353    95.092173    14.571656     27.95889 
   64400    238.08799   -406.64514    204420.41   -23264.466    1728.1075   -24992.573   -891.96865    443.28169    95.091981    14.572459    27.953911 
   64600    240.46126   -351.82258    204420.41   -23276.154    1745.3333   -25021.487   -720.20387    443.63585    95.091899    14.572594    27.945369 
   64800    241.95648   -332.52697    204420.41   -23306.356    1756.1861   -25062.542    -660.4175    444.72191    95.091385    14.570646     27.94144 
   65000    234.94309   -552.22199    204420.41   -23170.904     1705.281   -24876.185   -1414.8657    447.45776    95.090725    14.568391    27.932143 
   65200    241.36916   -405.23277    204420.41   -23227.825    1751.9231   -24979.748   -942.41704    450.22021    95.090058    14.565843    27.938368 
   65400    235.61828   -255.79274    204420.41   -23264.212    1710.1817   -24974.393   -364.32693    451.09302    95.089418    14.566105    27.934639 
   65600    242.35837   -341.52308    204420.41   -23196.217    1759.1031    -24955.32   -674.84773    452.63843    95.087794    14.565589    27.929127 
   65800    240.07498   -150.91879    204420.41   -23224.775    1742.5296   -24967.305   -10.963428    451.01024    95.087979    14.566402    27.936469 
   66000    236.91527   -281.04665    204420.41    -23234.09    1719.5956   -24953.686   -451.63813    452.21838    95.087677    14.564898    27.928722 
   66200    235.82603   -333.83335    204420.41   -23289.985    1711.6896   -25001.674   -620.66707    452.60489    95.087256    14.563446    27.918258 
   66400    247.42152   -266.57713    204420.41   -23305.716    1795.8528   -25101.568    -387.8105    452.25839    95.088376    14.564213    27.941456 
   66600    235.46726   -304.42897    204420.41   -23341.345    1709.0855   -25050.431   -543.10581     451.9105     95.08723    14.563109    27.928272 
   66800    234.67176   -341.54436    204420.41   -23329.427    1703.3116   -25032.738   -642.74147    452.32066    95.087592    14.562243    27.915336 
   67000    232.18829   -424.98786    204420.41     -23383.2    1685.2859   -25068.486   -960.54642    454.10815    95.086868    14.561905    27.910312 
   67200    237.18083   -200.27785    204420.41   -23299.099    1721.5231   -25020.622     -176.789    458.23022    95.084161    14.560446    27.918459 
   67400    240.68213    -242.3055    204420.41    -23286.98    1746.9365   -25033.917   -348.52398      460.775    95.083503    14.562182    27.926799 
   67600    240.03386   -365.33172    204420.41   -23247.839    1742.2311    -24990.07   -760.57093    464.41828    95.083037    14.562756     27.90157 
   67800     240.3757   -390.60503    204420.41   -23236.698    1744.7123   -24981.411   -886.79475    464.39598    95.085016    14.563578    27.891979 
   68000    239.31068   -337.58511    204420.41   -23305.287    1736.9821   -25042.269   -663.21793    464.96586    95.085364    14.561951     27.86924 
   68200    240.25245   -363.22099    204420.41   -23253.785    1743.8177   -24997.602   -752.95316    465.59358    95.085049    14.558733    27.849883 
   68400      239.554   -319.66339    204420.41   -23204.599    1738.7482   -24943.348   -610.86517    467.52983     95.08524    14.557983    27.827562 
   68600     233.5546   -410.65868    204420.41   -23265.075    1695.2029   -24960.278   -930.85624    469.11214    95.084329    14.557212     27.81103 
   68800    239.51203   -447.67759    204420.41   -23199.739    1738.4436   -24938.182   -1076.3626    472.65426    95.086991    14.557282    27.780094 
   69000    241.13309   -311.94513    204420.41   -23200.309    1750.2097   -24950.519   -584.81124      473.151    95.087011    14.556968    27.785917 
   69200     231.2873   -327.54343    204420.41   -23280.416    1678.7462   -24959.163   -596.70006    474.52755    95.086508    14.556104    27.793781 
   69400     233.3661   -460.31619    204420.41   -23311.525    1693.8347   -25005.359   -1105.3216    477.46535    95.086291    14.554335    27.811521 
   69600    245.04082    -192.8559    204420.41   -23178.389    1778.5731   -24956.962   -172.08156    477.69369    95.084978    14.554835    27.791479 
   69800    237.85727   -369.69566    204420.41   -23224.187    1726.4329    -24950.62   -813.31634    479.20168    95.085873    14.554292    27.791338 
   70000    234.38084   -379.06666    204420.41    -23263.09       1701.2    -24964.29   -808.29378    480.40982    95.086945    14.553081    27.775289 
   70200    247.47548   -435.96141    204420.41    -23188.17    1796.2445   -24984.415   -1026.9453    481.19755    95.086757    14.551261    27.788814 
   70400    245.36431   -299.34379    204420.41    -23180.59     1780.921   -24961.511   -526.31532    482.92508     95.08614    14.552808    27.795084 
   70600    237.30828   -403.40494    204420.41   -23207.355    1722.4482   -24929.803   -896.64899    485.29224    95.086567    14.555916    27.801126 
   70800    238.52995   -302.46641    204420.41   -23222.276    1731.3154   -24953.591   -540.68202    488.46353    95.085174    14.557343    27.783043 
   71000    239.20692   -419.98237    204420.41   -23251.218     1736.229   -24987.447   -953.33329    489.61509    95.084907    14.559131    27.768545 
   71200    239.18565   -394.91549    204420.41   -23223.414    1736.0746   -24959.488   -863.69346    489.78237    95.085885     14.55684     27.76499 
   71400    237.10416   -184.69208    204420.41   -23218.097    1720.9666   -24939.064   -151.89333    488.57667    95.085174    14.552994    27.765009 
   71600     246.4515   -513.98587    204420.41   -23145.315    1788.8121   -24934.127   -1269.0574     488.6577    95.084293     14.55185    27.764691 
   71800    232.80457   -230.49042    204420.41   -23254.789     1689.759   -24944.548   -295.93612    487.60668     95.08433    14.553056    27.732701 
   72000    236.36061   -400.79476    204420.41   -23269.265    1715.5697   -24984.835   -892.06397    486.15648    95.081969    14.553673    27.714781 
   72200    242.49614   -210.41307    204420.41   -23151.888    1760.1031   -24911.991   -243.03022    487.84791    95.081886    14.551798    27.703504 
   72400    236.93584   -376.53586    204420.41   -23176.029    1719.7449   -24895.774    -801.2661    489.51442    95.082168    14.552437    27.720786 
   72600    241.80184   -247.71067    204420.41   -23153.304    1755.0637   -24908.368   -339.57619    490.31652    95.085347    14.554278    27.691214 
   72800    234.66194   -279.70829    204420.41   -23197.237    1703.2403   -24900.477   -425.43924     493.8924    95.087163    14.557106    27.703942 
   73000    240.12102   -343.44317    204420.41   -23208.853    1742.8638   -24951.716   -690.27497    499.82665    95.088819    14.556236    27.708487 
   73200    239.50149   -340.16479    204420.41   -23156.921     1738.367   -24895.288   -649.73191    502.87531    95.088111    14.555729    27.725623 
   73400    241.25612   -265.83095    204420.41   -23146.559    1751.1026   -24897.662   -406.90398    503.41781    95.087898    14.554774    27.744172 
   73600    240.07811   -534.73363    204420.41   -23202.819    1742.5524   -24945.371    -1377.602    506.72076    95.086523    14.554592     27.74594 
   73800     236.0002   -169.90204    204420.41   -23296.757    1712.9538   -25009.711   -80.736177    507.12378     95.08604    14.555492    27.751649 
   74000    241.81817   -471.11014    204420.41   -23246.623    1755.1822   -25001.805   -1141.5626    512.28591    95.086197    14.556119    27.767497 
   74200    238.51639   -366.66767    204420.41   -23158.526    1731.2169   -24889.743   -736.67964    514.90946    95.085846    14.555961    27.768651 
   74400    245.54645   -351.06446    204420.41   -23199.837     1782.243    -24982.08   -676.02672     517.0102    95.084053    14.556093    27.765696 
   74600     243.3351   -50.531593    204420.41   -23244.438    1766.1925    -25010.63    339.01731    517.34634    95.082893    14.557611    27.745959 
   74800    240.44352   -247.78335    204420.41   -23239.832    1745.2046   -24985.037   -342.96672    518.93986    95.082286    14.556886    27.748827 
   75000    238.75746   -433.64584    204420.41   -23264.717    1732.9667   -24997.684   -993.56451    518.01946    95.084406    14.557277    27.758341 
   75200    241.37877   -403.29355    204420.41    -23222.12    1751.9929   -24974.113   -869.88933    519.87174    95.084438    14.559464    27.790995 
   75400    232.28178   -255.26138    204420.41   -23328.218    1685.9644   -25014.182   -368.05783    521.73742    95.083578    14.562066    27.792102 
   75600    242.56539   -290.70233    204420.41   -23284.593    1760.6057   -25045.199   -505.40615    521.64787    95.084131    14.561271    27.784516 
   75800    249.39024   -314.71736    204420.41   -23218.791    1810.1423   -25028.933   -622.87464    521.23247    95.084637    14.561755    27.803407 
   76000    242.40785   -469.76556    204420.41   -23212.915    1759.4622   -24972.378   -1123.6484    522.12695    95.082485    14.564298    27.797538 
   76200    235.19578   -237.37492    204420.41   -23334.201     1707.115   -25041.316   -301.71609     522.2798    95.082095    14.562139    27.819383 
   76400    237.65895   -501.68876    204420.41   -23309.335    1724.9934   -25034.328   -1226.5856    523.89392    95.081276    14.566282    27.815451 
   76600    239.54421    -274.5164    204420.41   -23255.612    1738.6771   -24994.289   -430.87811    527.13797     95.08231     14.56503    27.805497 
   76800    239.05332   -604.07339    204420.41    -23253.71    1735.1142   -24988.824   -1626.5642    529.62491    95.081067    14.562372    27.793751 
   77000    235.99613   -287.89557    204420.41   -23273.747    1712.9242   -24986.671   -460.46363    528.50308    95.079834    14.563648    27.797624 
   77200    243.30058   -355.39524    204420.41   -23257.589    1765.9419   -25023.531   -708.45585    527.82312    95.080692    14.563955    27.794967 
   77400    244.73187   -464.53821    204420.41    -23256.66    1776.3306   -25032.991   -1109.6392    528.39716    95.079986    14.567004    27.785558 
   77600    234.42188   -269.60073    204420.41    -23313.71    1701.4979   -25015.207   -410.29758    530.10121     95.07961    14.567792    27.797484 
   77800    243.78192   -351.65849    204420.41   -23301.518    1769.4356   -25070.954   -690.01248    533.59507    95.080511    14.568069    27.813893 
   78000    234.22701    -306.2187    204420.41   -23267.387    1700.0835   -24967.471   -556.00095    537.49247    95.080796    14.568539    27.800907 
   78200    236.67248   -274.36172    204420.41   -23305.863    1717.8334   -25023.696   -500.80112     541.0188    95.080485    14.570348    27.784852 
   78400    240.30694   -346.65589    204420.41   -23241.948    1744.2133   -24986.162   -671.20751    542.35412    95.078914    14.569847     27.80798 
   78600    236.82693   -260.71187    204420.41   -23268.314    1718.9544   -24987.269   -383.61853    542.98107    95.077732    14.568365    27.784189 
   78800    240.81419   -458.57234    204420.41   -23259.256     1747.895   -25007.151   -1067.3298    540.25792    95.075527    14.566137    27.794244 
   79000    240.66346   -410.69364    204420.41    -23280.67     1746.801   -25027.471   -874.48474    541.20514    95.074906     14.56504    27.804081 
   79200    242.89273   -433.43545    204420.41   -23217.877    1762.9816   -24980.859   -993.58503    543.21182    95.073464    14.561762    27.826146 
   79400    246.08324   -251.09355    204420.41   -23200.412    1786.1392   -24986.552    -349.0985    543.19762    95.072147    14.560111    27.817751 
   79600    233.17646   -362.95306    204420.41    -23299.57    1692.4582   -24992.028    -720.5774    542.32899    95.071517    14.561224    27.824764 
   79800     233.0838   -256.31923    204420.41   -23260.584    1691.7857    -24952.37    -364.2366    542.59492    95.069335    14.564161    27.828305 
   80000    238.11233   -424.95291    204420.41   -23298.436    1728.2841    -25026.72   -944.78539    543.12266    95.069231     14.56683    27.825916 
   80200    233.45866   -277.22712    204420.41   -23326.376    1694.5066   -25020.883   -462.21467    545.73248    95.068578     14.56687    27.815376 
   80400    234.54695   -368.01762    204420.41    -23336.16    1702.4056   -25038.566   -769.45626    548.52697     95.06617    14.568047    27.821617 
   80600    240.55969   -84.098264    204420.41   -23323.058    1746.0478   -25069.106    227.77817    550.28367    95.067849    14.566625    27.836467 
   80800    237.70038   -578.93122    204420.41     -23272.2    1725.2941   -24997.494   -1489.9963    551.52845    95.069317    14.567402    27.856332 
   81000    242.68191   -282.62374    204420.41   -23307.936    1761.4514   -25069.388   -503.44719    553.28169    95.071561    14.567861     27.86263 
   81200    239.41401   -386.33661    204420.41    -23257.57    1737.7321   -24995.302   -816.98123    556.63445     95.07248    14.567107    27.850882 
   81400    242.45971   -201.55704    204420.41   -23225.569    1759.8387   -24985.408   -190.40651    559.51752    95.073713    14.567709      27.8504 
   81600    231.82214   -527.01198    204420.41   -23337.898    1682.6283   -25020.526    -1339.474    562.62605    95.074474    14.569247    27.861071 
   81800    238.70055   -213.68922    204420.41   -23385.541    1732.5536   -25118.094   -200.92571     564.1041     95.07696    14.570388    27.844269 
   82000    237.63311   -522.47819    204420.41   -23328.574    1724.8058    -25053.38   -1325.8035    568.38428    95.079124    14.569256    27.849136 
   82200    238.42781   -415.75669    204420.41   -23247.206     1730.574    -24977.78   -910.89104     566.3953    95.079549    14.568283      27.8469 
   82400    242.13729    -479.0349    204420.41   -23323.034    1757.4984   -25080.532   -1139.0172    564.03417    95.079335    14.566424    27.858229 
   82600    246.16118   -176.44747    204420.41   -23243.507    1786.7049   -25030.212     -120.732    564.94345    95.081193    14.568069     27.85757 
   82800    235.85217   -346.80597    204420.41   -23339.985    1711.8793   -25051.865   -703.60168    565.20837    95.081155    14.566695    27.865233 
   83000    244.36643   -227.93467    204420.41   -23238.825    1773.6781   -25012.503   -244.36529    564.94694    95.080983    14.566874    27.880432 
   83200    244.32035   -232.43191    204420.41   -23266.222    1773.3437   -25039.565   -286.27291    567.00667    95.079563    14.568655    27.880143 
   83400    239.48724   -399.38344    204420.41   -23255.425    1738.2636   -24993.689   -862.75988    567.79476     95.07833    14.568826    27.856534 
   83600    234.69918    -290.6601    204420.41   -23372.873    1703.5106   -25076.383   -454.04511    568.99225    95.079622    14.566618    27.827119 
   83800    238.39981   -269.57802    204420.41   -23312.236    1730.3707   -25042.607   -441.76217    570.76618     95.07923    14.563055     27.80892 
   84000    239.63173   -482.97045    204420.41   -23301.286    1739.3124   -25040.598   -1097.8839    573.10848    95.080004    14.561747    27.795455 
   84200    235.24521   -291.61709    204420.41   -23278.178    1707.4739   -24985.652   -495.78693    574.86613    95.080365    14.561347     27.78742 
   84400    233.52868   -413.62055    204420.41   -23347.527    1695.0148   -25042.542   -899.11645    575.34963    95.080045    14.564243    27.808957 
   84600    239.17062   -291.04971    204420.41   -23309.222    1735.9655   -25045.187   -486.97549    575.34253    95.081747     14.56559    27.814866 
   84800    244.86634   -365.45447    204420.41   -23358.222    1777.3066   -25135.529   -751.73408    574.60231    95.081256    14.566088    27.830189 
   85000    242.46417   -501.36063    204420.41   -23329.057     1759.871   -25088.928   -1244.1815    573.28825    95.079783    14.565085    27.824186 
   85200    244.98608   -307.89528    204420.41   -23315.106    1778.1757   -25093.281   -542.62201    573.27551    95.078952    14.563236    27.843429 
   85400    234.66755   -444.14418    204420.41   -23402.515     1703.281   -25105.796   -1008.2903    574.74427    95.081071    14.563753    27.837147 
   85600    242.48266   -203.75815    204420.41   -23338.587    1760.0052   -25098.592   -170.68405    572.18834    95.081689    14.564291    27.811514 
   85800    236.80244   -334.56841    204420.41   -23364.538    1718.7766   -25083.314   -646.53977    572.80335    95.082279    14.564205    27.832142 
   86000    239.98944   -322.17693    204420.41   -23356.461    1741.9087    -25098.37   -630.25887    575.33486    95.083274    14.563413    27.834943 
   86200    240.88698    -366.7834    204420.41   -23340.848    1748.4234   -25089.271   -773.82693    579.72482     95.08421    14.562434    27.813027 
   86400    237.08417   -331.07923    204420.41   -23412.755    1720.8215   -25133.576   -656.90889    582.30475    95.084616    14.560899    27.827677 
   86600     238.4137   -332.60615    204420.41   -23363.355    1730.4716   -25093.827   -625.49182    585.27888    95.084426    14.561818    27.798858 
   86800     231.0115   -515.51774    204420.41   -23395.423    1676.7444   -25072.168   -1263.2812    587.16683     95.08488    14.561976    27.804978 
   87000     241.7413   -349.73738    204420.41   -23350.141    1754.6243   -25104.765   -714.23641    586.93967    95.084941    14.563685    27.801653 
   87200    240.82835   -448.35692    204420.41   -23293.008    1747.9978   -25041.006   -1036.8849    587.03472    95.084812    14.565222    27.795894 
   87400    236.80959   -449.96748    204420.41   -23426.095    1718.8285   -25144.924   -1029.5483    587.23766    95.085267    14.569056    27.782704 
   87600    240.24041   -320.92911    204420.41   -23312.225    1743.7303   -25055.956   -604.82545    588.14896    95.085328    14.570631    27.781371 
   87800    237.79224   -259.00791    204420.41   -23320.435    1725.9609   -25046.396   -414.52224    588.75668    95.085086    14.573695    27.794918 
   88000    238.67206   -413.51313    204420.41   -23346.489    1732.3468   -25078.836   -938.01561    589.89729    95.085472    14.577501     27.79317 
   88200    233.62321   -349.15732    204420.41   -23337.838    1695.7009   -25033.538   -702.61976    589.14565    95.087032    14.577761    27.779597 
   88400    243.91481   -297.74915    204420.41    -23271.26    1770.4001    -25041.66   -508.83563    591.20547    95.086172    14.578414    27.774157 
   88600     240.3526   -451.61506    204420.41   -23321.219    1744.5447   -25065.764   -1036.8555    589.53731    95.088106    14.579607    27.785021 
   88800    237.57773   -365.88388    204420.41   -23320.772    1724.4039   -25045.176    -769.4459    590.54375    95.089699    14.579191    27.779058 
   89000    238.56358   -379.60338    204420.41   -23298.615    1731.5595   -25030.175   -803.06588    591.69979     95.09034    14.578351    27.771737 
   89200    234.33669    -331.3685    204420.41   -23291.475    1700.8795   -24992.355   -616.78603     593.0099    95.090401    14.577121    27.762872 
   89400    247.85595   -97.920749    204420.41   -23256.472     1799.006   -25055.478    129.04569    594.87646    95.091558    14.576597     27.75798 
   89600    234.24902    -372.9153    204420.41   -23387.202    1700.2432   -25087.445   -815.71597    598.53541    95.090628    14.575938    27.751189 
   89800    238.82822   -174.06025    204420.41   -23281.366    1733.4803   -25014.847   -69.634238    598.93708    95.090892    14.578735    27.749186 
   90000    238.20271   -385.26414    204420.41   -23282.313    1728.9401   -25011.253   -908.06803    602.80049    95.089807      14.5792    27.773015 
   90200    243.00812   -256.21471    204420.41   -23337.835    1763.8192   -25101.655   -365.08068    606.12268    95.089009     14.58048    27.762095 
   90400    238.40581   -175.84064    204420.41   -23308.526    1730.4144    -25038.94   -103.09539    607.79593    95.089475    14.578858    27.756222 
   90600    238.58063   -312.49634    204420.41    -23293.92    1731.6832   -25025.603   -550.27634     609.5221    95.090618    14.578842    27.759996 
   90800    239.65341   -308.00484    204420.41   -23274.984    1739.4697   -25014.453   -555.43311    610.84334    95.091881    14.577713    27.769095 
   91000    230.95128   -301.96755    204420.41   -23361.676    1676.3073   -25037.983   -571.33699    609.33467    95.092371    14.578087    27.786897 
   91200    231.82125   -190.14036    204420.41   -23424.961    1682.6218   -25107.583   -174.30775    608.88931    95.092732    14.577683     27.79465 
   91400    236.55491   -444.95269    204420.41   -23347.685      1716.98   -25064.665   -1012.0728    608.18758    95.093415    14.575664    27.823814 
   91600    238.58122   -309.42119    204420.41   -23240.546    1731.6875   -24972.233   -548.79047    607.14853     95.09339    14.574878    27.807183 
   91800    240.75596   -447.43804    204420.41    -23302.75    1747.4723   -25050.223   -1040.3488    608.16263    95.093395    14.577002    27.815175 
   92000    237.61235   -275.49379    204420.41   -23280.469    1724.6552   -25005.125   -429.75395    607.07112    95.092236    14.578724     27.81207 
   92200    241.71386   -545.54429    204420.41   -23314.317    1754.4251   -25068.742    -1367.814     608.7576     95.09188     14.57998    27.825212 
   92400    239.81521   -336.91465    204420.41   -23282.348    1740.6441   -25022.993   -675.51903    610.44795    95.093845    14.578497     27.81403 
   92600    238.40319   -415.54374    204420.41   -23266.081    1730.3953   -24996.476   -955.55979    613.69838    95.093594    14.578356    27.814327 
   92800    243.49037   -488.68634    204420.41   -23361.431    1767.3194    -25128.75   -1193.0706    614.05362    95.094365    14.579243    27.826803 
   93000    235.52809   -555.94674    204420.41   -23340.531     1709.527   -25050.058   -1419.5615    614.00045     95.09582    14.577395    27.818569 
   93200    241.76546   -103.01135    204420.41   -23309.774    1754.7996   -25064.574    149.07414    613.94864    95.095447    14.575212    27.826027 
   93400    233.30631   -419.95991    204420.41   -23412.526    1693.4007   -25105.927   -977.64518    614.38857    95.094879    14.572691     27.82607 
   93600    239.62145   -359.83462    204420.41   -23398.219    1739.2378   -25137.457   -788.79208    616.02079    95.095092    14.569174    27.803892 
   93800    235.03339   -420.53626    204420.41   -23459.812    1705.9364   -25165.748   -968.77274     613.0632    95.095607    14.567434    27.791917 
   94000     233.2637   -261.58902    204420.41   -23477.981    1693.0915   -25171.073   -403.28958    614.17905    95.097038    14.566869    27.789543 
   94200    237.50469   -279.64923    204420.41   -23336.594    1723.8738   -25060.468   -467.29655    616.16674    95.095672    14.564411    27.770963 
   94400    242.27215    -348.5716    204420.41    -23363.57    1758.4773   -25122.047   -687.86496    616.91739    95.095757     14.56534      27.7718 
   94600     238.3713   -360.63469    204420.41    -23343.33    1730.1638   -25073.494   -771.78527    619.75738    95.096065    14.564527    27.784546 
   94800     240.2283   -282.22864    204420.41   -23343.558    1743.6425   -25087.201   -480.90376    620.36168    95.096406    14.563145    27.780572 
   95000    238.93015   -457.21975    204420.41   -23405.259    1734.2201   -25139.479    -1089.037    621.74666    95.095419    14.562837    27.773404 
   95200    240.90774   -269.36603    204420.41   -23374.127     1748.574   -25122.701   -447.04784    622.06945    95.096142    14.561341    27.766169 
   95400     241.6469   -399.38233    204420.41   -23334.874     1753.939   -25088.813   -862.52373    624.23648    95.095533    14.564096    27.757565 
   95600    241.68165    -317.8184    204420.41    -23297.81    1754.1913   -25052.001   -602.15891    623.56491    95.094885    14.563963    27.745087 
   95800    235.88875   -140.88778    204420.41   -23347.006    1712.1448   -25059.151    -4.843798    621.77871    95.094763    14.563658    27.732507 
   96000    245.40261   -456.94135    204420.41   -23324.595     1781.199   -25105.794   -1063.1834    623.92871    95.094717    14.561063    27.751635 
   96200    244.55663   -298.81555    204420.41   -23247.175    1775.0586   -25022.233   -546.50584    623.82857    95.094839    14.559262    27.751776 
   96400     241.8307   -523.87185    204420.41   -23351.349    1755.2731   -25106.622   -1336.7869    626.13815    95.094409    14.558401    27.773506 
   96600    235.36216   -404.96493    204420.41   -23394.121    1708.3227   -25102.443   -886.75768    626.68618    95.095082    14.557368    27.775083 
   96800    239.91959   -279.39857    204420.41    -23349.49    1741.4017   -25090.891   -475.18881    628.21816    95.094732     14.55614    27.799052 
   97000    237.79075   -407.86847    204420.41   -23378.952    1725.9501   -25104.902   -911.25846    631.37054    95.094506    14.555137    27.801138 
   97200    244.67924   -550.86153    204420.41   -23370.257    1775.9486   -25146.206   -1364.2619    633.07387    95.093666    14.554306    27.799143 
   97400     236.0052   -608.63692    204420.41   -23380.173    1712.9901   -25093.163    -1609.971     633.4599    95.093079    14.551166    27.779306 
   97600    247.55581    -372.5572    204420.41    -23346.07    1796.8275   -25142.897   -760.40052    633.92402    95.093663    14.550213    27.782667 
   97800    241.34244   -291.09365    204420.41   -23358.875    1751.7292   -25110.604   -512.95475    634.80999    95.094994    14.548089    27.766304 
   98000     232.5046   -455.41155    204420.41   -23352.258    1687.5817   -25039.839   -1022.6823    636.15243    95.094606    14.548607    27.749256 
   98200    242.11299   -260.08787    204420.41   -23413.079     1757.322   -25170.401   -357.66545      632.839    95.092609    14.548226    27.754162 
   98400    244.80799   -423.85795    204420.41    -23321.46    1776.8831   -25098.344   -943.94773    631.64833    95.092432    14.548488    27.745271 
   98600    232.72095   -411.59785    204420.41   -23364.549    1689.1521   -25053.701   -915.83847    628.85372    95.093094    14.549973    27.751407 
   98800    240.56023   -417.79961    204420.41   -23301.493    1746.0517   -25047.545   -987.62695    630.39305     95.09161    14.550674    27.756109 
   99000    237.70687   -253.32804    204420.41   -23364.522    1725.3412   -25089.863   -362.72292      628.725    95.091975    14.549864    27.749698 
   99200    240.56129   -285.30614    204420.41   -23304.763    1746.0594   -25050.822   -512.15597    628.80397    95.091979    14.552942    27.738413 
   99400    239.15354   -218.80997    204420.41   -23304.844    1735.8416   -25040.686   -268.68047    628.89614    95.092267    14.556308    27.726214 
   99600    248.16056   -294.50116    204420.41   -23282.683     1801.217     -25083.9   -518.47326    631.53235    95.093271    14.555856     27.69694 
   99800    238.53703   -449.99083    204420.41   -23315.828    1731.3667   -25047.195   -1075.9964    635.68909    95.094005    14.557106    27.714824 
  100000     244.6189   -282.34996    204420.41   -23326.476    1775.5106   -25101.987    -498.7361    632.92122    95.095504    14.561494    27.717805 
  100200    238.94822   -201.90165    204420.41   -23347.386    1734.3513   -25081.737   -168.57609    632.60835    95.096607    14.564189    27.718466 
  100400    246.96836   -151.20822    204420.41   -23270.033    1792.5637   -25062.597   -6.9079177    635.13085    95.094922    14.561499    27.712086 
  100600    243.95136   -291.69353    204420.41   -23327.562    1770.6654   -25098.227   -519.44699    637.13498    95.094412     14.56193    27.703148 
  100800    242.93396    -313.1931    204420.41   -23426.073    1763.2809   -25189.354   -568.35016    639.68443    95.094596    14.561792    27.689894 
[...]
 5175800    223.66183   -72.350869    204420.41     -25552.4    1623.3985   -27175.799    214.22698    7761.7071    96.344829     15.97672    27.884996 
 5176000    225.56129   -113.32475    204420.41   -25570.407    1637.1853   -27207.592    113.77692    7765.6511    96.344525    15.975189     27.87292 
 5176200    224.87162   -46.310758    204420.41   -25590.844    1632.1795   -27223.024    384.46909    7761.3884    96.343968     15.97451    27.890132 
 5176400    227.33032   -172.03032    204420.41   -25532.848    1650.0254   -27182.873   -79.001246    7762.5194    96.344041    15.974268    27.890843 
 5176600    229.00606   -144.94451    204420.41   -25459.478    1662.1884   -27121.666    16.365479    7759.9105    96.343719     15.97244    27.880833 
 5176800    222.43746   -151.36837    204420.41   -25501.643    1614.5117   -27116.154    17.139547    7761.9031    96.344419    15.972235    27.883113 
 5177000    228.28389   -130.08859    204420.41   -25476.451    1656.9467   -27133.398     91.78585    7761.8672    96.344128    15.971223    27.883818 
 5177200    229.58196   -279.91433    204420.41   -25444.691    1666.3684   -27111.059   -456.57937    7765.6856    96.344354    15.971713    27.879842 
 5177400    237.18483   -28.366707    204420.41   -25403.636    1721.5521   -27125.188    409.56087    7759.6424    96.344243    15.971582    27.877103 
 5177600    233.33505   -149.23824    204420.41   -25505.543    1693.6094   -27199.152    -17.82261    7759.9346     96.34492    15.969797    27.875384 
 5177800    229.95914   -101.87522    204420.41    -25534.91    1669.1061   -27204.016    170.55009    7758.7579    96.343547    15.968531    27.866464 
 5178000    224.33245    -81.64121    204420.41   -25531.688     1628.266   -27159.954    247.00255    7762.4935    96.342658    15.968286    27.880168 
 5178200    228.72708   -196.42658    204420.41   -25524.898    1660.1635   -27185.062   -169.19487    7761.6525    96.343011    15.968795    27.877856 
 5178400    224.23641   -207.90032    204420.41   -25537.687     1627.569   -27165.256   -211.12432    7758.3201    96.342637    15.967561     27.88379 
 5178600    229.14094   -87.985502    204420.41   -25508.491    1663.1674   -27171.658    242.76812    7760.2368    96.343116    15.966226    27.891846 
 5178800    226.14901   -121.21054    204420.41   -25517.383    1641.4511   -27158.834    62.450333    7760.9234    96.342468    15.964818    27.884285 
 5179000    225.04727   -111.58096    204420.41   -25548.778    1633.4544   -27182.232    144.24686    7763.9601    96.341196    15.965305     27.88314 
 5179200    229.90281   -120.38173    204420.41   -25554.893    1668.6973   -27223.591    122.71829     7764.768    96.339622    15.965308    27.871488 
 5179400    236.85187   -35.223447    204420.41   -25488.322    1719.1354   -27207.457    376.03713    7760.7984     96.33853    15.964231    27.884006 
 5179600     222.4228     -170.678    204420.41   -25545.504    1614.4053    -27159.91   -57.050155    7758.9618     96.33717    15.962373    27.880548 
 5179800    226.74654    -47.62306    204420.41   -25541.475    1645.7881   -27187.263    363.36708    7763.6031    96.336951    15.960757    27.873568 
 5180000    218.70384   -123.73657    204420.41   -25625.329     1587.412   -27212.741    131.79954    7766.4144    96.336561    15.960304    27.876184 
 5180200    225.41745   -126.91912    204420.41   -25609.771    1636.1413   -27245.913    82.088506    7760.5682     96.33534    15.959758    27.893597 
 5180400     226.4284   -59.834918    204420.41   -25538.478     1643.479   -27181.957    312.72878    7759.7719    96.334604    15.959162     27.88946 
 5180600    223.07121   -180.17415    204420.41   -25528.891    1619.1116   -27148.003   -105.68187    7760.2611    96.333096    15.958074    27.882024 
 5180800    229.15835   -162.27386    204420.41   -25559.408    1663.2937   -27222.701    -82.48371    7763.0032    96.331865    15.956934    27.878596 
 5181000    221.23691   -105.13198    204420.41   -25585.324    1605.7978   -27191.122     180.8942     7766.101    96.330872      15.9558    27.896149 
 5181200    226.88997   -18.161188    204420.41   -25568.802    1646.8292   -27215.631    427.82185    7758.0466    96.331027    15.954014    27.895126 
 5181400    238.23857   -230.18122    204420.41   -25474.412    1729.2004   -27203.612   -298.60032    7759.8421    96.331299    15.953486    27.886702 
 5181600     217.3669   -155.47151    204420.41   -25606.128    1577.7082   -27183.837    -17.55519    7759.6715    96.329544    15.951252    27.888812 
 5181800    228.53719   -180.53403    204420.41   -25497.667    1658.7852   -27156.452   -116.00062    7763.3025     96.32848    15.951383    27.905127 
 5182000    229.90269   -214.29076    204420.41   -25522.148    1668.6963   -27190.845   -213.18023    7764.9664    96.327824    15.952338    27.907676 
 5182200    226.89285     -134.552    204420.41   -25491.732    1646.8501   -27138.582    57.098101    7758.6709    96.326873    15.951083     27.90895 
 5182400    219.95999   -70.626587    204420.41   -25569.369    1596.5296   -27165.899    267.84858    7759.3292    96.325577    15.949489    27.917374 
 5182600    223.70833   -88.839247    204420.41   -25545.736     1623.736   -27169.472    216.96523    7759.9741    96.325672    15.948438    27.903738 
 5182800    230.34222   -97.833339    204420.41   -25511.808    1671.8866   -27183.695    173.70563    7763.4415    96.325325    15.949494    27.907922 
 5183000    227.83845   -64.837331    204420.41   -25478.426    1653.7135    -27132.14    292.00977    7759.8061    96.325353    15.949237     27.90126 
 5183200    231.59398   -130.69417    204420.41   -25487.873    1680.9722   -27168.845    82.710357    7760.4231    96.323961    15.946391     27.90005 
 5183400    226.31427    -114.7718    204420.41   -25602.691    1642.6506   -27245.341    88.292679     7759.182    96.323601    15.943922    27.905666 
 5183600    223.17119   -29.147035    204420.41   -25592.162    1619.8373   -27211.999    420.62505    7759.4755    96.323238    15.942285    27.905403 
 5183800    225.98865   -156.70258    204420.41   -25565.484    1640.2872   -27205.771   -17.653252    7761.2905    96.322377    15.941335    27.899343 
 5184000    226.10903   -11.808668    204420.41   -25489.552     1641.161   -27130.713    477.35895    7757.8624    96.321982    15.940787    27.904515 
 5184200    230.43804    -179.8035    204420.41   -25496.143    1672.5821   -27168.725   -112.48017    7760.2257    96.321671    15.938976    27.905852 
 5184400    230.23673   -44.689671    204420.41   -25488.023    1671.1209   -27159.144    399.38159    7755.5389    96.321062    15.937133     27.91439 
 5184600    227.17481   -287.07202    204420.41   -25522.707    1648.8966   -27171.604   -487.25883    7765.6905    96.320377     15.93507    27.918941 
 5184800    225.97922    51.301908    204420.41   -25498.645    1640.2188   -27138.864    707.48657    7758.3635    96.319935    15.934891    27.911021 
 5185000    230.24497   -240.90318    204420.41   -25501.624    1671.1807   -27172.804    -314.3577    7762.7753    96.319326    15.934987    27.910928 
 5185200    222.66185   -156.19182    204420.41   -25555.048    1616.1404   -27171.188   -2.8241468     7753.021    96.319545    15.934929    27.899136 
 5185400    226.06219   -152.49697    204420.41   -25491.599     1640.821    -27132.42   -13.532756    7755.5549    96.320142     15.93455    27.898808 
 5185600    229.77508   -219.78955    204420.41   -25498.192    1667.7701   -27165.962   -229.28088    7760.9479    96.320674    15.932997    27.913548 
 5185800    234.04497   -8.8021668    204420.41   -25479.067    1698.7622   -27177.829    523.42931    7760.5125    96.320898    15.932683    27.917969 
 5186000    223.62013    -224.6482    204420.41   -25486.931    1623.0959   -27110.027   -293.07738     7763.065    96.320251    15.932666    27.906055 
 5186200    229.70588   -65.033285    204420.41   -25469.767    1667.2678   -27137.034    281.33895    7751.6914     96.32012    15.932444    27.903448 
 5186400    227.66262   -343.33793    204420.41   -25490.833    1652.4374    -27143.27   -676.99269    7762.2494    96.319704     15.93167    27.896334 
 5186600    227.62541   -15.959563    204420.41   -25489.559    1652.1673   -27141.726    495.06803    7754.2716    96.318915    15.929735    27.902754 
 5186800    228.13881   -269.59879    204420.41   -25494.246    1655.8936    -27150.14   -410.40366    7767.5671    96.318482    15.928752    27.905956 
 5187000    231.69704   -75.579645    204420.41   -25465.626    1681.7203   -27147.347    209.74714    7757.3145    96.318376    15.927134    27.906387 
 5187200    228.88664   -271.87565    204420.41   -25520.246    1661.3216   -27181.568   -409.79895    7758.0154     96.31772    15.924693    27.915022 
 5187400    223.66856   -85.068938    204420.41   -25536.697    1623.4473   -27160.145    240.80199     7753.994     96.31687    15.923893    27.911388 
 5187600     231.0994   -299.30977    204420.41   -25454.301    1677.3824   -27131.683   -527.38997    7761.1237    96.316223    15.923763    27.905655 
 5187800    230.12586   -153.19226    204420.41   -25498.188    1670.3162   -27168.505   -9.2976832    7761.7124    96.315456    15.921772    27.915413 
 5188000    230.41922   -138.00715    204420.41   -25458.718    1672.4455   -27131.163    48.045457    7758.4708    96.314675    15.921257    27.908344 
 5188200    229.63556   -186.30888    204420.41   -25492.631    1666.7575   -27159.388   -138.18062    7756.9514    96.314854    15.921482    27.885131 
 5188400    228.42975   -29.570959    204420.41   -25499.046    1658.0054   -27157.051    444.57076    7750.4178    96.313768    15.920085    27.879794 
 5188600    228.55123   -214.05261    204420.41   -25532.731    1658.8871   -27191.618   -200.23735    7761.5358    96.313185    15.919427    27.882902 
 5188800    222.21386   -112.86712    204420.41     -25569.2    1612.8887   -27182.089     127.0071    7755.9807    96.311744    15.918407    27.899027 
 5189000    223.47602   -263.91252    204420.41   -25514.525    1622.0498   -27136.575   -400.04965    7762.0903     96.30995    15.918464    27.888739 
 5189200    220.42986   -123.31764    204420.41   -25613.279      1599.94   -27213.219    62.484163     7753.721    96.310044    15.918188    27.892151 
 5189400    224.92937   -241.94425    204420.41   -25548.719    1632.5986   -27181.317   -299.78157    7760.3581    96.310758    15.917476    27.884298 
 5189600    228.57306    -118.9117    204420.41   -25472.497    1659.0455   -27131.542    72.078418    7753.4507     96.31027    15.917621    27.898502 
 5189800    225.26212    -224.2357    204420.41   -25519.879    1635.0138   -27154.893   -259.04699    7759.6283    96.310388    15.917093    27.890139 
 5190000    223.42138   -94.133911    204420.41   -25507.767    1621.6532   -27129.421    194.97624    7757.0252    96.310556    15.916706    27.907986 
 5190200    222.22699   -172.01133    204420.41   -25534.322    1612.9841   -27147.306   -91.947381    7759.5008    96.309236    15.916482    27.908219 
 5190400    226.25141   -48.061002    204420.41   -25434.746    1642.1944    -27076.94    341.06778         7757    96.309438    15.916412     27.89162 
 5190600    225.94117   -290.31903    204420.41   -25511.972    1639.9426   -27151.915   -512.27802    7760.4564    96.309493    15.915627    27.878044 
 5190800    231.63893   -78.774099    204420.41   -25488.602    1681.2984     -27169.9    197.94869    7759.0205    96.309475    15.915795    27.893537 
 5191000    223.43164   -128.20226    204420.41   -25518.972    1621.7277   -27140.699    95.255998    7757.9498    96.309832    15.915822    27.894153 
 5191200    226.17207    -135.1311    204420.41   -25510.587    1641.6185   -27152.206    53.098234    7753.9708    96.309581    15.915472     27.88388 
 5191400    226.92759    -82.76008    204420.41   -25495.624    1647.1023   -27142.726    236.62512    7756.5787    96.308974    15.912945     27.89524 
 5191600    224.38972   -168.56145    204420.41   -25514.036    1628.6818   -27142.718   -89.207749     7758.946    96.309209     15.91129    27.886058 
 5191800    229.05658   -33.224337    204420.41    -25474.62    1662.5551   -27137.175    403.31742    7757.7341    96.308432    15.910978    27.893632 
 5192000    231.43033    -271.8706    204420.41   -25455.695    1679.7844   -27135.479   -465.14945    7759.2865    96.308767    15.910683    27.877889 
 5192200    224.00259   -138.64948    204420.41   -25519.433    1625.8719   -27145.305    45.072241     7753.811    96.308288    15.910779    27.879175 
 5192400    224.95937   -153.23479    204420.41   -25517.063    1632.8164   -27149.879   -49.260636      7758.13    96.308095    15.909471    27.882047 
 5192600      228.351   -56.047232    204420.41   -25550.483    1657.4338   -27207.917    290.54601    7755.8532    96.308268    15.908302    27.885644 
 5192800      231.746   -187.38456    204420.41   -25502.526    1682.0756   -27184.601   -130.11489    7760.1509    96.308334    15.907959    27.885751 
 5193000    226.76956   -115.31236    204420.41   -25570.735    1645.9552    -27216.69    113.42335    7755.8981    96.309277    15.908318    27.879403 
 5193200    230.20147   -181.90198    204420.41    -25508.04     1670.865   -27178.905   -98.896626    7760.5819    96.309656    15.907274    27.891779 
 5193400    223.79972   -104.20378    204420.41   -25502.444    1624.3993   -27126.843    97.797371     7758.791    96.309597    15.906601    27.897012 
 5193600    231.81042   -21.121586    204420.41    -25484.56    1682.5432   -27167.103    454.80986    7761.6987    96.308967     15.90547    27.893605 
 5193800    226.27541   -236.50832    204420.41   -25500.852    1642.3686   -27143.221   -306.87543    7763.3064    96.308292    15.904881    27.906344 
 5194000    224.12348   -142.11919    204420.41   -25613.424    1626.7493   -27240.173    20.509088    7756.0865    96.308984    15.906129    27.895619 
 5194200    224.80413   -196.67385    204420.41   -25556.079    1631.6897   -27187.769   -143.96484    7758.3737    96.307832    15.905949    27.891119 
 5194400    228.01541   -134.21068    204420.41   -25502.499    1654.9979   -27157.497    24.312577    7755.9414    96.306979    15.904659    27.892499 
 5194600    228.67166   -162.75453    204420.41   -25472.125    1659.7612   -27131.887    -55.72753     7764.105    96.306995    15.906338    27.896973 
 5194800    224.92976    -77.12559    204420.41   -25495.368    1632.6015   -27127.969    236.90369    7758.1199    96.307149    15.907934     27.88388 
 5195000    232.48597   -283.88439    204420.41   -25501.548    1687.4465   -27188.994   -480.33039    7760.0822    96.306825    15.908757      27.8852 
 5195200    231.51699   -54.711571    204420.41   -25494.014    1680.4134   -27174.427    340.47619    7754.8989    96.306888     15.90841    27.872042 
 5195400    222.28695   -78.335538    204420.41   -25512.876    1613.4192   -27126.295    255.27249    7759.6346    96.306754    15.908398    27.885507 
 5195600    227.74487   -76.980744    204420.41   -25550.781    1653.0343   -27203.815    219.47081    7761.7073    96.306496    15.908907    27.891062 
 5195800    229.08862   -69.377101    204420.41   -25444.021    1662.7876   -27106.809    288.23847    7759.9812    96.307238    15.911064    27.892229 
 5196000    229.32823   -183.40967    204420.41   -25522.636    1664.5268   -27187.163    -142.7306    7761.6193    96.308291     15.91125    27.895831 
 5196200    229.27569   -77.079833    204420.41   -25531.149    1664.1454   -27195.295    223.15702    7755.0668    96.308095    15.908861    27.886933 
 5196400    230.21128    -271.7033    204420.41   -25519.947    1670.9362   -27190.883   -439.26041    7763.4715    96.309226    15.907798    27.897647 
 5196600    229.49984   -37.716355    204420.41   -25503.818    1665.7723    -27169.59    383.61529    7757.4504    96.310274    15.909301    27.891733 
 5196800    225.24391   -306.48397    204420.41   -25495.589    1634.8816   -27130.471   -571.11574    7764.7465    96.310071    15.910042    27.898509 
 5197000    237.59697   -96.055239    204420.41    -25456.13    1724.5435   -27180.674    145.13755    7757.0349    96.309904    15.911277    27.893108 
 5197200    223.47225   -215.88877    204420.41   -25531.571    1622.0225   -27153.593   -261.74572    7760.2187    96.310696    15.911729    27.888791 
 5197400    221.21748    -79.05997    204420.41   -25525.578    1605.6567   -27131.235    243.51965    7756.1689    96.310574    15.911682    27.888899 
 5197600    221.86956   -186.80655    204420.41   -25566.471    1610.3897   -27176.861   -152.09484    7759.3163    96.312208    15.912862    27.894525 
 5197800    224.30554   -195.00278    204420.41   -25588.459    1628.0707   -27216.529   -173.79904    7761.8067    96.313152    15.913923    27.897586 
 5198000    224.71114   -61.043528    204420.41   -25460.458    1631.0147   -27091.473    291.72423    7756.8985    96.313308    15.914254    27.897872 
 5198200    223.71051   -196.12801    204420.41   -25485.443    1623.7518   -27109.195    -162.6626    7759.4889    96.313469    15.913577    27.894109 
 5198400    229.40184   -31.693116    204420.41   -25550.253    1665.0611   -27215.314    407.67121    7753.7274    96.313998    15.912001    27.892896 
 5198600    223.30671    -129.1243    204420.41   -25597.397    1620.8209   -27218.218    90.698368     7759.185    96.314353    15.911721    27.897776 
 5198800    225.44232   -67.912193    204420.41   -25525.966    1636.3218   -27162.288    307.18788    7755.6119    96.314066    15.911342    27.905227 
 5199000     226.4754   -141.42964    204420.41    -25465.47    1643.8202    -27109.29    17.051209    7760.4083    96.313934     15.91111    27.899933 
 5199200    228.20499   -154.19552    204420.41   -25530.891     1656.374   -27187.265   -1.3219005    7756.3807    96.314047    15.910276    27.910686 
 5199400    228.86564   -89.394217    204420.41    -25515.22    1661.1692   -27176.389      188.691    7754.2813    96.314752    15.910701    27.902136 
 5199600    228.26144   -95.083591    204420.41    -25495.43    1656.7837   -27152.214    226.86054    7761.3144    96.315634    15.909294    27.893621 
 5199800    231.72335   -96.111843    204420.41   -25513.926    1681.9112   -27195.838    154.99558    7753.7857     96.31553    15.908887    27.893159 
 5200000    225.30896   -144.62158    204420.41   -25468.037    1635.3538   -27103.391    31.559999    7759.2018    96.315573    15.908419    27.888456 
Loop time of 6476.73 on 160 procs for 5200000 steps with 8482 atoms

Performance: 693.683 ns/day, 0.035 hours/ns, 802.874 timesteps/s
97.9% CPU use with 160 MPI tasks x no OpenMP threads

MPI task timing breakdown:
Section |  min time  |  avg time  |  max time  |%varavg| %total
---------------------------------------------------------------
Pair    | 0.23826    | 1574.5     | 5070.7     |4689.7 | 24.31
Neigh   | 0.33948    | 89.472     | 376.67     |1101.1 |  1.38
Comm    | 8.4403     | 1613.7     | 5240.9     |4396.5 | 24.92
Output  | 81.057     | 81.121     | 83.015     |   1.7 |  1.25
Modify  | 330.93     | 3027.5     | 6301.7     |4720.6 | 46.74
Other   |            | 90.43      |            |       |  1.40

Nlocal:    53.0125 ave 164 max 0 min
Histogram: 60 5 55 0 0 0 0 5 5 30
Nghost:    542.731 ave 882 max 0 min
Histogram: 18 2 2 2 13 35 24 13 28 23
Neighs:    0 ave 0 max 0 min
Histogram: 160 0 0 0 0 0 0 0 0 0
FullNghs:  5294.59 ave 20681 max 0 min
Histogram: 90 30 0 0 0 0 0 7 16 17

Total # of neighbors = 847134
Ave neighs/atom = 99.8743
Neighbor list builds = 552439
Dangerous builds = 0
write_data 		${DIR}/data.${NAME}_run
write_data 		run_14/data.${NAME}_run
write_data 		run_14/data.ibeam_cooling_14_run
Total wall time: 1:48:10
