
### Dimensions ###


### IMPORT ATOMS ###
read_data ../Box_Setup/data.Ibeam_240K
  orthogonal box = (0 0 0) to (189.989 26.9999 39.8504)
  20 by 2 by 4 MPI processor grid
  reading atoms ...
  8482 atoms
  reading velocities ...
  8482 velocities
group water type 2
2436 atoms in group water
group graphite type 1
6046 atoms in group graphite


# Define potential
#
pair_style          sw
pair_coeff * * MLC_e.sw C mW

# Add velocity/set timestep
#

fix		1 graphite setforce 0.0 0.0 0.0
velocity 	graphite set 0.0 0.0 0.0
velocity            water create ${START_TEMP} ${SEED} rot yes dist gaussian
velocity            water create 240 ${SEED} rot yes dist gaussian
velocity            water create 240 8433 rot yes dist gaussian
timestep            5.0

# Define output
#
compute 1 water msd
compute 2 water temp


thermo	            100
thermo_style custom step c_2 press vol etotal ke pe c_1[4] density

# Neighbor lists
#
neigh_modify        delay 0 every 1 check yes


# Set fixes
#
fix                 2 water momentum 10 linear 1 1 1 rescale
fix                 3 all nve
fix                 4 water temp/csvr ${START_TEMP} ${START_TEMP} 500.0 928347
fix                 4 water temp/csvr 240 ${START_TEMP} 500.0 928347
fix                 4 water temp/csvr 240 240 500.0 928347

# Run 0.05 ns equilibration
#
dump                1 all custom 100 ${DIR}/eq.${NAME}.dump id type x y z vx vy vz
dump                1 all custom 100 run_14/eq.${NAME}.dump id type x y z vx vy vz
dump                1 all custom 100 run_14/eq.ibeam_cooling_14.dump id type x y z vx vy vz
run                 10000
Neighbor list info ...
  update every 1 steps, delay 0 steps, check yes
  max neighbors/atom: 2000, page size: 100000
  master list distance cutoff = 6.67472
  ghost atom cutoff = 6.67472
  binsize = 3.33736, bins = 57 9 12
  1 neighbor lists, perpetual/occasional/extra = 1 0 0
  (1) pair sw, perpetual
      attributes: full, newton on
      pair build: full/bin/atomonly
      stencil: full/bin/3d
      bin: standard
Per MPI rank memory allocation (min/avg/max) = 0.4608 | 3.725 | 4.735 Mbytes
Step c_2 Press Volume TotEng KinEng PotEng c_1[4] Density 
       0          240   -262.64038    204420.41   -23347.773    1741.9854   -25089.758            0   0.94632332 
     100    235.04992   -177.20323    204420.41   -23354.603    1706.0563   -25060.659   0.85665206   0.94632332 
     200    236.89669   -253.02818    204420.41   -23374.387    1719.4607   -25093.848    1.3168163   0.94632332 
     300    237.46101   -488.63721    204420.41   -23364.284    1723.5567   -25087.841    1.6883284   0.94632332 
     400    235.21279   -350.55752    204420.41   -23368.231    1707.2385    -25075.47    2.1675507   0.94632332 
     500     236.5963   -432.67718    204420.41   -23337.981    1717.2804   -25055.262    2.6701435   0.94632332 
     600     244.7579   -397.51461    204420.41    -23276.23    1776.5195   -25052.749    3.0693687   0.94632332 
     700    240.06072   -428.61237    204420.41   -23284.442    1742.4261   -25026.868    3.4967482   0.94632332 
     800    232.67848   -410.00523    204420.41   -23258.484    1688.8438   -24947.327    3.8497305   0.94632332 
     900     242.0705   -129.22785    204420.41   -23270.389    1757.0136   -25027.403    4.1535356   0.94632332 
    1000    240.65464    -522.3952    204420.41   -23288.835     1746.737   -25035.572    4.5101177   0.94632332 
    1100     239.9581   -626.81504    204420.41   -23261.116    1741.6813   -25002.797    4.9161699   0.94632332 
    1200    239.15813   -361.17357    204420.41   -23263.358    1735.8748   -24999.233    5.2462753   0.94632332 
    1300    243.29509   -588.00548    204420.41   -23224.055     1765.902   -24989.957    5.6620892   0.94632332 
    1400    248.71468   -310.54528    204420.41   -23260.828    1805.2389   -25066.067     5.882779   0.94632332 
    1500    239.05925   -45.085502    204420.41   -23301.839    1735.1572   -25036.996    6.2213613   0.94632332 
    1600    242.49105   -289.64992    204420.41   -23264.802    1760.0661   -25024.868    6.5188568   0.94632332 
    1700     242.9463    -169.5435    204420.41   -23277.206    1763.3704   -25040.576    6.7676344   0.94632332 
    1800    240.27102   -261.57896    204420.41   -23246.076    1743.9525   -24990.028    7.2736224   0.94632332 
    1900    242.07117   -342.61952    204420.41    -23196.22    1757.0185   -24953.239    7.6625299   0.94632332 
    2000    249.41182   -352.21406    204420.41    -23162.19    1810.2989   -24972.489    8.0988766   0.94632332 
    2100    233.10895   -251.99742    204420.41   -23259.175    1691.9683   -24951.143    8.4138825   0.94632332 
    2200    248.78306   -166.78651    204420.41   -23222.927    1805.7352   -25028.662    8.6704827   0.94632332 
    2300    244.41509   -247.17985    204420.41     -23195.2    1774.0313   -24969.231    9.1837149   0.94632332 
    2400     242.5299   -245.44666    204420.41   -23193.839    1760.3481   -24954.187    9.5716001   0.94632332 
    2500    240.88493   -255.84642    204420.41    -23227.45    1748.4085   -24975.859     10.06916   0.94632332 
    2600    235.67065   -388.87964    204420.41   -23234.452    1710.5618   -24945.014    10.366785   0.94632332 
    2700    240.45462   -315.21094    204420.41   -23229.182    1745.2851   -24974.467    10.548289   0.94632332 
    2800    246.79577   -294.13719    204420.41   -23177.554    1791.3109   -24968.865    10.840111   0.94632332 
    2900    239.43513   -434.54054    204420.41   -23185.248    1737.8854   -24923.133    11.057163   0.94632332 
    3000    245.91315   -294.70806    204420.41   -23194.306    1784.9047   -24979.211    11.499424   0.94632332 
    3100     241.8174   -312.48688    204420.41   -23177.806    1755.1766   -24932.983    11.832138   0.94632332 
    3200    236.50517   -478.86116    204420.41   -23242.977     1716.619   -24959.596    12.395319   0.94632332 
    3300     238.1838   -298.94914    204420.41   -23318.371    1728.8029   -25047.174    12.732312   0.94632332 
    3400    241.34271   -226.12621    204420.41   -23269.646    1751.7311   -25021.377    13.066074   0.94632332 
    3500    232.75314   -365.65595    204420.41   -23250.916    1689.3857   -24940.302    13.474771   0.94632332 
    3600    242.64795   -287.22361    204420.41   -23252.165     1761.205    -25013.37    13.660062   0.94632332 
    3700    242.94421   -112.25769    204420.41   -23231.681    1763.3553   -24995.036    14.105982   0.94632332 
    3800    239.54287   -410.16146    204420.41   -23222.722    1738.6674    -24961.39    14.461485   0.94632332 
    3900    235.51472   -319.09012    204420.41   -23223.658      1709.43   -24933.088    14.841397   0.94632332 
    4000    240.62337   -145.15486    204420.41   -23274.633      1746.51   -25021.143    15.100557   0.94632332 
    4100    242.25191   -419.28817    204420.41    -23268.48    1758.3304    -25026.81    15.341661   0.94632332 
    4200    239.81179   -448.01621    204420.41   -23249.072    1740.6193   -24989.692    15.769831   0.94632332 
    4300    236.60205   -542.10975    204420.41   -23301.881    1717.3221   -25019.203    16.253826   0.94632332 
    4400    239.80138   -474.32235    204420.41   -23265.046    1740.5438    -25005.59     16.55716   0.94632332 
    4500    237.18917   -313.15054    204420.41   -23296.873    1721.5836   -25018.457    17.019847   0.94632332 
    4600    236.01339   -383.44988    204420.41   -23343.586    1713.0495   -25056.635    17.316355   0.94632332 
    4700    237.96295   -167.31741    204420.41   -23263.546    1727.1999   -24990.746    17.582482   0.94632332 
    4800    240.08798   -358.93849    204420.41   -23226.735     1742.624   -24969.359    17.896876   0.94632332 
    4900    241.91507   -291.83121    204420.41   -23172.992    1755.8855   -24928.878    18.224235   0.94632332 
    5000    242.53544   -494.02327    204420.41   -23221.766    1760.3883   -24982.154    18.681624   0.94632332 
    5100    236.86907   -326.76546    204420.41    -23179.66    1719.2602   -24898.921    19.126313   0.94632332 
    5200    239.58024   -363.67072    204420.41   -23212.568    1738.9387   -24951.506     19.76698   0.94632332 
    5300    239.18158    -411.3708    204420.41   -23294.475    1736.0451    -25030.52     20.37559   0.94632332 
    5400    245.31754   -245.83439    204420.41   -23287.549    1780.5816    -25068.13    20.452624   0.94632332 
    5500     238.8276   -230.13833    204420.41   -23286.238    1733.4758   -25019.714    20.596629   0.94632332 
    5600    234.08536   -400.68234    204420.41   -23299.636    1699.0553   -24998.692    20.970129   0.94632332 
    5700    240.17604   -241.79132    204420.41   -23268.858    1743.2631   -25012.121    21.045855   0.94632332 
    5800    238.06642    -420.7614    204420.41   -23245.102    1727.9509   -24973.053    21.512255   0.94632332 
    5900    236.51643    -337.0359    204420.41   -23266.232    1716.7007   -24982.933    21.780613   0.94632332 
    6000    241.13022   -433.98879    204420.41    -23286.94    1750.1889   -25037.128    22.057141   0.94632332 
    6100    238.07589   -319.81521    204420.41   -23308.756    1728.0197   -25036.776    22.087543   0.94632332 
    6200    235.71965   -292.28764    204420.41   -23327.531    1710.9174   -25038.448     22.49264   0.94632332 
    6300    240.08505   -315.90308    204420.41   -23243.164    1742.6027   -24985.767    23.190797   0.94632332 
    6400    233.46463   -588.80941    204420.41   -23274.221    1694.5499   -24968.771    23.737932   0.94632332 
    6500    241.65944   -438.89009    204420.41   -23276.782    1754.0301   -25030.812    23.793278   0.94632332 
    6600    239.33958   -447.30764    204420.41   -23287.206    1737.1919   -25024.398    24.259881   0.94632332 
    6700    238.37077   -271.24403    204420.41   -23312.649      1730.16   -25042.809    24.477397   0.94632332 
    6800    237.97754   -291.98654    204420.41   -23306.125    1727.3058   -25033.431    24.989854   0.94632332 
    6900    244.40414   -284.94835    204420.41   -23272.882    1773.9518   -25046.833    25.483168   0.94632332 
    7000    238.90842   -399.30136    204420.41    -23278.08    1734.0624   -25012.143    25.672088   0.94632332 
    7100    235.03472   -348.62517    204420.41   -23274.629     1705.946   -24980.575    26.191672   0.94632332 
    7200    235.38629   -448.20923    204420.41   -23336.523    1708.4978    -25045.02    26.654723   0.94632332 
    7300    236.43798   -349.88531    204420.41   -23373.068    1716.1313   -25089.199    27.076254   0.94632332 
    7400    237.18858     -230.006    204420.41   -23350.523    1721.5794   -25072.102    27.237057   0.94632332 
    7500    239.63339   -228.95844    204420.41   -23335.017    1739.3244   -25074.341    27.423535   0.94632332 
    7600    243.76856   -169.68744    204420.41   -23305.653    1769.3387   -25074.992    27.685323   0.94632332 
    7700    244.89943   -229.36987    204420.41   -23327.742    1777.5468   -25105.289    27.696546   0.94632332 
    7800    236.41619   -338.57369    204420.41    -23398.25    1715.9731   -25114.223    27.988611   0.94632332 
    7900    236.14957   -205.42366    204420.41    -23374.62    1714.0379   -25088.658     28.35977   0.94632332 
    8000    240.26423   -327.04799    204420.41   -23310.115    1743.9032   -25054.018     28.67402   0.94632332 
    8100    242.37291   -192.74325    204420.41   -23294.513    1759.2086   -25053.722      28.8028   0.94632332 
    8200    239.49349   -346.31068    204420.41   -23323.387     1738.309   -25061.696    29.056296   0.94632332 
    8300    244.80254   -257.43558    204420.41   -23289.349    1776.8435   -25066.193    28.989535   0.94632332 
    8400    246.58086    -369.9243    204420.41   -23279.043    1789.7511   -25068.794    29.595366   0.94632332 
    8500    239.39486   -316.19036    204420.41   -23320.515    1737.5931   -25058.108     29.99345   0.94632332 
    8600    237.64054    -290.0503    204420.41   -23310.853    1724.8598   -25035.713    30.497785   0.94632332 
    8700    240.35476   -468.72333    204420.41     -23320.1    1744.5604    -25064.66    30.600553   0.94632332 
    8800    239.03293   -451.05798    204420.41   -23304.918    1734.9661   -25039.884    30.910415   0.94632332 
    8900    236.84106   -332.84499    204420.41   -23332.782     1719.057   -25051.838    30.905405   0.94632332 
    9000    241.04616   -320.41536    204420.41   -23292.285    1749.5787   -25041.864     31.36539   0.94632332 
    9100    239.27308    -320.8657    204420.41    -23310.99    1736.7092   -25047.699       31.691   0.94632332 
    9200    243.37121   -165.77303    204420.41   -23278.597    1766.4546   -25045.051    32.016591   0.94632332 
    9300    242.48381     -259.719    204420.41   -23346.619    1760.0136   -25106.632    32.244018   0.94632332 
    9400     238.1986   -448.75245    204420.41   -23315.885    1728.9103   -25044.795    32.705087   0.94632332 
    9500    236.10009   -376.44319    204420.41   -23337.423    1713.6788   -25051.102    33.085744   0.94632332 
    9600    233.29575   -165.14714    204420.41   -23327.693    1693.3241   -25021.017    33.511425   0.94632332 
    9700     237.1546   -202.45295    204420.41   -23293.171    1721.3327   -25014.504    33.912653   0.94632332 
    9800    233.84323   -317.08756    204420.41   -23216.197    1697.2978   -24913.495    34.455464   0.94632332 
    9900    237.85852   -332.02233    204420.41   -23225.126     1726.442   -24951.568    34.841919   0.94632332 
   10000    239.36588   -472.75346    204420.41    -23230.55    1737.3827   -24967.933    35.325537   0.94632332 
Loop time of 13.5169 on 160 procs for 10000 steps with 8482 atoms

Performance: 319.600 ns/day, 0.075 hours/ns, 739.814 timesteps/s
97.8% CPU use with 160 MPI tasks x no OpenMP threads

MPI task timing breakdown:
Section |  min time  |  avg time  |  max time  |%varavg| %total
---------------------------------------------------------------
Pair    | 0.00044656 | 3.2849     | 10.811     | 217.0 | 24.30
Neigh   | 0.00036573 | 0.094181   | 0.39641    |  35.5 |  0.70
Comm    | 0.010945   | 3.244      | 11.102     | 207.9 | 24.00
Output  | 0.1699     | 0.17008    | 0.17671    |   0.1 |  1.26
Modify  | 0.7354     | 6.5848     | 13.214     | 218.7 | 48.72
Other   |            | 0.1389     |            |       |  1.03

Nlocal:    53.0125 ave 164 max 0 min
Histogram: 61 8 50 1 0 0 0 5 5 30
Nghost:    543.119 ave 904 max 0 min
Histogram: 20 0 4 0 11 46 19 8 36 16
Neighs:    0 ave 0 max 0 min
Histogram: 160 0 0 0 0 0 0 0 0 0
FullNghs:  5310.55 ave 20663 max 0 min
Histogram: 87 33 0 0 0 0 0 7 16 17

Total # of neighbors = 849688
Ave neighs/atom = 100.175
Neighbor list builds = 579
Dangerous builds = 0
write_data 	    ${DIR}/data.${NAME}_eq
write_data 	    run_14/data.${NAME}_eq
write_data 	    run_14/data.ibeam_cooling_14_eq

undump              1
unfix               4



################################################
#######         Run Simulation         #########
################################################

reset_timestep      0
timestep	    10.0
log                 ${DIR}/log.run_${NAME}
log                 run_14/log.run_${NAME}
log                 run_14/log.run_ibeam_cooling_14
