
### Dimensions ###
variable Z_G equal 10.062000000000001
variable Z_W equal 17.781522602

variable	XDIM string 68.908
variable 	YDIM string 68.92587069519459


### IMPORT ATOMS ###
read_data ../Box_Setup/data.Ibeam_240K
Reading data file ...
  orthogonal box = (0.0000000 0.0000000 0.0000000) to (68.908000 68.925871 27.952761)
  4 by 8 by 2 MPI processor grid
  reading atoms ...
  6871 atoms
  reading velocities ...
  6871 velocities
  read_data CPU = 0.019 seconds
group water type 2
1355 atoms in group water
group graphite type 1
5516 atoms in group graphite


# Define potential
#
pair_style          sw
pair_coeff * * MLC_e.sw C mW

# Add velocity/set timestep
#

fix		1 graphite setforce 0.0 0.0 0.0
velocity 	graphite set 0.0 0.0 0.0
velocity            water create ${START_TEMP} ${SEED} rot yes dist gaussian
velocity            water create 240 ${SEED} rot yes dist gaussian
velocity            water create 240 10190 rot yes dist gaussian
timestep            5.0

# Define output
#
compute 1 water msd
compute 2 water temp


thermo	            100
thermo_style custom step c_2 press vol etotal ke pe c_1[4] density

# Neighbor lists
#
neigh_modify        delay 0 every 1 check yes


# Set fixes
#
fix                 2 water momentum 10 linear 1 1 1 rescale
fix                 3 all nve
fix                 4 water temp/csvr ${START_TEMP} ${START_TEMP} 500.0 928347
fix                 4 water temp/csvr 240 ${START_TEMP} 500.0 928347
fix                 4 water temp/csvr 240 240 500.0 928347

# Run 0.05 ns equilibration
#
dump                1 all custom 100 ${DIR}/eq.${NAME}.dump id type x y z vx vy vz
dump                1 all custom 100 run_2/eq.${NAME}.dump id type x y z vx vy vz
dump                1 all custom 100 run_2/eq.ibeam_cooling_2.dump id type x y z vx vy vz
run                 10000
Neighbor list info ...
  update every 1 steps, delay 0 steps, check yes
  max neighbors/atom: 2000, page size: 100000
  master list distance cutoff = 6.6747184
  ghost atom cutoff = 6.6747184
  binsize = 3.3373592, bins = 21 21 9
  1 neighbor lists, perpetual/occasional/extra = 1 0 0
  (1) pair sw, perpetual
      attributes: full, newton on
      pair build: full/bin/atomonly
      stencil: full/bin/3d
      bin: standard
Per MPI rank memory allocation (min/avg/max) = 3.624 | 4.534 | 4.748 Mbytes
Step c_2 Press Volume TotEng KinEng PotEng c_1[4] Density 
       0          240   -543.35458    132762.87   -12919.671    968.64403   -13888.315            0    1.1339035 
     100    244.35606   -401.57777    132762.87   -12887.552    986.22516   -13873.777   0.88588445    1.1339035 
     200    238.17088   -481.45166    132762.87    -12915.11    961.26169   -13876.372    1.3371726    1.1339035 
     300    239.73784   -514.20025    132762.87   -12912.975    967.58594   -13880.561    1.7886963    1.1339035 
     400    239.38318    -606.5501    132762.87   -12917.073    966.15455   -13883.227    2.2201702    1.1339035 
     500    239.74825   -531.04889    132762.87   -12926.402    967.62799    -13894.03    2.5341099    1.1339035 
     600     228.9508   -730.02235    132762.87   -13011.469    924.04929   -13935.518    2.8527177    1.1339035 
     700    233.01882   -614.34514    132762.87   -12995.915    940.46787   -13936.383    3.2440753    1.1339035 
     800     225.4825   -330.89214    132762.87   -13036.456    910.05114   -13946.507    3.4975753    1.1339035 
     900    227.77527   -486.11762    132762.87   -12997.073     919.3048   -13916.378    3.8971551    1.1339035 
    1000    236.77767   -591.26212    132762.87   -12945.682    955.63866    -13901.32    4.1948755    1.1339035 
    1100    229.75729   -558.05808    132762.87   -12947.514    927.30428   -13874.818    4.6633808    1.1339035 
    1200    233.78086   -658.45182    132762.87   -12976.104    943.54347   -13919.647     4.965876    1.1339035 
    1300    235.74313   -479.36913    132762.87   -12941.827    951.46323   -13893.291    5.1400735    1.1339035 
    1400    252.42064   -606.20763    132762.87   -12897.973     1018.774   -13916.747     5.402367    1.1339035 
    1500    244.90924    -279.8013    132762.87     -12913.9    988.45781   -13902.358    5.7405237    1.1339035 
    1600    247.55241   -624.60353    132762.87   -12901.948     999.1257   -13901.073    6.3661784    1.1339035 
    1700    233.77379   -603.80198    132762.87   -12915.695    943.51493    -13859.21     7.016071    1.1339035 
    1800    236.94367   -651.04552    132762.87     -12912.5    956.30864   -13868.808    7.2565586    1.1339035 
    1900    252.57763   -459.89401    132762.87   -12857.881    1019.4076   -13877.288    7.6424478    1.1339035 
    2000    253.23816   -424.19296    132762.87   -12841.347    1022.0735   -13863.421    7.8060902    1.1339035 
    2100    251.64334   -806.15812    132762.87   -12860.474    1015.6368    -13876.11    8.1507139    1.1339035 
    2200     250.6574   -483.11179    132762.87    -12843.78    1011.6575   -13855.437    8.8188975    1.1339035 
    2300    249.46476   -382.49555    132762.87   -12886.686     1006.844    -13893.53    9.1762335    1.1339035 
    2400    241.86935   -526.99446    132762.87   -12885.681    976.18877   -13861.869    9.6754037    1.1339035 
    2500    238.85801   -641.87556    132762.87   -12887.003    964.03495   -13851.038    10.042414    1.1339035 
    2600    238.95336   -528.94618    132762.87    -12926.16    964.41977    -13890.58    10.413726    1.1339035 
    2700    239.38224   -487.85095    132762.87   -12899.149    966.15073   -13865.299    10.960114    1.1339035 
    2800    248.79622   -470.21617    132762.87   -12905.759    1004.1457   -13909.904    11.525403    1.1339035 
    2900    240.34279   -493.71437    132762.87   -12956.786    970.02754   -13926.814    12.185459    1.1339035 
    3000    236.54164   -549.11564    132762.87   -12972.396    954.68602   -13927.082    12.498168    1.1339035 
    3100    234.53254   -522.02276    132762.87   -12965.987    946.57728   -13912.564    12.735351    1.1339035 
    3200    234.15457   -627.23107    132762.87   -12993.574    945.05176   -13938.626    12.792486    1.1339035 
    3300    240.88363   -418.33616    132762.87   -12953.536    972.21039   -13925.746     12.89112    1.1339035 
    3400    234.80864   -554.61615    132762.87    -12963.94    947.69163   -13911.631    12.887262    1.1339035 
    3500     233.5388   -645.18564    132762.87   -12962.717    942.56654   -13905.284    12.943435    1.1339035 
    3600    243.41676   -460.48581    132762.87    -12944.48    982.43415   -13926.914     13.02379    1.1339035 
    3700    237.86208   -340.04335    132762.87   -12980.066    960.01535   -13940.081    13.323086    1.1339035 
    3800    239.78685   -474.96804    132762.87   -12967.801    967.78375   -13935.584    13.565926    1.1339035 
    3900    235.92009   -537.71271    132762.87   -12976.353    952.17745    -13928.53    13.617458    1.1339035 
    4000    238.93316   -636.92917    132762.87   -12986.626    964.33825   -13950.964     13.87373    1.1339035 
    4100    239.32281   -395.91742    132762.87   -12955.808     965.9109   -13921.719    14.154949    1.1339035 
    4200    244.55685   -540.66137    132762.87   -12922.443    987.03554   -13909.479    14.324966    1.1339035 
    4300     244.5421   -402.70219    132762.87   -12857.371    986.97603   -13844.347    14.690677    1.1339035 
    4400    247.15804   -584.36858    132762.87   -12869.505    997.53401   -13867.039    15.314561    1.1339035 
    4500    229.93152   -433.57717    132762.87   -12912.593    928.00749   -13840.601    15.907433    1.1339035 
    4600     244.2048   -539.58238    132762.87    -12923.13     985.6147   -13908.745    16.075554    1.1339035 
    4700    234.06851   -520.35132    132762.87   -12922.021    944.70444   -13866.725    16.239209    1.1339035 
    4800    240.42832   -759.01173    132762.87   -12904.457    970.37274   -13874.829    16.868202    1.1339035 
    4900    232.66625   -262.05035    132762.87   -12928.481    939.04491   -13867.526    16.763725    1.1339035 
    5000    236.78362   -414.87378    132762.87   -12947.601    955.66268   -13903.263    17.021359    1.1339035 
    5100    238.53974   -520.11275    132762.87   -12960.494    962.75039   -13923.245    17.287777    1.1339035 
    5200    243.15094   -682.52333    132762.87   -12950.366    981.36129   -13931.727    17.648328    1.1339035 
    5300     233.6244   -424.04065    132762.87   -12993.854      942.912   -13936.766     17.91686    1.1339035 
    5400    244.45616   -431.48434    132762.87   -12961.936    986.62916   -13948.565    18.370312    1.1339035 
    5500    236.66195    -473.1794    132762.87   -12988.695     955.1716   -13943.867    18.719744    1.1339035 
    5600    232.83913   -243.90815    132762.87   -12993.866    939.74263   -13933.609    19.313887    1.1339035 
    5700    243.74104   -613.26553    132762.87   -12961.679    983.74293   -13945.421     19.40273    1.1339035 
    5800    241.84891   -389.90711    132762.87   -12904.097    976.10628   -13880.203    19.661877    1.1339035 
    5900    252.54147   -607.22335    132762.87   -12932.281    1019.2616   -13951.543    19.964208    1.1339035 
    6000    231.09754   -576.93621    132762.87    -12988.22    932.71354   -13920.934    20.126268    1.1339035 
    6100    234.61916   -464.66212    132762.87     -12972.1    946.92686   -13919.027    20.100231    1.1339035 
    6200    235.13654   -477.88781    132762.87   -12949.889    949.01504   -13898.904    20.406621    1.1339035 
    6300    242.73315   -504.41307    132762.87   -12907.096    979.67507   -13886.771    20.570592    1.1339035 
    6400      242.556   -401.78357    132762.87   -12915.751    978.96011   -13894.711    20.531442    1.1339035 
    6500    238.78521   -554.14814    132762.87   -12919.868    963.74111   -13883.609    20.783974    1.1339035 
    6600    228.28979   -493.35266    132762.87   -12964.792    921.38141   -13886.173    21.103547    1.1339035 
    6700    232.80328   -455.66407    132762.87   -12985.795    939.59794   -13925.392    21.599101    1.1339035 
    6800    231.46735   -449.26491    132762.87   -12959.944    934.20612    -13894.15     21.71467    1.1339035 
    6900    234.92744   -545.02631    132762.87   -12989.818     948.1711   -13937.989     21.88647    1.1339035 
    7000    231.61695   -538.74204    132762.87   -12965.344    934.80991   -13900.154    22.345388    1.1339035 
    7100    232.03688   -642.67819    132762.87   -12889.937    936.50475   -13826.442    22.793635    1.1339035 
    7200    235.87091   -367.17493    132762.87   -12889.075    951.97896   -13841.054    22.848463    1.1339035 
    7300    229.29135   -655.94266    132762.87   -12953.666    925.42375    -13879.09    22.892108    1.1339035 
    7400    230.02006   -480.23079    132762.87   -12946.056    928.36482   -13874.421    23.390973    1.1339035 
    7500    233.74783   -519.87938    132762.87   -12965.615    943.41015   -13909.025    24.104831    1.1339035 
    7600    234.67053    -668.7004    132762.87   -12964.332     947.1342   -13911.466    24.568423    1.1339035 
    7700    229.82306   -204.71344    132762.87   -12950.903    927.56972   -13878.472    25.060353    1.1339035 
    7800    238.52799    -495.8332    132762.87   -12909.869    962.70298   -13872.572    25.331644    1.1339035 
    7900    236.30916   -649.81105    132762.87   -12897.245    953.74776   -13850.992    25.726783    1.1339035 
    8000    241.13484   -358.80062    132762.87   -12895.668    973.22428   -13868.893    26.134271    1.1339035 
    8100    238.25503   -525.18575    132762.87   -12910.961    961.60129   -13872.563    26.569344    1.1339035 
    8200     240.0891   -446.37133    132762.87   -12925.475    969.00363   -13894.479    26.824439    1.1339035 
    8300    234.58105   -659.40148    132762.87   -12937.585    946.77307   -13884.358    27.423023    1.1339035 
    8400    236.98387   -553.22812    132762.87   -12927.304     956.4709   -13883.775    27.887239    1.1339035 
    8500    237.63915   -434.75414    132762.87   -12919.069    959.11561   -13878.185    28.255827    1.1339035 
    8600    240.34589   -417.27212    132762.87   -12888.052    970.04003   -13858.092    28.610456    1.1339035 
    8700    230.98442   -496.03238    132762.87   -12947.509      932.257   -13879.766    29.114209    1.1339035 
    8800    238.33663    -209.5737    132762.87   -12897.027    961.93063   -13858.958    29.518552    1.1339035 
    8900    232.42405   -486.50176    132762.87    -12914.49    938.06736   -13852.557    29.799541    1.1339035 
    9000    246.38125   -561.48288    132762.87   -12883.662    994.39886   -13878.061    30.239015    1.1339035 
    9100    240.50551    -437.8141    132762.87   -12880.066    970.68427   -13850.751     30.54057    1.1339035 
    9200    241.96002   -411.67474    132762.87   -12913.895    976.55472    -13890.45     30.89571    1.1339035 
    9300    241.08647   -524.76978    132762.87   -12934.702    973.02906   -13907.731    31.111256    1.1339035 
    9400    240.86413   -375.69367    132762.87    -12953.13    972.13166   -13925.262    31.177595    1.1339035 
    9500    243.14446   -473.84164    132762.87   -12939.143    981.33512   -13920.478    32.010607    1.1339035 
    9600     234.5362   -604.40652    132762.87   -13002.661    946.59204   -13949.253    32.603396    1.1339035 
    9700    240.01948   -627.34637    132762.87   -12936.848    968.72264    -13905.57     33.01396    1.1339035 
    9800    229.31655   -464.11419    132762.87   -12969.826    925.52545   -13895.352    33.185535    1.1339035 
    9900    242.61092   -476.53238    132762.87     -12923.5    979.18174   -13902.682    33.498185    1.1339035 
   10000    249.58105   -620.66977    132762.87   -12869.983    1007.3133   -13877.296    33.532699    1.1339035 
Loop time of 11.84 on 64 procs for 10000 steps with 6871 atoms

Performance: 364.866 ns/day, 0.066 hours/ns, 844.598 timesteps/s
98.9% CPU use with 64 MPI tasks x no OpenMP threads

MPI task timing breakdown:
Section |  min time  |  avg time  |  max time  |%varavg| %total
---------------------------------------------------------------
Pair    | 0.0021646  | 3.8423     | 9.1303     | 165.9 | 32.45
Neigh   | 0.0074275  | 0.21664    | 0.47372    |  35.4 |  1.83
Comm    | 1.2722     | 4.7533     | 9.6052     | 117.1 | 40.15
Output  | 0.1468     | 0.14803    | 0.15018    |   0.2 |  1.25
Modify  | 0.3556     | 2.5991     | 9.2372     | 162.5 | 21.95
Other   |            | 0.2805     |            |       |  2.37

Nlocal:        107.359 ave         206 max           0 min
Histogram: 16 0 6 10 0 0 0 1 15 16
Nghost:        866.625 ave        1076 max         629 min
Histogram: 5 11 0 1 5 17 9 0 8 8
Neighs:         0.00000 ave           0 max           0 min
Histogram: 64 0 0 0 0 0 0 0 0 0
FullNghs:      11325.5 ave       24755 max           0 min
Histogram: 18 14 0 0 0 0 0 12 11 9

Total # of neighbors = 724832
Ave neighs/atom = 105.49149
Neighbor list builds = 551
Dangerous builds = 0
write_data 	    ${DIR}/data.${NAME}_eq
write_data 	    run_2/data.${NAME}_eq
write_data 	    run_2/data.ibeam_cooling_2_eq
System init for write_data ...

undump              1
unfix               4



################################################
#######         Run Simulation         #########
################################################

reset_timestep      0
timestep	    10.0
log                 ${DIR}/log.run_${NAME}
log                 run_2/log.run_${NAME}
log                 run_2/log.run_ibeam_cooling_2
