
# Set production fixes - Nose/Hoover
#
fix                 4 water temp/csvr ${START_TEMP} ${END_TEMP} 500.0 928347
fix                 4 water temp/csvr 235 ${END_TEMP} 500.0 928347
fix                 4 water temp/csvr 235 225 500.0 928347


## divide "droplet" into core and surface
#region		core_reg cylinder z 135 135 44.6 20 INF units box
#region		surface_reg cylinder z 135 135 44.6 20 INF units box side out
#group		core dynamic all region core_reg
#group		surface dynamic all region surface_reg

## compute pressure core
#compute        peratom_core core stress/atom NULL
#compute        p_core core reduce sum c_peratom_core[1] c_peratom_core[2] c_peratom_core[3]
#variable       press_core equal -(c_p_core[1]+c_p_core[2]+c_p_core[3])/(3*1249982.5)


## compute pressure surface
#compute        peratom_surf surface stress/atom NULL
#compute        p_surf surface reduce sum c_peratom_surf[1] c_peratom_surf[2] #c_peratom_surf[3]
#variable       press_surf equal -(c_p_surf[1]+c_p_surf[2]+c_p_surf[3])/(3*42395)

## compute total pressure of drop
compute        peratom water stress/atom NULL
compute        p water reduce sum c_peratom[1] c_peratom[2] c_peratom[3]
variable       press equal -(c_p[1]+c_p[2]+c_p[3])/(3*58301)


# compute order parameter
compute        3 all orientorder/atom nnn NULL cutoff 3.5

# compute center of mass of bridge
compute 	4 water com

# Run simulation
thermo_style        custom step c_2 press vol etotal ke pe v_press c_1[4] c_4[*]
thermo              200
dump		     1 water custom 400 ${DIR}/prod.${NAME}.dump id type x y z vx vy vz c_3[*] c_peratom[*]
dump		     1 water custom 400 run_8/prod.${NAME}.dump id type x y z vx vy vz c_3[*] c_peratom[*]
dump		     1 water custom 400 run_8/prod.ibeam_cooling_8.dump id type x y z vx vy vz c_3[*] c_peratom[*]
run                 ${STEPS}
run                 4000000
Neighbor list info ...
  update every 1 steps, delay 0 steps, check yes
  max neighbors/atom: 2000, page size: 100000
  master list distance cutoff = 6.67472
  ghost atom cutoff = 6.67472
  binsize = 3.33736, bins = 48 11 12
  2 neighbor lists, perpetual/occasional/extra = 1 1 0
  (1) pair sw, perpetual
      attributes: full, newton on
      pair build: full/bin/atomonly
      stencil: full/bin/3d
      bin: standard
  (2) compute orientorder/atom, occasional, copy from (1)
      attributes: full, newton on
      pair build: copy
      stencil: none
      bin: none
Per MPI rank memory allocation (min/avg/max) = 6.147 | 6.691 | 7.319 Mbytes
Step c_2 Press Volume TotEng KinEng PotEng v_press c_1[4] c_4[1] c_4[2] c_4[3] 
       0    240.56549   -273.58232    229018.04   -21165.493    1593.3518   -22758.845   -566.58172    30.157287    78.594944    15.907567     29.67424 
     200    231.63102   -364.81694    229018.04   -21214.477    1534.1756   -22748.653   -938.60393    32.251721    78.593823    15.908707    29.674838 
     400    232.20992   -267.90666    229018.04   -21220.277    1538.0099   -22758.287   -539.65224    33.144894    78.594011    15.910912    29.701272 
     600    229.11248   -254.57912    229018.04   -21315.413    1517.4944   -22832.908    -536.7117    34.739296    78.596632    15.908992    29.711613 
     800    226.38744    -353.5267    229018.04   -21315.151    1499.4455   -22814.597   -885.42307    35.248275    78.599259    15.906489    29.712509 
    1000    233.14791   -202.92101    229018.04    -21169.13    1544.2225   -22713.352   -324.85283    36.069107    78.599762    15.905509    29.696111 
    1200    223.80365   -402.25177    229018.04   -21272.598    1482.3321    -22754.93    -1056.478    37.609923    78.600313    15.907412    29.721849 
    1400    241.99865    -342.3291    229018.04   -21138.377    1602.8441   -22741.221   -825.76649    38.702807    78.602307    15.905013    29.714627 
    1600    236.04596   -307.11013    229018.04   -21180.607    1563.4174   -22744.025    -753.5804    40.208153    78.603235    15.901068    29.713231 
    1800    230.83923   -358.11602    229018.04   -21240.916    1528.9313   -22769.848   -919.05481    42.021054    78.604248     15.90082    29.716061 
    2000    247.41386   -270.43018    229018.04   -21095.192     1638.711   -22733.903   -546.25938    43.406016    78.605664    15.900945    29.720843 
    2200    241.06665   -231.81726    229018.04   -21133.702    1596.6712   -22730.373   -463.46717    44.900266    78.606719    15.900881    29.708305 
    2400    234.46264    -373.9908    229018.04   -21186.895    1552.9304   -22739.825   -990.15873    45.137695    78.607861    15.904156     29.71014 
    2600    233.33454   -345.48139    229018.04   -21201.048    1545.4586   -22746.506   -856.34512    46.914104    78.607367    15.904581    29.734207 
    2800    239.83919   -265.98414    229018.04    -21176.34    1588.5413   -22764.882   -541.67169    49.324531    78.605479     15.90267     29.73637 
    3000    231.03887   -193.97616    229018.04   -21310.163    1530.2536   -22840.416    -269.3168    50.362001    78.606455    15.902256     29.75179 
    3200    228.52646   -217.92593    229018.04   -21314.492     1513.613   -22828.105   -371.84589    51.456241    78.606685    15.903278    29.752236 
    3400    236.85721    -370.2043    229018.04   -21277.956    1568.7906   -22846.746   -979.57356    53.375289     78.60756    15.904399    29.746122 
    3600    228.31001   -396.58024    229018.04   -21282.459    1512.1794   -22794.638   -1056.1452    54.304242    78.607441    15.907633    29.735475 
    3800    233.50099   -248.41406    229018.04   -21311.982    1546.5611   -22858.543   -499.53209    55.382387    78.607458    15.908742    29.764343 
    4000     231.6866    -126.6809    229018.04   -21328.285    1534.5438   -22862.829     4.564453    55.919211     78.60748    15.911736    29.766692 
    4200    233.54925   -265.54241    229018.04   -21246.265    1546.8807   -22793.146    -541.4573    56.585679    78.606864    15.912139    29.788702 
    4400    242.62471   -195.52506    229018.04   -21193.474    1606.9908   -22800.465   -285.64331    57.761119    78.604749    15.915196    29.777963 
    4600    234.42561   -201.06427    229018.04   -21265.986    1552.6852   -22818.671   -256.28354    58.551131    78.603157    15.915712    29.798504 
    4800    234.60502   -193.12838    229018.04   -21235.817    1553.8735    -22789.69   -280.92347    59.546334    78.601661    15.913803    29.791652 
    5000    229.64957    -170.3086    229018.04    -21296.45    1521.0518   -22817.501   -221.98367    61.038427    78.598303    15.915223    29.783675 
    5200    232.53062   -214.49211    229018.04   -21251.868     1540.134   -22792.002   -339.04288    62.425996    78.597807    15.917289    29.779461 
    5400    236.73339   -261.42457    229018.04    -21264.24    1567.9705    -22832.21   -515.68484    64.184749    78.596893    15.917559    29.784524 
    5600    229.66858   -286.54919    229018.04   -21331.418    1521.1777   -22852.596   -578.93978    65.523952    78.597538    15.914895    29.773206 
    5800    234.52291   -382.46295    229018.04   -21177.746    1553.3296   -22731.076    -998.4778    67.083333    78.598365    15.914945    29.743947 
    6000    225.04318   -365.05998    229018.04   -21327.441     1490.542   -22817.983    -958.7397    66.964461    78.601369    15.916023    29.737289 
    6200    232.33155   -457.68564    229018.04   -21254.534    1538.8155   -22793.349   -1298.9722    67.712816    78.603646    15.914508    29.748135 
    6400    231.79086   -244.17877    229018.04   -21187.282    1535.2343   -22722.517   -452.56166    68.414272    78.601519    15.914518     29.76218 
    6600    234.84998   -398.56408    229018.04    -21266.32    1555.4959   -22821.816   -1064.6768    71.354832    78.600995    15.913335    29.768103 
    6800    239.39925   -192.54671    229018.04    -21240.21    1585.6274   -22825.837    -274.0392    72.682538    78.600367     15.91318    29.756588 
    7000    231.43772   -453.80414    229018.04   -21345.054    1532.8953   -22877.949   -1316.5543    73.101206    78.597567    15.911242    29.743931 
    7200    237.10427    -412.9503    229018.04   -21266.994     1570.427   -22837.421   -1108.4761    74.708426    78.594746    15.910108       29.722 
    7400    233.79952    17.953639    229018.04   -21345.779    1548.5384   -22894.317     539.9051    76.092007    78.592339    15.912465    29.719882 
    7600    236.27287   -393.89171    229018.04   -21361.427    1564.9202   -22926.347   -1092.5174    77.299965    78.590934    15.910995    29.734891 
    7800    231.76663   -123.77308    229018.04   -21238.502    1535.0738   -22773.576   -12.305859    78.572709    78.591697    15.908141    29.731996 
    8000     238.6115   -244.35477    229018.04   -21258.775    1580.4098   -22839.185   -515.33223    79.713955    78.589659    15.904367     29.75936 
    8200    231.73361   -235.15557    229018.04     -21304.9    1534.8551   -22839.755   -459.38486    81.014505    78.590523    15.901621    29.785482 
    8400    231.07429   -328.20131    229018.04    -21314.98    1530.4882   -22845.468    -805.0877    81.352478      78.5908    15.902219    29.774859 
    8600    238.15506   -176.23939    229018.04   -21252.439    1577.3867   -22829.826   -254.59861    82.339487    78.590961    15.899726    29.778167 
    8800    232.11476   -353.01035    229018.04   -21257.994    1537.3796   -22795.373   -900.12394    82.980073    78.589778    15.898102    29.763774 
    9000    239.03743   -278.71721    229018.04   -21259.807    1583.2309   -22843.038   -646.47951    84.186831    78.588447     15.89736    29.742423 
    9200    236.30722   -368.57467    229018.04   -21335.272    1565.1478    -22900.42    -973.8545     85.44953    78.589469     15.89812    29.767182 
    9400    227.87392   -251.73392    229018.04   -21391.154     1509.291   -22900.445   -521.62681    85.972608    78.590686    15.898926    29.763854 
    9600    228.17532   -379.97993    229018.04   -21403.695    1511.2872   -22914.982   -993.61022    87.217369     78.59301    15.897509    29.750169 
    9800    234.32962   -327.72994    229018.04   -21374.081    1552.0494    -22926.13   -776.46331      87.3343    78.593213    15.898049    29.725619 
   10000     238.6222   -141.33885    229018.04     -21242.3    1580.4807   -22822.781   -44.274374    88.092409    78.592729    15.896561    29.712485 
   10200    236.58899   -329.87706    229018.04   -21277.953     1567.014   -22844.967   -849.70427    88.445373    78.591393    15.897538     29.72778 
   10400    233.12857   -353.50255    229018.04   -21328.553    1544.0944   -22872.647   -914.24233    89.419332    78.589839    15.894047    29.746787 
   10600    232.14908   -254.54806    229018.04   -21296.849    1537.6069   -22834.456   -503.93613     89.92548    78.590191     15.88978    29.732401 
   10800    234.16798   -357.83062    229018.04   -21318.493    1550.9788   -22869.472   -897.97082    90.557876    78.587891    15.889066     29.69942 
   11000    233.22357   -57.716874    229018.04   -21335.245    1544.7237   -22879.969    240.57307    91.605768    78.587099    15.887993     29.69983 
   11200    236.09302   -301.97457    229018.04   -21350.416    1563.7291   -22914.145   -651.80376     93.32599    78.585835    15.886219     29.69731 
   11400    228.16791    -235.4782    229018.04   -21339.801    1511.2382   -22851.039     -434.265    95.638975    78.586583    15.885264    29.706058 
   11600    231.31798   -224.11738    229018.04   -21285.924    1532.1023   -22818.026   -362.45352    97.405644    78.585319    15.885156    29.735489 
   11800    233.13214   -208.06002    229018.04    -21304.94    1544.1181   -22849.058   -341.86153    97.971301    78.584899    15.886531    29.722132 
   12000    240.74485   -233.98608    229018.04   -21235.719    1594.5398   -22830.259   -451.34865     98.21294    78.585013    15.884586    29.715421 
   12200    232.24099   -398.28266    229018.04   -21292.369    1538.2157   -22830.585   -1066.8179    99.628022    78.583778    15.884835    29.723882 
   12400     240.1568   -323.07025    229018.04   -21222.414     1590.645   -22813.059   -801.51181    102.70039    78.585279    15.884413    29.708425 
   12600    242.78239   -250.12878    229018.04   -21170.165    1608.0351     -22778.2   -508.09524    105.71408    78.585848    15.886894    29.724648 
   12800    235.44022   -303.83467    229018.04   -21295.602    1559.4053   -22855.007   -744.29406    107.97478    78.585154    15.892045    29.737486 
   13000    231.57459   -200.31186    229018.04   -21340.334    1533.8019   -22874.136   -265.97391    109.21587    78.583831    15.892581    29.738418 
   13200    230.37454   -215.86447    229018.04    -21286.02    1525.8535   -22811.874   -358.09858    110.71259    78.579477    15.893075    29.737558 
   13400    233.40038   -243.28905    229018.04   -21225.892    1545.8947   -22771.787   -464.07993    113.55171    78.575889    15.891888    29.746316 
   13600    235.28495   -331.84022    229018.04   -21247.625    1558.3769   -22806.002   -779.29219    116.27673    78.576274    15.894686    29.742686 
   13800    232.38049   -129.26069    229018.04   -21316.952    1539.1396   -22856.091   -3.8092114    118.12308    78.578206    15.893564    29.746482 
   14000    233.50495   -437.42791    229018.04   -21290.689    1546.5873   -22837.277   -1197.4023    119.11797    78.579503    15.893064    29.744928 
   14200    232.19542   -232.83171    229018.04   -21363.765    1537.9139   -22901.679   -427.14754    120.76808    78.579988    15.894592    29.753234 
   14400    232.18805   -221.68916    229018.04   -21423.384     1537.865   -22961.249   -339.40298    120.30451    78.582131    15.895123    29.749165 
   14600    233.69001   -281.83368    229018.04   -21355.276     1547.813   -22903.089    -598.0714    122.67202    78.582033    15.897748    29.735089 
   14800    240.27916   -433.33416    229018.04   -21325.584    1591.4554   -22917.039   -1178.0652    124.35535    78.582424    15.901083    29.705778 
   15000     232.6579   -281.68308    229018.04   -21324.128     1540.977   -22865.105   -541.58429    127.25517    78.579625    15.905446    29.699293 
   15200    227.15619    -291.7821    229018.04   -21415.349    1504.5372   -22919.886   -636.47922    127.06249    78.576927    15.909634    29.700286 
   15400    232.07423   -201.69096    229018.04    -21316.59    1537.1111   -22853.701   -286.04982    126.16288     78.57827    15.911048    29.711194 
   15600    228.61944   -507.15684    229018.04   -21369.782    1514.2288   -22884.011   -1481.4613    127.26472    78.577892    15.910516    29.712368 
   15800    238.07879   -294.99207    229018.04   -21239.514    1576.8815   -22816.395   -684.13937    128.44964    78.579069    15.909429    29.710646 
   16000    234.76205    -53.27793    229018.04   -21300.922    1554.9136   -22855.836    311.65305    128.49784    78.579322    15.909789    29.706735 
   16200    242.20972   -270.94183    229018.04   -21228.693    1604.2421   -22832.935    -579.6797    128.25325    78.578205    15.909736    29.699116 
   16400    242.68003   -273.08784    229018.04   -21252.759    1607.3572   -22860.116   -546.37234    128.15551    78.576096    15.908908    29.718614 
   16600     229.9694   -250.91668    229018.04    -21279.35    1523.1701    -22802.52   -450.48529    128.38844    78.574975    15.908579    29.729927 
   16800    231.91246   -273.29153    229018.04    -21215.26    1536.0397     -22751.3   -555.27717     128.7697    78.573558    15.908913    29.733012 
   17000    237.15932    -304.1813    229018.04   -21215.727    1570.7916   -22786.519   -651.85061     131.1909    78.574001    15.908506    29.723553 
   17200    238.76228   -298.39048    229018.04    -21240.47    1581.4085   -22821.878    -676.9085    131.98944    78.574953    15.907003    29.719397 
   17400    243.39818   -374.78671    229018.04   -21189.822    1612.1137   -22801.936   -965.21981    134.63088    78.574024    15.905869    29.726396 
   17600    240.73421   -215.45044    229018.04   -21145.691    1594.4693    -22740.16   -326.76414    135.25684     78.57211    15.902455    29.704658 
   17800    237.73109   -430.32457    229018.04   -21187.922    1574.5786     -22762.5   -1160.4852    138.28666    78.571704    15.902446    29.699188 
   18000    237.21323   -346.97285    229018.04   -21203.129    1571.1486   -22774.277   -841.90333    140.43173    78.571749    15.901929    29.709889 
   18200    236.22873    -287.3203    229018.04    -21215.87    1564.6279   -22780.498    -645.5486    141.02411    78.571229    15.904139    29.691901 
   18400    237.19404   -351.44768    229018.04   -21227.374    1571.0215   -22798.395   -907.81199    142.16328    78.571889    15.901629    29.685515 
   18600    239.32775   -145.74021    229018.04   -21167.422    1585.1539   -22752.576   -59.856439    143.48106     78.57136     15.90078    29.676788 
   18800    234.04386   -302.81023    229018.04   -21195.876    1550.1568   -22746.033   -665.87262     145.0085    78.570869    15.902278    29.665086 
   19000    229.64408   -215.66421    229018.04   -21160.569    1521.0154   -22681.585   -356.35969     146.0749    78.570221    15.904475    29.698766 
   19200    227.77769   -449.74554    229018.04   -21171.393    1508.6536   -22680.047   -1259.9667    147.57712    78.571087    15.904339    29.700533 
   19400    235.88046   -302.66166    229018.04   -21128.927    1562.3212   -22691.248   -645.16788    147.74993    78.571077    15.905969      29.6806 
   19600    236.18369   -242.23522    229018.04   -21163.767    1564.3296   -22728.097   -438.20795    149.70843    78.572629    15.902845    29.680255 
   19800    238.17837   -404.28855    229018.04   -21159.877    1577.5411   -22737.418    -1091.305    151.77323    78.571772    15.900498    29.690016 
   20000    231.76607   -439.46514    229018.04    -21207.76    1535.0701   -22742.831   -1186.8813    153.19528    78.574041    15.897344    29.689864 
   20200    239.43946   -267.17746    229018.04   -21221.351    1585.8937   -22807.245   -522.55351    152.80481    78.574688    15.898444    29.695819 
   20400    231.90438   -266.52246    229018.04    -21296.16    1535.9862   -22832.146   -516.56627    154.85824    78.573761    15.898893    29.685204 
   20600    232.59813   -242.42862    229018.04   -21234.763    1540.5812   -22775.344   -401.12864    156.92319    78.574288    15.900506    29.699962 
   20800    232.90005   -386.13475    229018.04   -21197.787    1542.5809   -22740.367   -1014.4129    159.15638    78.572627    15.899684    29.698086 
   21000    232.25277   -407.87689    229018.04   -21194.146    1538.2937    -22732.44   -1129.0097    162.12523    78.572404    15.901002    29.683085 
   21200    240.26921   -199.72415    229018.04   -21148.866    1591.3894   -22740.255   -243.82543    163.19136    78.571845    15.902799    29.648516 
   21400    226.76439   -350.14878    229018.04   -21246.155    1501.9422   -22748.097   -862.82593    164.62807    78.571532    15.904438    29.660004 
   21600    245.17902   -275.06085    229018.04   -21193.748    1623.9089   -22817.657   -520.29365    164.87756     78.57125    15.905576    29.646388 
   21800    234.56819   -293.38074    229018.04   -21195.546    1553.6295   -22749.176   -647.00779    165.74813    78.570361    15.907915    29.661565 
   22000    234.30247   -451.82577    229018.04   -21219.128    1551.8696   -22770.998    -1221.056    166.22787    78.569671    15.908796    29.669528 
   22200    234.61657   -185.98763    229018.04   -21214.177      1553.95   -22768.127   -214.10213    165.91144    78.569965     15.90719    29.675907 
   22400     231.0105   -262.70712    229018.04   -21269.141    1530.0657   -22799.207   -483.63091    167.28725    78.569436    15.907802    29.671438 
   22600    233.48575   -275.96987    229018.04   -21288.393    1546.4601   -22834.853   -594.29532    167.88117    78.569083    15.908127     29.67545 
   22800    234.65443   -257.88809    229018.04   -21253.033    1554.2008   -22807.234   -540.50416    169.39294    78.570523    15.909603    29.667466 
   23000    230.84906   -288.90179    229018.04   -21309.282    1528.9964   -22838.279   -580.69063    170.55862    78.569816     15.90996    29.696427 
   23200    229.02484   -369.85447    229018.04   -21333.172     1516.914   -22850.086   -949.51068    170.88064    78.568587    15.909856    29.688564 
   23400    239.22368   -165.65803    229018.04   -21251.475    1584.4645   -22835.939   -106.05947    170.21957    78.568295    15.907348    29.683128 
   23600    227.94369    -312.5107    229018.04   -21346.031    1509.7531   -22855.784    -723.1703    171.28329    78.570479    15.904902    29.672059 
   23800    235.68222   -286.45331    229018.04   -21371.065    1561.0082   -22932.073   -643.77104    172.29077    78.569074     15.90507    29.651482 
   24000    238.42095   -219.36538    229018.04   -21273.736    1579.1478   -22852.884   -339.11965    173.48477    78.569895    15.904807    29.633739 
   24200    234.00651   -344.69707    229018.04   -21322.237    1549.9094   -22872.146   -847.46606    175.57897     78.57106    15.903879     29.62032 
   24400    235.16415    -253.6918    229018.04     -21283.8    1557.5768   -22841.377   -474.22965    175.17547    78.573487    15.902605    29.625642 
   24600    235.19593   -260.84543    229018.04   -21339.282    1557.7873   -22897.069   -533.99637    177.46862    78.574934    15.899226    29.620297 
   24800    234.53303   -449.08988    229018.04   -21321.464    1553.3967    -22874.86   -1236.4802    178.54555    78.575425    15.899106    29.601969 
   25000    236.77009   -244.45689    229018.04   -21303.378    1568.2135   -22871.592   -421.52385    178.70166    78.576948      15.9004    29.597757 
   25200    238.10907   -230.46526    229018.04   -21244.808    1577.0821    -22821.89   -406.00393    179.24003    78.576358    15.899196     29.60092 
   25400    238.27333   -280.81196    229018.04   -21254.148      1578.17   -22832.318   -566.34948    180.82114    78.575935     15.89891    29.609474 
   25600    237.89309   -317.46181    229018.04     -21216.6    1575.6515   -22792.252   -712.24037    181.68557    78.577154    15.899754    29.608847 
   25800     234.7426   -317.86035    229018.04   -21253.274    1554.7847   -22808.059   -733.01909    181.63924    78.579381    15.901061    29.607197 
   26000    232.57684   -349.48982    229018.04   -21276.009    1540.4401   -22816.449   -884.23296    183.03507    78.578593    15.901174    29.624688 
   26200    231.36069   -179.51589    229018.04   -21244.876    1532.3851   -22777.261   -211.01932    186.34284    78.575557    15.904661    29.639111 
   26400    230.70601   -270.90019    229018.04   -21291.956    1528.0489   -22820.005   -554.10798    186.04068    78.575112    15.907709    29.647169 
   26600    230.78658   -223.27591    229018.04   -21240.768    1528.5826   -22769.351   -350.80128    186.55834    78.574439    15.907356    29.638106 
   26800    237.77878   -391.58419    229018.04   -21199.387    1574.8944   -22774.281   -1035.7787    186.20132    78.574438    15.907562    29.642171 
   27000    239.63885   -212.31232    229018.04   -21194.605    1587.2144   -22781.819    -368.6076    188.23374    78.573506    15.909056    29.626287 
   27200    239.68724   -395.59656    229018.04   -21135.619    1587.5349   -22723.154   -1078.0205    192.13903    78.573003    15.907672    29.620582 
   27400    235.76285   -221.71525    229018.04   -21208.628    1561.5422    -22770.17   -351.02122    192.19149    78.572211    15.907199    29.639555 
   27600    232.88763   -382.92763    229018.04   -21217.319    1542.4986   -22759.817   -989.49209    193.06829    78.571458    15.906328     29.64142 
   27800    224.56543   -409.50188    229018.04   -21319.183    1487.3777   -22806.561   -1096.2715    195.52416     78.57223    15.907269    29.633278 
   28000    231.20743   -288.60789    229018.04   -21260.847      1531.37   -22792.217   -641.65189    196.93586    78.572939    15.906971    29.639659 
   28200    239.31989   -355.95012    229018.04   -21186.424    1585.1018   -22771.526   -909.07974    199.04832    78.575006    15.908327    29.637212 
   28400    240.88793   -319.46983    229018.04   -21168.719    1595.4875   -22764.206   -779.53394    200.89562    78.577305    15.907335    29.640527 
   28600    236.88087   -401.70771    229018.04   -21173.874    1568.9473   -22742.822    -1047.123    201.90926    78.577516     15.90675     29.62453 
   28800     234.8235   -382.57197    229018.04   -21248.259    1555.3206   -22803.579   -971.50465    201.82507     78.57763    15.910688    29.627818 
   29000    236.40032   -238.65749    229018.04   -21194.193    1565.7644   -22759.957   -411.66429    201.63991    78.575972    15.913845    29.636993 
   29200    231.40273   -385.39954    229018.04   -21225.649    1532.6636   -22758.313   -985.11439    202.92536    78.576526    15.916989    29.653073 
   29400    236.29028   -340.23133    229018.04   -21167.623    1565.0356   -22732.658   -813.53254    206.53756    78.575956    15.915704    29.669401 
   29600    233.16101   -415.31285    229018.04   -21212.493    1544.3093   -22756.803   -1097.2918    209.76662    78.575461    15.917432    29.662647 
   29800    237.11215   -291.51107    229018.04   -21178.175    1570.4791   -22748.654    -641.2704    211.19897    78.576871    15.918234    29.673848 
   30000    233.01317   -290.25396    229018.04    -21238.25    1543.3301    -22781.58   -584.06297    211.07252    78.578473    15.920685    29.667513 
   30200    228.63526   -145.08269    229018.04   -21265.608    1514.3336   -22779.941    -42.94439    212.13284    78.580246    15.922835    29.671965 
   30400     234.1001    -469.5318    229018.04   -21307.516    1550.5292   -22858.046   -1324.7132    212.70116    78.581051    15.921806    29.656559 
   30600    225.65809   -318.38289    229018.04   -21391.864    1494.6148   -22886.478   -737.33201    213.69633    78.581879    15.919529    29.644607 
   30800    231.92612   -280.97176    229018.04   -21313.095    1536.1302   -22849.225   -640.37893    214.47878      78.5841    15.919296    29.647762 
   31000    236.53957   -173.90265    229018.04   -21276.948    1566.6867   -22843.635   -182.07966    215.86348    78.584632    15.919419    29.627647 
   31200      237.385   -347.30991    229018.04   -21214.807    1572.2863   -22787.093   -862.63656    218.66785    78.586461    15.921283    29.639574 
   31400    237.46163    -303.7889    229018.04   -21201.226    1572.7938    -22774.02   -719.32862    219.40149    78.584942    15.920628    29.641354 
   31600    237.35282   -308.25934    229018.04   -21156.951    1572.0731   -22729.024   -645.01174    219.48942    78.584922    15.920508    29.680389 
   31800    235.30065   -303.01411    229018.04   -21242.835    1558.4809   -22801.316   -710.73403    221.22044    78.585179    15.919426    29.675315 
   32000     237.9516   -274.16636    229018.04   -21232.033    1576.0391   -22808.072   -576.19173    223.27867    78.585386    15.917838    29.676852 
   32200     234.0251   -398.61844    229018.04   -21320.317    1550.0325   -22870.349   -1008.1886    225.33703     78.58658    15.919164    29.681972 
   32400    231.20842   -276.11285    229018.04   -21321.403    1531.3766   -22852.779   -576.04292    227.87236    78.587743    15.917949    29.660814 
   32600     230.3713   -247.18523    229018.04   -21343.702     1525.832   -22869.534   -437.38046    227.97519    78.588202     15.91952    29.646911 
   32800    227.62983   -372.98877    229018.04   -21318.007    1507.6743   -22825.681   -962.41217    229.70747    78.589595    15.920841    29.642908 
   33000    233.57124   -234.82113    229018.04   -21278.148    1547.0264   -22825.174   -453.60021    229.73893    78.590328    15.920078    29.634187 
   33200    232.86007   -388.11626    229018.04   -21278.022     1542.316   -22820.338   -980.37607    229.99018    78.592797    15.920444    29.641957 
   33400    239.28849   -353.38233    229018.04   -21280.391    1584.8938   -22865.284   -866.04455    229.23734    78.591152    15.919361    29.658811 
   33600    231.45129   -291.04805    229018.04   -21347.921    1532.9852   -22880.907   -621.27379    230.87259    78.591541    15.917595    29.676706 
   33800    237.16684   -308.85632    229018.04   -21247.724    1570.8413   -22818.566   -720.73988    234.04985    78.591583     15.91729    29.666787 
   34000    231.26402   -188.76901    229018.04   -21338.574    1531.7449   -22870.318   -187.90166    234.01831    78.590026    15.916768    29.669805 
   34200    228.44138   -354.79616    229018.04   -21315.657    1513.0495   -22828.706   -874.81141     235.7932    78.588736    15.917106    29.669009 
   34400    240.21441   -206.00641    229018.04   -21342.092    1591.0265   -22933.118   -304.66213    237.48405    78.590019    15.918419    29.665223 
   34600    234.95391   -327.32116    229018.04   -21320.281    1556.1843   -22876.465   -785.03408    238.23663    78.590183    15.917478    29.666942 
   34800    235.13062   -411.36235    229018.04   -21261.322    1557.3547   -22818.677   -1102.2833    238.29935    78.588364    15.914637    29.683706 
   35000    239.04507   -369.27178    229018.04   -21247.128    1583.2815   -22830.409   -931.12316    240.23723    78.589766    15.913091    29.681141 
   35200     235.0914   -217.13011    229018.04   -21284.308    1557.0949   -22841.403   -337.50693    241.28883    78.590455    15.912696    29.659969 
   35400     236.7794   -206.39761    229018.04   -21180.463    1568.2752   -22748.739   -340.00404    242.20839    78.589261    15.913033    29.661009 
   35600    232.18508   -272.62391    229018.04   -21321.221    1537.8454   -22859.067   -568.07426    242.58252    78.588524    15.913727    29.655624 
   35800    238.00099   -363.56679    229018.04   -21274.824    1576.3662    -22851.19   -932.76331    244.71938    78.588852    15.911468    29.649809 
   36000    230.60509   -265.68093    229018.04    -21386.59    1527.3805   -22913.971   -560.80166    244.36957    78.587496     15.90919    29.641401 
   36200    227.88079   -374.96359    229018.04   -21373.894    1509.3365   -22883.231   -989.10324    245.13955    78.587851    15.908088    29.623411 
   36400     239.1567   -196.65218    229018.04   -21313.445    1584.0209   -22897.466    -282.9059    245.54726    78.587444    15.909129    29.605845 
   36600    229.92964    -328.8554    229018.04   -21343.909    1522.9068   -22866.816   -798.37552    248.47979    78.585918    15.909263    29.607167 
   36800     237.3477   -389.06054    229018.04   -21311.362    1572.0392   -22883.402   -1032.3746    250.33932    78.583079    15.909917    29.620516 
   37000     233.9896    -357.7529    229018.04   -21296.663    1549.7974    -22846.46   -916.39727    250.60202    78.580824    15.913515    29.622092 
   37200    228.20153   -483.90659    229018.04   -21385.607    1511.4609   -22897.067   -1396.5773    251.81998    78.579472    15.913646    29.636454 
   37400    237.43067   -301.75428    229018.04   -21310.755    1572.5888   -22883.344   -693.34227    252.61488    78.577196    15.913742     29.63295 
   37600    237.73434   -368.09858    229018.04   -21248.756    1574.6001   -22823.356   -936.38614    254.18174    78.578185    15.913711    29.611214 
   37800    228.22447   -383.18092    229018.04   -21318.903    1511.6128   -22830.515   -1005.1362    255.04508    78.578539    15.913956    29.620929 
   38000    229.43945   -241.72315    229018.04   -21275.087    1519.6601   -22794.747   -415.84683    255.48951    78.577532    15.911167    29.617122 
   38200    230.70246   -402.15638    229018.04    -21293.02    1528.0254   -22821.045   -1053.4194    257.37339     78.57554    15.908655    29.627691 
   38400    224.13295   -224.03848    229018.04   -21272.005    1484.5132   -22756.518   -438.49492    258.64807    78.574056     15.90853    29.624456 
   38600    233.45949    -281.1544    229018.04   -21247.598    1546.2862   -22793.884   -596.83352    260.63442    78.574936    15.910658     29.61499 
   38800    234.64454   -310.58816    229018.04   -21269.786    1554.1353   -22823.921   -718.50385    262.82773    78.573398    15.909406    29.644163 
   39000    234.41622   -381.38692    229018.04   -21212.132     1552.623   -22764.755   -984.57533    264.23554    78.574009    15.907777    29.637072 
   39200    229.37716   -458.26577    229018.04    -21339.85    1519.2475   -22859.098   -1293.8106    264.49775    78.575169    15.905208    29.639682 
   39400     236.9467   -298.47636    229018.04   -21306.842    1569.3833   -22876.225    -653.2231    269.04928    78.575216    15.903235    29.606198 
   39600    233.94346   -250.54862    229018.04   -21317.512    1549.4917   -22867.004   -484.72597     269.1615    78.576925    15.902943    29.606525 
   39800    243.63414    -291.6987    229018.04   -21170.921    1613.6766   -22784.598   -629.43437    267.35598    78.576611    15.904258    29.593836 
   40000    235.01956   -374.17415    229018.04   -21319.988    1556.6191   -22876.607   -964.99528     269.1045    78.576092    15.902289     29.58118 
   40200    229.61635   -351.79372    229018.04   -21429.443    1520.8318   -22950.274   -886.73545    271.25264    78.572861    15.900602    29.586625 
   40400    231.39678   -245.30588    229018.04   -21286.187    1532.6242   -22818.811   -448.76578    272.95399      78.5705    15.901797     29.58424 
   40600    230.73066   -321.88219    229018.04    -21381.93    1528.2122   -22910.143   -745.42839    274.43815    78.568268    15.901631    29.569432 
   40800    227.95945   -314.22563    229018.04   -21366.505    1509.8575   -22876.363   -720.63666    274.08045    78.564968    15.902018    29.539265 
   41000    237.52888   -331.49104    229018.04   -21266.196    1573.2392   -22839.435   -783.97345    275.57109    78.563651    15.901898    29.529009 
   41200    239.05175   -294.42128    229018.04   -21248.228    1583.3258   -22831.553   -661.73005    277.07693     78.56398    15.900692    29.551142 
   41400    233.56639   -223.87455    229018.04   -21271.193    1546.9942   -22818.188   -371.30222    277.10222    78.565138    15.900762    29.553802 
   41600    235.99005   -303.53516    229018.04   -21170.526     1563.047   -22733.573   -657.06342    276.92225    78.561952    15.898355    29.561025 
   41800    232.06478   -370.18254    229018.04   -21249.923    1537.0486   -22786.971   -960.80693    276.32317    78.559425    15.895833    29.561893 
   42000    237.09241   -423.02017    229018.04   -21277.413    1570.3484   -22847.761   -1181.4705    277.11899    78.557699    15.893592    29.575449 
   42200    233.24777   -125.23496    229018.04   -21275.441    1544.8839   -22820.325   -2.1855197    275.17678    78.557938    15.892017    29.568904 
   42400    236.52018    -328.6633    229018.04   -21285.552    1566.5583    -22852.11   -775.87034    278.09662    78.559274    15.895172    29.550934 
   42600    230.13208   -289.66402    229018.04   -21331.582    1524.2476    -22855.83   -659.23717    279.81283    78.560018    15.896094    29.545373 
   42800    236.05137   -93.634716    229018.04   -21215.778    1563.4532   -22779.231    99.882779    280.64181    78.559712     15.89409    29.534251 
   43000     243.5881   -303.53691    229018.04   -21198.313    1613.3716   -22811.685   -711.52552     282.1662    78.559275    15.896026    29.535083 
   43200     230.2916    -342.6622    229018.04   -21252.889    1525.3042   -22778.193    -836.1399    282.50411    78.557559    15.896247    29.541099 
   43400     231.8834   -233.01207    229018.04   -21279.253    1535.8472     -22815.1   -430.98598    282.35938    78.555983    15.896976    29.552462 
   43600    237.44698   -340.60026    229018.04   -21311.193    1572.6968    -22883.89   -814.32434     283.5777    78.556795    15.895552    29.545884 
   43800    238.00824   -395.32758    229018.04   -21267.659    1576.4142   -22844.073   -1037.7097    284.73897    78.553622    15.898702    29.516769 
   44000    233.61524   -418.40086    229018.04   -21328.225    1547.3178   -22875.543   -1118.3142    285.55601    78.552248    15.898497    29.504867 
   44200    230.16347   -504.19729    229018.04   -21275.952    1524.4555   -22800.407   -1436.7849    286.15357    78.551652    15.900834    29.485979 
   44400    231.84357   -96.285793    229018.04   -21213.446    1535.5834    -22749.03    126.16339    286.22859    78.551268    15.904785    29.478464 
   44600    239.31114   -339.83124    229018.04   -21217.346    1585.0438    -22802.39   -806.71705    287.20975    78.553134    15.903444    29.482164 
   44800     235.4952   -257.65331    229018.04   -21270.293    1559.7695   -22830.062   -532.62755     287.2922    78.554631    15.902173    29.469428 
   45000    232.81063   -467.81332    229018.04   -21301.121    1541.9886   -22843.109   -1321.4096    290.51445    78.554899    15.902425    29.510794 
   45200     239.7483   -262.76177    229018.04    -21184.23    1587.9393    -22772.17   -538.62393    294.38659    78.555237    15.899612    29.514186 
   45400    233.71784   -384.93266    229018.04   -21134.419    1547.9974   -22682.416   -1019.5362    295.67621    78.554347    15.900357    29.508301 
   45600    238.61422   -159.11963    229018.04   -21158.116    1580.4279   -22738.544   -108.18928    296.78574    78.555441    15.901847    29.521376 
   45800    234.21715    -358.1927    229018.04   -21250.529    1551.3045   -22801.834   -907.48726    298.80696    78.555808    15.900848     29.53165 
   46000    234.51793   -300.09201    229018.04   -21268.027    1553.2966   -22821.324   -717.12116    297.35316    78.555939    15.900642     29.54243 
   46200    241.90204   -375.88209    229018.04   -21273.841    1602.2043   -22876.045   -981.29432    299.65623    78.555634    15.901166    29.564484 
   46400     240.3817   -323.77309    229018.04   -21272.964    1592.1345   -22865.098   -764.02382    299.96317    78.556024    15.903155     29.57635 
   46600    237.28579   -208.32703    229018.04    -21322.07    1571.6292   -22893.699    -322.4066    300.59972     78.55795    15.904825    29.575973 
   46800    236.87135   -159.90703    229018.04   -21284.332    1568.8842   -22853.216    -100.9722     301.2461    78.557173    15.907139    29.562843 
   47000    237.52544   -268.08714    229018.04   -21214.091    1573.2165   -22787.308   -542.00206    300.25667    78.558612     15.90721    29.570658 
   47200     238.6917   -364.62023    229018.04   -21265.869     1580.941    -22846.81   -930.34688    302.55006    78.558355    15.910182    29.572115 
   47400    236.66008   -344.03587    229018.04   -21291.367    1567.4849   -22858.852   -840.13905    303.65885    78.560183    15.911772    29.594874 
   47600      238.917   -519.48813    229018.04   -21223.738    1582.4333   -22806.171   -1548.6767    305.01575    78.561262    15.913466    29.579277 
   47800    235.07583   -336.23678    229018.04   -21224.921    1556.9918   -22781.913   -808.25937    306.64196    78.561217    15.913477    29.573999 
   48000    231.66677   -264.53942    229018.04   -21251.079    1534.4124   -22785.491   -532.12856    309.43537     78.55987    15.915436    29.579843 
   48200    232.67638   -197.71991    229018.04   -21255.297    1541.0994   -22796.396   -270.16917    309.47668    78.559902    15.918628    29.583969 
   48400    234.93841   -479.04084    229018.04   -21269.705    1556.0817   -22825.786   -1342.0594    308.88613    78.560298    15.917516    29.587013 
   48600    231.47284   -172.53787    229018.04   -21242.989    1533.1279   -22776.117   -165.45519     309.9377    78.561739    15.916148    29.589236 
   48800    232.07835   -290.85975    229018.04   -21204.342    1537.1384   -22741.481    -627.9147    311.75743    78.562254    15.915197    29.595003 
   49000    226.39639   -304.75152    229018.04    -21244.54    1499.5048   -22744.045   -682.01152    312.05157    78.562527    15.914964    29.621367 
   49200    239.43946   -213.99355    229018.04   -21233.488    1585.8937   -22819.382   -338.52053      313.273    78.563497    15.914532    29.595984 
   49400    241.37498   -354.70438    229018.04    -21221.64    1598.7134   -22820.353   -912.02889    314.01857    78.562816    15.913967    29.597516 
   49600    231.44201    -329.5772    229018.04   -21226.731    1532.9237   -22759.655   -786.73839    315.94314    78.562348    15.914284    29.588596 
   49800    232.72079     -264.739    229018.04   -21251.344    1541.3935   -22792.738   -566.17019    317.30426    78.559782    15.916459    29.586296 
   50000    232.42542   -228.77629    229018.04   -21220.212    1539.4372   -22759.649   -401.41794    319.54157    78.561786    15.917682    29.604439 
   50200    242.70542   -339.95701    229018.04   -21253.397    1607.5254   -22860.922   -851.25702    320.50778    78.561648    15.914759    29.611502 
   50400    234.37209   -299.82466    229018.04   -21266.915    1552.3307   -22819.246   -642.42976    320.48631    78.562306      15.9113    29.598549 
   50600    233.67609   -358.93158    229018.04   -21341.845    1547.7208   -22889.566   -895.35285     320.6974    78.562527    15.911333    29.590907 
   50800    233.99646   -198.05928    229018.04   -21358.057    1549.8428   -22907.899   -274.17756    320.95374    78.562985    15.909017    29.603023 
   51000    236.56596     -227.204    229018.04   -21297.771    1566.8615   -22864.632   -373.36952    319.44997    78.563176    15.907127    29.637005 
   51200     235.2931   -346.24405    229018.04   -21305.937    1558.4309   -22864.368   -908.87562    319.91344    78.561493    15.905626    29.656265 
   51400    234.40906   -256.73496    229018.04   -21350.523    1552.5756   -22903.099   -513.27234    321.56864    78.563068    15.906124    29.652739 
   51600    233.69421   -300.97103    229018.04   -21332.481    1547.8409   -22880.322   -693.51166    322.67568    78.561322    15.906242    29.677808 
   51800    236.26071   -291.01901    229018.04   -21313.228    1564.8397   -22878.068   -635.21893    324.29603    78.561404    15.903306    29.672423 
   52000    234.78508   -247.67422    229018.04   -21289.984    1555.0661    -22845.05    -442.0347    324.48445    78.562332    15.900015    29.689361 
   52200    232.37967   -315.11104    229018.04   -21256.944    1539.1342   -22796.078   -725.22167    324.62636    78.562968    15.901226    29.686259 
   52400    237.83029    -311.6263    229018.04    -21255.63    1575.2356   -22830.866   -726.55863    327.04855    78.561217    15.901875    29.694486 
   52600    233.15205    -252.7215    229018.04   -21234.979    1544.2499   -22779.229   -521.26728    327.45549    78.559375    15.902804     29.70063 
   52800    235.17985   -326.67733    229018.04   -21349.757    1557.6808   -22907.438   -775.42674    328.04332    78.559698     15.90423    29.706279 
   53000    232.71354   -269.99446    229018.04    -21317.13    1541.3455   -22858.476   -549.64405    326.17703    78.558743    15.904502    29.725283 
   53200    236.02283   -368.28599    229018.04   -21294.824    1563.2641   -22858.088   -974.22343    329.33071    78.556921    15.904983    29.707026 
   53400    232.28651   -324.23516    229018.04   -21267.267    1538.5172   -22805.784   -867.24486    329.55665    78.556613     15.90422    29.684627 
   53600    230.91572    -190.9963    229018.04   -21263.626    1529.4379   -22793.063   -268.94242    330.20152    78.555297    15.906604    29.682658 
   53800    237.69815   -297.36435    229018.04   -21286.435    1574.3604   -22860.796   -718.45447    329.50719    78.555664    15.907651     29.67967 
   54000    241.74928   -254.12622    229018.04   -21178.534    1601.1925   -22779.726   -483.21667    328.87787    78.555385    15.906162    29.672844 
   54200    235.63652   -243.92908    229018.04   -21284.679    1560.7055   -22845.384   -438.89071    329.71545    78.552707    15.903909    29.670793 
   54400    229.24253   -191.59835    229018.04   -21328.736    1518.3558   -22847.092   -275.94361    331.50464    78.552551    15.905587    29.677339 
   54600    236.82065   -243.49105    229018.04   -21251.443    1568.5484   -22819.991   -485.68178    332.91559    78.551974    15.905222    29.674515 
   54800    236.88737    -386.8515    229018.04   -21225.331    1568.9903   -22794.321   -1034.9928    334.11667    78.551721    15.903834    29.675565 
   55000    229.74094   -174.72657    229018.04   -21240.507    1521.6569   -22762.164    -201.4785    334.21688    78.550515    15.899154    29.667664 
   55200    233.84007   -170.87071    229018.04   -21179.208    1548.8069   -22728.015   -172.35886    336.61713    78.549081    15.900471    29.657003 
   55400    236.71499   -112.35273    229018.04   -21213.376    1567.8486   -22781.224    11.101306      336.909    78.549502    15.900462    29.662474 
   55600    237.12556   -411.35236    229018.04   -21203.649     1570.568   -22774.217   -1119.9847    337.26617    78.548145     15.90109    29.663709 
   55800    233.05018   -265.82959    229018.04   -21269.045    1543.5752   -22812.621   -512.69114    337.66755    78.547867    15.902401    29.663608 
   56000    234.84144   -263.78369    229018.04   -21268.746    1555.4394   -22824.185   -537.69649    338.52934     78.54851       15.905    29.670298 
   56200    237.63368   -297.82415    229018.04   -21207.381    1573.9334   -22781.315   -706.46172    338.55128    78.549453    15.903644    29.665492 
   56400    230.34329   -76.891779    229018.04   -21209.021    1525.6465   -22734.667    210.12769    339.32431    78.550207    15.902401    29.648518 
   56600    231.24699   -225.53474    229018.04   -21303.235     1531.632   -22834.867    -383.4083    341.64867    78.549169    15.903949    29.644284 
   56800    236.54279   -415.20435    229018.04    -21321.27     1566.708   -22887.979   -1142.6863    342.67521    78.546445    15.903343    29.656494 
   57000    232.60854   -232.58776    229018.04   -21394.983    1540.6501   -22935.633   -451.14784    343.01829    78.544373    15.905195    29.640754 
   57200    232.79931   -471.91278    229018.04   -21390.336    1541.9136    -22932.25   -1326.1255    344.76615    78.545734    15.906048    29.660793 
   57400    229.08922   -260.73148    229018.04   -21421.319    1517.3404   -22938.659   -506.07466    346.26904    78.546492    15.904967    29.683637 
   57600    235.47001     -279.726    229018.04   -21297.104    1559.6026   -22856.707   -614.75063     347.8113    78.545197    15.905523    29.690019 
   57800    236.06675   -265.63765    229018.04   -21315.144    1563.5551   -22878.699    -561.8194     347.8189    78.545388    15.906691    29.701283 
   58000    235.08863   -415.60312    229018.04   -21277.779    1557.0766   -22834.855   -1141.5824    347.17768    78.546188    15.907114    29.689477 
   58200    229.24838   -272.84482    229018.04   -21263.072    1518.3946   -22781.467   -548.93747    347.19559    78.546334    15.908424    29.693293 
   58400    231.47207   -272.02472    229018.04   -21391.672    1533.1228   -22924.795    -566.7637    348.42239    78.546032    15.909481    29.670453 
   58600     232.1079   -259.20057    229018.04   -21322.462    1537.3342   -22859.796   -506.43708    348.84227    78.544988    15.909521    29.664004 
   58800    232.82716   -198.58294    229018.04   -21345.837    1542.0981   -22887.935   -303.50997    349.34069    78.544923    15.909969    29.663937 
   59000    235.53574    -348.7302    229018.04    -21328.57     1560.038   -22888.608   -870.59333    349.67456    78.543828    15.911331    29.666103 
   59200    228.23914   -316.12176    229018.04   -21347.482      1511.71   -22859.192   -732.00906    349.79423    78.544111    15.912963    29.659064 
   59400    234.69852   -320.41342    229018.04   -21281.647    1554.4928   -22836.139   -776.27248    351.47982    78.542994    15.913922     29.67781 
   59600    238.40646   -358.64208    229018.04   -21186.334    1579.0518   -22765.386   -888.38197    354.43098    78.543389    15.918124    29.689846 
   59800      241.462    -271.7831    229018.04   -21159.559    1599.2897   -22758.849   -584.82136    353.42359    78.542223    15.920776    29.682833 
   60000    228.89465   -249.89805    229018.04   -21281.278    1516.0516    -22797.33   -503.23035    354.02157    78.541352    15.922006    29.693554 
   60200    233.69691     -205.333    229018.04   -21244.466    1547.8588   -22792.325    -276.0577    354.23769    78.539634    15.920169    29.700904 
   60400    235.74682   -248.57616    229018.04   -21319.025     1561.436   -22880.461   -534.19562    353.39299    78.538083    15.916283    29.711403 
   60600    233.48372    -407.7093    229018.04   -21335.714    1546.4467    -22882.16   -1081.6318    356.05966    78.537725    15.916263    29.741949 
   60800    234.69982   -215.45813    229018.04   -21371.178    1554.5014   -22925.679   -361.65881    356.84072    78.538475    15.914975    29.728069 
   61000    226.32939   -287.61758    229018.04   -21321.613     1499.061   -22820.674   -640.54112    359.27332    78.537948    15.916038    29.722777 
   61200    230.10103   -197.12045    229018.04   -21343.679     1524.042   -22867.721   -294.54212    359.20364    78.535234    15.915278    29.695274 
   61400    233.25402   -221.90916    229018.04   -21286.517    1544.9253   -22831.442   -348.35199    361.64835    78.534382    15.915686     29.69393 
   61600    231.92943   -277.96045    229018.04   -21263.205    1536.1521   -22799.357   -545.67507    361.20876    78.532285     15.91871    29.699834 
   61800    239.83861   -337.68088    229018.04   -21233.571    1588.5374   -22822.109   -801.10167    362.94007    78.531534    15.922317    29.695966 
   62000    225.92705   -377.30589    229018.04    -21303.38    1496.3962   -22799.776   -996.83475    362.40958    78.530761    15.924196    29.707593 
   62200     232.4289   -252.23255    229018.04   -21240.887    1539.4603   -22780.347   -497.90671    361.90887    78.529693    15.924044    29.694026 
   62400    237.68529   -449.07047    229018.04   -21187.883    1574.2752   -22762.158   -1263.3426    363.80462    78.531402    15.927022    29.686254 
   62600    235.15333    -275.4803    229018.04   -21219.775    1557.5052   -22777.281   -599.77646    364.02224    78.532273    15.928078    29.677783 
   62800    227.86663   -359.31914    229018.04   -21221.411    1509.2427   -22730.653   -905.75477    366.07268    78.531901    15.931655    29.676713 
   63000    232.19151   -503.75375    229018.04   -21256.638     1537.888   -22794.526   -1511.4206    367.30279    78.530141    15.931649    29.690312 
   63200    230.85151   -284.71228    229018.04   -21373.336    1529.0126   -22902.348   -641.61996    366.50135    78.528605    15.931206    29.687884 
   63400    232.74223   -472.51879    229018.04   -21247.673    1541.5356   -22789.209   -1351.7192    369.41614    78.526275    15.932822    29.697842 
   63600    230.56334   -358.52536    229018.04   -21241.028     1527.104   -22768.132   -936.52654    370.58322    78.526099    15.930637    29.690997 
   63800    234.53912    -431.5312    229018.04   -21198.385     1553.437   -22751.822   -1162.0507    371.36745     78.52548     15.93103    29.682353 
   64000    230.96587   -283.30566    229018.04   -21265.799    1529.7701   -22795.569   -613.34533    372.43638    78.527296    15.928731    29.699786 
   64200    238.63631   -84.854693    229018.04   -21254.141    1580.5742   -22834.716    193.93749    372.64691    78.528644    15.928807    29.716925 
   64400    236.15208    -120.0047    229018.04   -21247.163    1564.1202   -22811.283    1.4729972    374.21172    78.529269    15.926397    29.711678 
   64600     235.8139   -313.92014    229018.04   -21291.107    1561.8804   -22852.987   -742.90323     375.5187    78.531603    15.924725     29.71458 
   64800    239.22359   -252.02796    229018.04   -21170.972     1584.464   -22755.436   -507.39978    377.02186    78.531585    15.924112    29.717364 
   65000    236.07536   -233.14651    229018.04   -21252.997    1563.6121   -22816.609   -428.95276    377.25143    78.531907    15.926172    29.746929 
   65200    233.40008   -217.49468    229018.04   -21259.802    1545.8928   -22805.695   -366.10798    377.63358    78.529494    15.925946     29.72507 
   65400    240.15354   -354.65141    229018.04   -21173.116    1590.6233   -22763.739   -940.05412    379.03374    78.529235    15.922919    29.708464 
   65600    235.01475   -330.48656    229018.04   -21163.342    1556.5873    -22719.93    -805.6906    380.72437    78.530195    15.921615    29.691535 
   65800    235.07516   -417.73102    229018.04   -21254.799    1556.9874   -22811.786   -1146.8813    382.32312    78.530932    15.922026    29.699839 
   66000    231.70081   -222.04073    229018.04   -21287.491    1534.6379   -22822.129   -380.76283    383.34685     78.53227    15.922663    29.716265 
   66200    241.09508    -469.8734    229018.04   -21241.231    1596.8595    -22838.09   -1349.7489    384.23173    78.531925    15.920098    29.735055 
   66400    230.09165   -238.45197    229018.04   -21314.274    1523.9798   -22838.253   -469.51284    383.84316    78.529283    15.918297    29.750538 
   66600    234.23583   -335.58917    229018.04   -21268.915    1551.4282   -22820.344   -838.45447    384.02962     78.52918    15.917269    29.743253 
   66800    232.09337   -364.10042    229018.04   -21322.249    1537.2379   -22859.486   -879.77643    385.84444    78.530111    15.916848    29.735991 
   67000    232.83051   -326.88473    229018.04   -21275.824    1542.1202   -22817.944   -829.73725      385.183     78.52969    15.916423    29.717492 
   67200    227.38894   -216.92387    229018.04   -21344.688    1506.0788   -22850.767   -332.07857    385.22775    78.528111    15.917563    29.710473 
   67400    237.02077   -215.64146    229018.04   -21290.386    1569.8739    -22860.26   -369.03986    386.88436    78.529299    15.915284    29.707805 
   67600    232.11662   -147.40506    229018.04   -21304.957    1537.3919   -22842.349   -52.385748    387.90391    78.528764    15.911682    29.712755 
   67800    237.78868   -344.31346    229018.04   -21306.563      1574.96   -22881.523   -854.86333    389.36434    78.526746    15.910133    29.702036 
   68000    240.93948   -215.38593    229018.04   -21297.782    1595.8289   -22893.611   -338.79428     390.3534    78.525123     15.90987    29.694438 
   68200    227.43411   -286.46497    229018.04   -21339.144     1506.378   -22845.522   -653.23471    390.83685    78.522701    15.908844     29.69693 
   68400    240.95253   -212.32481    229018.04   -21200.045    1595.9153    -22795.96   -363.44368    392.73897    78.521971    15.905974    29.705119 
   68600    239.61705    -388.5697    229018.04   -21239.413    1587.0699   -22826.483   -995.05575    395.16401    78.521539    15.906075    29.704267 
   68800    235.33885   -263.33427    229018.04   -21191.648    1558.7339   -22750.382   -535.12565    396.56285    78.521267    15.906963    29.723163 
   69000    236.28817   -128.83223    229018.04    -21156.13    1565.0216   -22721.151    -6.300727    399.64684     78.51833    15.906601    29.725445 
   69200    229.33108   -472.19777    229018.04    -21183.13    1518.9423   -22702.072   -1331.8041     399.3878    78.517194    15.904966    29.750074 
   69400    233.21219   -263.73352    229018.04   -21166.023    1544.6483   -22710.671   -553.49459    400.27694    78.516224    15.906551    29.729905 
   69600    235.81543   -277.94616    229018.04   -21166.967    1561.8905   -22728.857   -614.93467    402.60444    78.516495    15.907949    29.725111 
   69800    233.94514   -330.02344    229018.04   -21168.966    1549.5029   -22718.469   -758.46271    403.72711    78.518859    15.907396    29.712132 
   70000     232.3141   -228.74193    229018.04   -21242.568    1538.6999   -22781.268   -363.38595    403.79099    78.520814    15.906539    29.708979 
   70200    233.00984   -391.57812    229018.04   -21265.307    1543.3081   -22808.615   -995.90732    406.29204    78.522443    15.906366    29.695128 
   70400    235.44017   -186.56651    229018.04   -21240.106     1559.405   -22799.511   -233.73819    406.01287    78.521878    15.904995    29.683438 
   70600      237.673    -269.1393    229018.04   -21211.535    1574.1938   -22785.729    -524.4836    409.09471    78.522919    15.902157    29.650728 
   70800    233.86758   -284.84916    229018.04   -21241.859    1548.9892   -22790.848   -618.78512     411.1191     78.52282    15.896785    29.636835 
   71000    234.36659   -351.28032    229018.04   -21189.362    1552.2943   -22741.656   -866.18237    412.58503    78.521227    15.893282    29.641461 
   71200    247.06457   -288.08655    229018.04   -21074.118    1636.3976   -22710.515   -643.61055    414.66843     78.52005    15.892676    29.649535 
   71400     239.0808   -264.13491    229018.04   -21145.381    1583.5182   -22728.899   -547.17513    415.45646    78.517279    15.891825    29.655181 
   71600    236.37347   -201.70617    229018.04   -21193.172    1565.5866   -22758.759   -298.70633    414.45587    78.519007    15.890134     29.65586 
   71800    231.56476   -286.47763    229018.04   -21201.012    1533.7368   -22734.749   -614.51473    415.02393    78.519353    15.890985    29.648077 
   72000     229.5158   -376.20715    229018.04   -21214.948    1520.1658   -22735.114   -968.32928    417.74197    78.518942    15.892849    29.645158 
   72200    235.71803   -422.93811    229018.04   -21213.945    1561.2454    -22775.19    -1183.052    417.45095    78.518195    15.894944    29.645361 
   72400    233.13733   -215.71136    229018.04   -21189.414    1544.1524   -22733.566   -331.95135    419.04131    78.515922    15.895198    29.652043 
   72600     234.9858   -307.75418    229018.04   -21234.247    1556.3956   -22790.643   -692.08134    418.91168     78.51521     15.89481    29.657517 
   72800    227.67631   -203.87148    229018.04    -21281.38    1507.9822   -22789.362   -300.75148    418.66516    78.512402    15.890718    29.634252 
   73000    237.20581   -299.08413    229018.04   -21313.419    1571.0995   -22884.519    -655.7548    421.34905    78.511911    15.888283     29.62339 
   73200    238.88487   -310.23756    229018.04   -21214.857    1582.2204   -22797.077   -723.84236    420.47718    78.512977    15.886869    29.623109 
   73400    232.14694   -343.70444    229018.04   -21225.628    1537.5927   -22763.221   -851.26956    420.21142    78.513396    15.887407    29.593752 
   73600    231.38286   -445.89616    229018.04   -21250.455     1532.532   -22782.987     -1238.97     423.8012    78.509834    15.888101    29.603435 
   73800    236.46555   -341.26872    229018.04   -21204.768    1566.1964   -22770.964   -827.46046    422.63166    78.508035    15.889754    29.571442 
   74000    238.21714   -248.46414    229018.04   -21130.651    1577.7979   -22708.449   -465.53672    422.55604    78.507916    15.887339    29.562508 
   74200    237.67952   -282.24803    229018.04   -21217.076     1574.237   -22791.313   -641.32483    424.46689    78.507915    15.887142    29.559724 
   74400     234.6129   -262.60844    229018.04   -21268.913    1553.9257   -22822.839   -541.89583    425.09243    78.508927    15.885804    29.563635 
   74600    237.45431   -228.09571    229018.04   -21283.967    1572.7454   -22856.712    -411.3466    423.51545    78.508933     15.88776    29.591138 
   74800     233.4323   -457.69924    229018.04   -21208.853    1546.1061   -22754.959   -1317.6038    425.12403    78.508168    15.889686    29.587126 
   75000    238.92441   -269.04147    229018.04   -21238.974    1582.4823   -22821.457   -534.04212    425.98788    78.504105    15.890453    29.600708 
   75200    232.99212   -165.28262    229018.04    -21247.39    1543.1906   -22790.581   -182.93329    425.49964    78.502418     15.88792    29.618652 
   75400    237.20485   -374.34841    229018.04   -21214.922    1571.0931   -22786.015   -1010.2109    426.70082    78.503706    15.889435    29.628654 
   75600    240.85077   -395.40486    229018.04   -21212.651    1595.2413   -22807.892   -1071.3849    427.31497    78.505005    15.889798    29.609489 
   75800     240.3095   -186.58171    229018.04   -21249.163    1591.6563   -22840.819   -257.33591    428.21554    78.504846    15.890206    29.599311 
   76000    231.14626   -293.80988    229018.04   -21249.347    1530.9649   -22780.312   -667.19933    429.19414    78.504417    15.894716    29.619248 
   76200    229.85286   -342.91624    229018.04   -21278.566    1522.3982   -22800.965   -901.93092    428.68646    78.504811    15.896337    29.633873 
   76400    224.91003   -265.08488    229018.04   -21298.527    1489.6601   -22788.187   -584.62054    429.75805     78.50325    15.896862    29.655377 
   76600    236.28546   -264.68001    229018.04   -21242.837    1565.0036    -22807.84   -523.62673    430.53898    78.503239    15.896397    29.663023 
   76800    237.20156   -244.29585    229018.04   -21165.765    1571.0713   -22736.837   -462.35159    430.27786    78.502693    15.894751    29.674483 
   77000    232.37622   -246.47987    229018.04   -21270.572    1539.1113   -22809.683   -470.90826    432.40472    78.502393    15.891887    29.680934 
   77200    240.81253   -174.05479    229018.04   -21274.631     1594.988   -22869.619   -192.90411    432.79631     78.50218    15.889857    29.670719 
   77400    233.39137     -422.177    229018.04   -21267.031     1545.835   -22812.866   -1189.5978    433.77515    78.502562    15.888617    29.654496 
   77600    233.79216   -345.86552    229018.04   -21235.806    1548.4896   -22784.296   -863.35041    435.04044    78.502165    15.888004    29.662076 
   77800    234.25948   -300.01473    229018.04   -21261.884    1551.5849   -22813.469   -681.48087    435.35509    78.500614     15.88708    29.691344 
   78000    233.18552   -278.86614    229018.04   -21322.509    1544.4716   -22866.981   -626.81836    436.73376     78.50168    15.886956    29.708736 
   78200    230.89571   -260.78158    229018.04   -21240.008    1529.3054   -22769.313    -505.0239    438.25499    78.506408    15.882817    29.694676 
   78400    233.47893   -185.38677    229018.04     -21250.6     1546.415   -22797.015    -236.3675    437.09478    78.508483    15.880973    29.670741 
   78600    236.34211   -338.37366    229018.04    -21324.86    1565.3789   -22890.239   -801.50318     439.5964    78.510455    15.883633    29.626835 
   78800    230.51085   -325.66855    229018.04   -21306.824    1526.7564    -22833.58   -748.11108    440.13229    78.510812    15.886194    29.634819 
   79000    235.80475   -442.03213    229018.04   -21276.127    1561.8198   -22837.947   -1268.3837    441.24097    78.512327    15.885916    29.654623 
   79200    238.20614   -304.97794    229018.04   -21279.038     1577.725   -22856.763   -681.63952    442.33392    78.512956    15.884641    29.657893 
   79400    231.57049   -420.82538    229018.04   -21323.644    1533.7747   -22857.418   -1196.5319    444.36395     78.51292      15.8795    29.665078 
   79600    233.31937   -154.43493    229018.04   -21285.467    1545.3582   -22830.826   -139.02123    443.93964    78.513228    15.875741    29.655844 
   79800    233.60749   -286.12695    229018.04     -21271.5    1547.2665   -22818.766   -588.63102    444.72344    78.511994    15.875093    29.663318 
   80000    230.73788   -357.61082    229018.04   -21297.296    1528.2601   -22825.556   -890.73684    445.27796    78.514722    15.873832    29.633769 
   80200    234.88479    -151.4677    229018.04   -21306.832    1555.7265   -22862.558   -97.220063     446.9733    78.517995    15.874525    29.622085 
   80400    226.79817    -422.7349    229018.04    -21351.31    1502.1659   -22853.476   -1125.0656    446.73192    78.519033    15.875967    29.629889 
   80600    244.51754   -482.04281    229018.04   -21177.525    1619.5277   -22797.052   -1385.6306    448.11998    78.517691    15.875249    29.604055 
   80800    234.31061   -245.95279    229018.04   -21268.667    1551.9235    -22820.59   -466.69311    448.02276    78.515073     15.87237    29.602014 
   81000    240.61037   -399.34603    229018.04   -21246.563    1593.6491   -22840.212   -1092.0178    447.90017    78.515883    15.869581    29.602655 
   81200    234.94197   -161.90691    229018.04   -21226.279    1556.1052   -22782.384   -130.23529    446.94026    78.516097    15.868061    29.617988 
   81400     231.8584   -225.92765    229018.04   -21313.357    1535.6816   -22849.039   -411.50451     449.2919    78.514785    15.865655    29.625547 
   81600    235.49809   -362.98724    229018.04   -21180.494    1559.7886   -22740.283   -910.97585    449.23352    78.515206    15.867142    29.629332 
   81800    241.00956   -326.73328    229018.04   -21184.212     1596.293   -22780.505   -797.56382    453.18463    78.516828    15.866142    29.628833 
   82000    244.34227   -213.85812    229018.04   -21150.887    1618.3668   -22769.254   -369.40509    452.97874    78.520542    15.865236    29.630714 
   82200    233.11723   -369.44221    229018.04   -21277.031    1544.0193   -22821.051   -956.61298    453.36102    78.522623    15.861675    29.622488 
   82400    235.06751   -257.50574    229018.04   -21304.826    1556.9368   -22861.763   -493.18328    454.76527    78.522865    15.860704    29.611251 
   82600    243.43824   -280.33025    229018.04   -21295.658    1612.3791   -22908.037   -607.74311    454.20503    78.522432     15.86019    29.611678 
   82800    241.57236   -425.24268    229018.04   -21279.265    1600.0207   -22879.286   -1209.6807    454.70779    78.520165    15.860729    29.607445 
   83000    234.71083    -256.7403    229018.04   -21328.358    1554.5743   -22882.932   -491.84332    455.99777    78.518614    15.862763    29.606438 
   83200    230.74243   -293.42865    229018.04   -21361.854    1528.2901   -22890.144   -642.10718    459.37665    78.518899    15.860526     29.60011 
   83400    233.79596   -310.44348    229018.04   -21316.864    1548.5148   -22865.378   -720.74784    462.19232    78.519795    15.857778    29.598986 
   83600    232.15008   -344.83786    229018.04   -21283.972    1537.6136   -22821.586   -872.86919    461.55062    78.522056    15.859529     29.60071 
   83800    232.69668   -330.32466    229018.04   -21298.859    1541.2339   -22840.093   -815.29557    464.17151    78.522142    15.862061    29.593019 
   84000    226.43875   -214.31361    229018.04   -21317.281    1499.7854   -22817.066   -352.46286    464.71304    78.523121    15.859891    29.589973 
   84200    230.76259   -211.57618    229018.04   -21321.519    1528.4237   -22849.943     -304.805    464.34405    78.523546    15.859831    29.608054 
   84400    231.61605     -310.571    229018.04   -21259.363    1534.0765    -22793.44   -765.81109    466.41573    78.524808    15.856061    29.617796 
   84600    235.73643   -240.34341    229018.04   -21274.906    1561.3672   -22836.273   -479.35158    467.96275    78.525303    15.856153    29.632456 
   84800    230.37833   -218.83749    229018.04   -21307.939    1525.8786   -22833.818   -372.71421    466.03708    78.526138    15.856225    29.626409 
   85000    238.66446   -375.58556    229018.04   -21261.523    1580.7607   -22842.284   -980.72905    469.36764    78.525605    15.857083    29.639005 
   85200    240.51258   -253.17894    229018.04   -21200.548    1593.0014   -22793.549   -519.52272     469.3105    78.524091     15.85852    29.635867 
   85400    231.74083   -356.38281    229018.04   -21234.979     1534.903   -22769.882   -875.68474    469.05495    78.521437    15.857909    29.620394 
   85600    230.98151   -350.23675    229018.04   -21211.014    1529.8737   -22740.888   -898.02473     471.7198    78.521343    15.859842    29.613195 
   85800    232.80012    -198.0157    229018.04   -21201.178     1541.919   -22743.097   -255.06284    471.14733    78.523167    15.863075    29.604679 
   86000    236.26484   -204.79025    229018.04   -21173.484     1564.867   -22738.351   -331.39996    470.87192    78.523671    15.865189    29.612053 
   86200    236.79014   -380.14272    229018.04   -21257.768    1568.3463   -22826.115   -980.17848    474.07992    78.525228    15.865246    29.593306 
   86400    240.53661   -348.49843    229018.04   -21265.857    1593.1606   -22859.017   -905.21353    474.62122    78.523441    15.866216    29.606679 
   86600    240.74547   -408.49118    229018.04   -21215.338    1594.5439   -22809.882   -1122.2407    476.47709    78.522744    15.870025    29.589392 
   86800     229.0861   -143.09635    229018.04   -21268.458    1517.3197   -22785.778   -79.794203    477.33904    78.524592    15.869387    29.575075 
   87000     227.0153   -322.30371    229018.04   -21286.078     1503.604   -22789.682     -795.833     479.4844    78.526311    15.867562    29.582608 
   87200    234.60218   -340.61457    229018.04   -21250.236    1553.8547    -22804.09     -846.709    481.37053     78.52644    15.864055     29.59603 
   87400    239.57188   -247.16489    229018.04   -21231.213    1586.7708   -22817.984   -468.10444    483.55004    78.525805    15.862497    29.620643 
   87600       242.19   -237.95464    229018.04   -21189.545    1604.1115   -22793.656    -441.3329    484.32669    78.525304    15.860986    29.631202 
   87800    228.91783   -263.16784    229018.04   -21336.703    1516.2052   -22852.908   -530.85955    485.68079    78.525663    15.863286    29.641335 
   88000    236.72773    -173.1567    229018.04   -21181.154    1567.9329   -22749.087    -200.3326    485.04318    78.525836    15.864012    29.653991 
   88200    246.63993   -227.26403    229018.04   -21127.195     1633.585    -22760.78   -433.73509    487.98728    78.525118    15.864423    29.690206 
   88400    237.96017    -317.4412    229018.04   -21182.458    1576.0959   -22758.554   -725.35246    489.00815    78.525618    15.864389    29.684742 
   88600     229.7594   -376.60761    229018.04   -21315.468    1521.7792   -22837.247   -982.78842    490.65486    78.526752    15.866073    29.670684 
   88800    235.05719   -211.72248    229018.04   -21343.213    1556.8684   -22900.081   -362.46966    491.60528    78.525567    15.865105    29.687152 
   89000    232.59906   -328.93866    229018.04   -21385.441    1540.5873   -22926.028   -798.60528    494.30564    78.525108    15.867115    29.678689 
   89200    232.30363   -390.06486    229018.04   -21308.484    1538.6305   -22847.115   -1034.1574     495.8587    78.525652    15.868733    29.703806 
   89400    235.01621   -194.94091    229018.04   -21253.289    1556.5969   -22809.886   -297.81753    493.78525    78.524083    15.865763    29.709198 
   89600    230.08383   -385.67968    229018.04   -21356.036     1523.928   -22879.964   -1056.7434    497.36049    78.524605    15.864617    29.721076 
   89800    233.54525   -358.68676    229018.04   -21302.585    1546.8542   -22849.439   -917.78733    499.66001    78.525563    15.865075    29.730285 
   90000    233.31033   -272.41779    229018.04   -21226.419    1545.2983   -22771.718   -603.82739    500.69585    78.527682    15.864776      29.7444 
   90200    232.89545   -323.37794    229018.04   -21263.637    1542.5504   -22806.188   -773.46461    499.70465    78.529041    15.863898    29.756035 
   90400    226.23888   -219.52355    229018.04   -21297.219    1498.4616    -22795.68   -368.80838    502.06111    78.531223    15.865377    29.735897 
   90600    236.39775   -266.00075    229018.04    -21280.77    1565.7474   -22846.518   -557.85732    501.67613    78.532616    15.865161    29.725781 
   90800    242.85691    -311.0668    229018.04   -21147.009    1608.5287   -22755.537   -765.09025     502.9646    78.532985     15.86254    29.689033 
   91000    230.98863   -272.66045    229018.04   -21252.121    1529.9208   -22782.042   -551.62832    501.26666    78.532388    15.860744     29.68358 
   91200    233.19268   -228.88582    229018.04   -21275.449     1544.519   -22819.968    -415.8051    502.40266    78.530361    15.856619    29.682944 
   91400    230.13352   -202.51292    229018.04   -21236.145    1524.2571   -22760.402   -318.87916    504.42682    78.529699    15.854173    29.654313 
   91600    241.12982   -257.75603    229018.04   -21194.318    1597.0896   -22791.407   -491.45374    504.94512    78.529289     15.85279    29.630945 
   91800     236.5119   -281.27479    229018.04   -21171.773    1566.5035   -22738.277   -631.24918    508.70693    78.530455    15.850796    29.637478 
   92000    236.02818   -359.84093    229018.04   -21224.854    1563.2996   -22788.154   -912.88918    509.62658     78.53406    15.850703    29.631642 
   92200    232.23254   -299.55958    229018.04   -21274.753    1538.1597   -22812.913   -711.47043    509.89748    78.536199    15.849231    29.648011 
   92400    235.22692   -312.46454    229018.04   -21220.154    1557.9926   -22778.147   -760.39421    513.38541    78.535304    15.847044     29.66396 
   92600    235.72316   -240.89956    229018.04   -21214.845    1561.2793   -22776.125   -469.43307    514.89321    78.534959    15.846462    29.665433 
   92800    232.34519   -234.94799    229018.04   -21271.159    1538.9058   -22810.065   -490.13497     516.3523    78.534098    15.845507    29.651326 
   93000    231.60632   -217.88453    229018.04     -21304.4     1534.012   -22838.412   -383.34022    518.19476     78.53326    15.844372    29.662309 
   93200    238.25707   -316.03466    229018.04   -21238.532    1578.0623   -22816.595    -769.3511    520.16011    78.534128    15.844684    29.657953 
   93400     233.8191   -246.80727    229018.04   -21322.457     1548.668   -22871.125   -466.93786    518.59909     78.53452    15.842201    29.653828 
   93600    230.89688   -294.89889    229018.04   -21319.657    1529.3131    -22848.97   -693.61684    518.55106    78.533958    15.844181    29.638802 
   93800    234.75592   -302.29614    229018.04   -21207.907     1554.873    -22762.78   -735.42569    520.02459    78.533963    15.842819    29.639393 
   94000    239.00362   -369.77882    229018.04   -21243.957     1583.007   -22826.964   -949.90669    521.39558    78.532666    15.842453    29.632655 
   94200    237.04952   -493.51101    229018.04   -21283.898    1570.0643   -22853.962   -1443.6706    520.49355    78.533167    15.843855    29.608002 
   94400    242.18241   -434.26165    229018.04   -21187.054    1604.0613   -22791.115   -1227.5633    521.37613    78.531639    15.842663    29.624455 
   94600    230.11065   -272.29253    229018.04   -21241.892    1524.1057   -22765.997   -542.59696    521.55041     78.53147    15.838295     29.61845 
   94800    237.49609   -287.82311    229018.04   -21157.457    1573.0221   -22730.479   -643.68977     521.6882    78.533749    15.839348    29.635316 
   95000    237.01964   -274.13418    229018.04   -21151.729    1569.8664   -22721.596   -601.20844    522.80737    78.534171     15.83747    29.646191 
   95200    232.77442   -357.59668    229018.04   -21240.928    1541.7488   -22782.676   -944.92353    523.45607     78.53512     15.83488    29.625307 
   95400     240.4963   -374.34892    229018.04   -21311.083    1592.8936   -22903.976   -1005.3988     525.5382    78.535128    15.835051    29.599355 
   95600    229.81104   -49.984184    229018.04   -21325.584    1522.1212   -22847.705    245.96424    524.82203     78.53507    15.830177     29.61007 
   95800    232.84731    -239.2147    229018.04   -21247.666    1542.2316   -22789.897   -453.42527    526.58336    78.533895    15.829218     29.59516 
   96000    234.68668   -395.24639    229018.04   -21278.345    1554.4143    -22832.76   -1092.2304      525.753    78.534007    15.830887    29.596108 
   96200     228.0235   -247.59522    229018.04   -21307.572    1510.2817   -22817.854   -479.11988    527.26811    78.531889    15.833549    29.593185 
   96400    234.70362   -317.43655    229018.04   -21231.493    1554.5266    -22786.02   -782.87653    527.90967    78.530169    15.834436    29.594398 
   96600    233.95946   -336.23509    229018.04   -21322.536    1549.5977   -22872.134   -833.80097    527.39734    78.528939    15.836513    29.611924 
   96800    229.85135   -273.64076    229018.04   -21314.372    1522.3882    -22836.76   -551.37584    529.22232    78.527143    15.838283    29.618994 
   97000    226.76207   -355.63557    229018.04   -21275.525    1501.9268   -22777.452   -972.01538     529.7041    78.524993    15.840128    29.641037 
   97200    237.05227   -448.10956    229018.04   -21218.428    1570.0825   -22788.511   -1253.5656    532.74423    78.523255    15.841695    29.651537 
   97400    233.69518   -249.86904    229018.04   -21216.994    1547.8473   -22764.841   -504.02643    533.69279    78.522975     15.83999    29.636442 
   97600     238.5549   -177.18132    229018.04   -21210.683     1580.035   -22790.718   -195.98339    532.78085    78.524547    15.839346    29.630009 
   97800    229.52122   -267.28178    229018.04    -21272.05    1520.2016   -22792.251   -593.94509    532.22158    78.524097    15.839249    29.663821 
   98000    226.60943   -309.61334    229018.04   -21326.294    1500.9158    -22827.21   -756.60269    532.91056    78.520535    15.839092    29.653482 
   98200    232.95361   -266.32557    229018.04    -21321.74    1542.9356   -22864.675   -542.63734    534.64741    78.519177    15.838418    29.666697 
   98400    236.16739   -288.55521    229018.04   -21286.676    1564.2216   -22850.898   -652.51022    536.53309    78.518414    15.838722    29.676163 
   98600    238.90859   -190.16838    229018.04   -21243.363    1582.3776    -22825.74   -266.40949    537.81351    78.518036    15.838201    29.681861 
   98800    238.49321   -211.31977    229018.04   -21134.048    1579.6264   -22713.674   -393.36091    539.53762    78.516608    15.840179    29.666987 
   99000    233.75246   -282.58578    229018.04   -21135.396    1548.2267   -22683.622   -601.66233    541.28418    78.516743    15.842007      29.6433 
   99200      239.693    -376.0722    229018.04   -21182.377     1587.573    -22769.95   -979.48684    544.23901    78.518214    15.842146    29.628801 
   99400    229.69679   -287.01823    229018.04   -21260.038    1521.3645   -22781.402   -656.44185    544.24022    78.518468    15.843134    29.617078 
   99600    232.74817   -145.48103    229018.04   -21229.517    1541.5749   -22771.092    -122.7024    548.08836    78.520075    15.842965    29.612472 
   99800    238.32967   -224.00028    229018.04   -21218.922    1578.5432   -22797.465   -432.53583    549.59122    78.520917    15.842707    29.599068 
  100000    231.73487   -117.70157    229018.04   -21251.146    1534.8634    -22786.01    41.993938    549.51344    78.520536    15.842282    29.605881 
  100200     242.4172    -190.7205    229018.04   -21170.648    1605.6163   -22776.265   -238.67422    549.45879    78.520778    15.837561    29.624463 
  100400    236.46043   -267.02068    229018.04   -21182.991    1566.1626   -22749.154   -559.16299    548.51552     78.52057    15.835299    29.617962 
  100600    233.66108   -205.39616    229018.04   -21231.539    1547.6214    -22779.16   -320.05017    549.25256    78.520984     15.83624    29.609835 
  100800    243.76707   -247.19381    229018.04   -21161.266     1614.557   -22775.823   -519.81523    549.92133    78.520361    15.838796     29.63107 
[...]
 3975800    224.33319    -294.5186    229018.04   -23401.636    1485.8395   -24887.476   -697.68977    4706.8621     78.96409    15.872716    29.556678 
 3976000    222.51372    -393.8859    229018.04   -23424.333    1473.7884   -24898.121   -1055.0516    4711.3912    78.966343    15.875059    29.563593 
 3976200    223.50368   -259.25266    229018.04   -23389.206    1480.3453   -24869.551   -584.20856    4704.8869    78.965324    15.876561     29.56486 
 3976400    228.88977   -309.61733    229018.04   -23393.895    1516.0193   -24909.915   -775.78827    4707.1186    78.965186    15.877477    29.559076 
 3976600    224.97081   -421.27199    229018.04   -23317.363    1490.0627   -24807.426   -1206.5844     4710.923    78.963517    15.878423    29.571874 
 3976800    228.19316   -241.31619    229018.04   -23327.561    1511.4055   -24838.967   -497.09418    4705.4492    78.962515    15.877445    29.563814 
 3977000    225.97804   -247.95848    229018.04   -23363.086    1496.7339    -24859.82   -484.17701    4706.4513    78.959768    15.878054    29.566075 
 3977200     223.6396   -351.77898    229018.04   -23321.705    1481.2456   -24802.951   -880.90313    4709.1968    78.958794    15.879227    29.560238 
 3977400    228.10317    -336.0735    229018.04   -23361.716    1510.8094   -24872.525   -903.05428    4705.9685    78.956985    15.881498    29.581832 
 3977600    214.91495   -263.69179    229018.04   -23418.411    1423.4591    -24841.87   -555.22026     4703.442    78.956555    15.883454    29.579406 
 3977800    220.87652   -489.16289    229018.04   -23392.111    1462.9447   -24855.055   -1466.4123    4711.3778    78.955908    15.884941    29.572565 
 3978000    221.22567   -345.79577    229018.04   -23393.033    1465.2573    -24858.29   -911.62746    4704.2771    78.955494    15.885813    29.578811 
 3978200    229.65747   -246.51059    229018.04   -23334.754    1521.1041   -24855.858   -477.14798    4704.7149    78.953843    15.888016    29.562996 
 3978400     221.3503   -408.86845    229018.04   -23387.381    1466.0827   -24853.464   -1125.7717    4711.1254    78.952409    15.892598    29.559211 
 3978600    224.94169   -328.54116    229018.04    -23441.54    1489.8698    -24931.41   -848.73338    4706.9033    78.951592    15.895221    29.559343 
 3978800    223.33184   -248.03887    229018.04   -23391.978    1479.2072   -24871.185    -519.6309    4704.4539    78.951576    15.896023    29.552014 
 3979000    230.71603   -389.88813    229018.04   -23266.767    1528.1153   -24794.882   -1054.3905     4709.779    78.951821    15.894729    29.556046 
 3979200    224.06468   -385.00239    229018.04   -23338.644     1484.061   -24822.705   -1061.9082    4709.7556    78.952554     15.89364    29.555813 
 3979400    218.96199    -198.7461    229018.04   -23403.439    1450.2641   -24853.703   -310.21651    4703.7936    78.952156    15.893014     29.55635 
 3979600    228.34445    -314.5548    229018.04   -23395.099    1512.4075   -24907.507   -768.96122    4708.1661    78.952372    15.894551    29.557177 
 3979800    233.12919    -373.0166    229018.04   -23344.561    1544.0985    -24888.66   -1035.2111    4709.8118    78.952813    15.896038    29.557717 
 3980000    220.18042   -274.13485    229018.04   -23433.143    1458.3342   -24891.477     -635.743    4704.5706    78.952773    15.895259    29.562755 
 3980200    218.36669   -296.42888    229018.04   -23424.877    1446.3212   -24871.198   -703.75078    4708.7055     78.95192    15.895656     29.55524 
 3980400    223.58806   -291.09761    229018.04   -23398.707    1480.9042   -24879.611   -638.82511    4707.4246    78.951946    15.895233    29.552164 
 3980600    217.46627   -239.13937    229018.04   -23417.934    1440.3574   -24858.291   -500.96238    4705.6378    78.951711    15.895162    29.545521 
 3980800    221.63359   -300.78792    229018.04   -23421.442     1467.959   -24889.401   -726.55679    4708.2372     78.95106    15.893853    29.536532 
 3981000    230.60958   -203.61029    229018.04   -23335.024    1527.4103   -24862.434   -355.79122    4708.0031     78.95042    15.893229    29.553295 
 3981200    217.23903   -283.63985    229018.04   -23387.956    1438.8523   -24826.808   -659.55096    4707.7922    78.950811     15.89178    29.556182 
 3981400    223.02445   -338.94189    229018.04   -23381.269    1477.1712    -24858.44   -859.88995    4707.4109    78.951676     15.88865    29.564811 
 3981600    228.18886   -227.16684    229018.04   -23341.282     1511.377   -24852.659   -448.35275    4705.5402    78.953114    15.885862    29.550192 
 3981800    221.72055   -312.78551    229018.04   -23402.391     1468.535   -24870.926   -759.63121    4704.7367    78.953984    15.882863    29.544122 
 3982000    220.33891    -391.2905    229018.04   -23365.124    1459.3839   -24824.508   -1046.5497    4708.2639    78.952497    15.881197    29.535583 
 3982200    224.60707   -258.95122    229018.04   -23347.788    1487.6535   -24835.442   -558.92446    4706.2085    78.952694    15.879262    29.536419 
 3982400    227.37354   -267.07709    229018.04   -23358.831    1505.9768   -24864.808   -638.29369    4705.9644    78.951368    15.879064    29.543199 
 3982600    225.53188   -294.71452    229018.04   -23362.036    1493.7788   -24855.814   -681.10142    4707.0254    78.951187    15.877805    29.537893 
 3982800     226.8056   -233.10231    229018.04   -23353.388    1502.2151   -24855.603   -462.00533    4704.8376    78.948645     15.87572    29.540888 
 3983000    225.64597   -325.85705    229018.04   -23418.489    1494.5345   -24913.024   -827.33197    4708.7426    78.948406    15.874235    29.532556 
 3983200    223.59479   -301.28918    229018.04   -23384.751    1480.9488     -24865.7   -745.69438    4706.6836    78.947555    15.872645    29.525815 
 3983400    222.72138   -215.98341    229018.04   -23382.382    1475.1639   -24857.546   -418.95388    4705.5348    78.947271    15.872921    29.516139 
 3983600    227.65185   -318.92038    229018.04   -23316.874    1507.8201   -24824.695   -772.13326    4708.6279    78.946874    15.872733    29.513549 
 3983800    216.84908   -242.52956    229018.04   -23432.519    1436.2695   -24868.788   -519.23498    4708.3655    78.946124    15.872365    29.515721 
 3984000    228.96386   -241.02306    229018.04   -23363.412      1516.51   -24879.922    -458.5718     4704.997    78.946097    15.870317    29.509536 
 3984200    219.61066   -347.27058    229018.04   -23415.438    1454.5604   -24869.998    -947.4067    4708.8355    78.948016     15.86871    29.529509 
 3984400    219.11472   -282.02822    229018.04   -23424.091    1451.2757   -24875.367    -610.2596    4707.3446    78.950226    15.866816    29.529534 
 3984600    222.59669   -315.34694    229018.04   -23372.928     1474.338   -24847.266   -779.98579    4707.4374     78.95065     15.86458    29.531713 
 3984800    224.59793   -249.00669    229018.04   -23399.827    1487.5929    -24887.42    -502.8407    4706.5358    78.950337    15.862338    29.523534 
 3985000    225.83418     -347.032    229018.04   -23356.531    1495.7811   -24852.312   -921.48154    4708.6363    78.950247    15.861096    29.516439 
 3985200    220.54314   -318.83272    229018.04   -23349.226    1460.7366   -24809.963   -810.25173    4707.0206     78.94967    15.861394    29.522882 
 3985400    223.01797   -253.78947    229018.04   -23362.572    1477.1283     -24839.7   -523.82388    4706.2519    78.948798    15.860483    29.539249 
 3985600     224.1501   -328.38293    229018.04   -23327.444    1484.6268   -24812.071    -866.2303    4710.2153    78.946608    15.859697    29.537316 
 3985800    217.76126   -250.26222    229018.04   -23403.047    1442.3112   -24845.358   -523.17518    4707.4682     78.94347    15.857023    29.539088 
 3986000    226.51037   -265.77286    229018.04   -23336.884    1500.2597   -24837.143   -587.96214    4708.2871    78.942924    15.857194    29.546936 
 3986200    225.55233   -316.69114    229018.04   -23359.187    1493.9143   -24853.101   -809.34709    4710.7192    78.939869    15.855862    29.532215 
 3986400    221.53821   -193.24765    229018.04   -23430.786    1467.3273   -24898.113   -323.61846    4706.5281    78.940602    15.856503    29.540253 
 3986600    223.51811   -255.14603    229018.04   -23415.747    1480.4409   -24896.187   -550.04485    4707.3309    78.940025      15.8543    29.543233 
 3986800    220.87222    -355.4596    229018.04   -23326.129    1462.9162   -24789.046   -954.95623     4709.623    78.938254     15.85518    29.544154 
 3987000    225.65312   -247.57171    229018.04   -23329.789    1494.5819   -24824.371   -556.24435    4707.3944    78.937354    15.854283    29.532176 
 3987200    219.77498   -298.75091    229018.04   -23359.673    1455.6488   -24815.322   -722.19497    4707.7912    78.937692    15.854293    29.533574 
 3987400    229.11927   -279.94926    229018.04   -23371.506    1517.5394   -24889.046   -608.92984    4709.0778    78.937983    15.853709    29.529818 
 3987600    219.29675    -210.4864    229018.04   -23418.255    1452.4813   -24870.737   -364.77477    4706.6366    78.939397    15.852998    29.533927 
 3987800    220.05082   -353.93683    229018.04   -23395.665    1457.4758   -24853.141   -930.26763    4709.7327    78.940307      15.8527    29.528714 
 3988000    227.43777   -354.28003    229018.04   -23375.582    1506.4022   -24881.985   -962.10027    4709.7524    78.940062    15.852115    29.531431 
 3988200    223.33308   -227.17769    229018.04   -23363.925    1479.2154   -24843.141   -444.62422    4708.9941    78.940894    15.851207    29.534558 
 3988400    228.73324   -271.82851    229018.04   -23336.562    1514.9826   -24851.545   -645.04067    4708.7083    78.939868    15.851924    29.535188 
 3988600    228.03951     -367.226    229018.04   -23355.997    1510.3877   -24866.385   -975.09014    4708.8796    78.937854    15.851894    29.532261 
 3988800     215.9216   -229.78204    229018.04   -23439.054    1430.1265   -24869.181   -462.30133    4705.5959    78.935492    15.851875    29.528937 
 3989000    219.09494   -279.44554    229018.04   -23400.053    1451.1446   -24851.198   -654.72059    4708.4931    78.934881    15.850355    29.519484 
 3989200    228.50981   -303.70592    229018.04   -23337.549    1513.5027   -24851.052   -733.27186    4709.7088    78.933137    15.849638    29.522458 
 3989400    228.62958    -230.0372    229018.04   -23346.799     1514.296   -24861.095   -439.43023    4709.0846    78.932749    15.850528    29.519366 
 3989600     226.5831   -315.35895    229018.04   -23391.583    1500.7414   -24892.324   -787.09803     4707.445    78.930489    15.850108    29.527014 
 3989800    229.29081   -364.81286    229018.04   -23356.689    1518.6755   -24875.365   -983.55921    4710.9086    78.928862    15.848897    29.520375 
 3990000    228.37148   -168.51675    229018.04     -23335.6    1512.5865   -24848.187   -214.57856    4706.6781    78.926909    15.848374      29.5262 
 3990200     226.3883   -263.08822    229018.04   -23368.766    1499.4512   -24868.217   -578.16825    4708.2225     78.92744    15.848881    29.521473 
 3990400    224.63457   -364.18848    229018.04   -23351.348    1487.8356   -24839.183   -960.38989    4708.1688    78.926312    15.848122    29.531594 
 3990600    221.88459   -293.13809    229018.04   -23387.294    1469.6215   -24856.916      -700.93    4707.9185    78.923758    15.848791     29.52929 
 3990800    227.47474   -340.97796    229018.04   -23297.922    1506.6471   -24804.569   -891.43132    4708.1641     78.92145    15.847736    29.540088 
 3991000     230.5891   -262.20101    229018.04   -23321.011    1527.2746   -24848.285   -581.07067    4708.0145    78.919563    15.847771    29.526743 
 3991200    226.92972   -245.20501    229018.04   -23369.413    1503.0372    -24872.45   -483.58616    4706.2843    78.918814    15.848754    29.531208 
 3991400    219.31366   -313.45344    229018.04   -23390.803    1452.5933   -24843.397   -760.63161    4709.1615    78.918924    15.848412    29.528244 
 3991600    227.27575   -238.11121    229018.04   -23362.339    1505.3291   -24867.668   -505.34431    4708.0362    78.917912    15.849254    29.527899 
 3991800    230.39099   -270.86969    229018.04   -23305.698    1525.9624    -24831.66   -582.70608    4706.7892     78.91569    15.850775    29.530736 
 3992000    225.99026   -358.99419    229018.04   -23343.578    1496.8148   -24840.393   -968.81673    4710.2984    78.915653    15.851251    29.531562 
 3992200    224.47749   -288.09401    229018.04   -23376.334    1486.7952   -24863.129   -698.54394    4706.9822    78.915488    15.852007     29.52399 
 3992400    220.48597   -254.44892    229018.04   -23387.826    1460.3579   -24848.184   -517.14855    4705.6478    78.915462     15.85088    29.525529 
 3992600    232.34546   -411.38822    229018.04   -23326.561    1538.9076   -24865.468   -1171.0316    4711.3813    78.916023    15.849134    29.529392 
 3992800    229.81111   -251.84076    229018.04   -23309.425    1522.1217   -24831.546    -521.5229    4707.5246    78.915414    15.849633    29.526882 
 3993000    233.73263   -370.70807    229018.04   -23295.683    1548.0954   -24843.779   -1017.9579    4706.7737    78.915431    15.849159    29.521784 
 3993200     227.5227   -313.32597    229018.04   -23306.676    1506.9647   -24813.641   -745.68717    4709.0703     78.91588    15.850013    29.522268 
 3993400    224.12936    -341.7283    229018.04   -23347.176    1484.4895   -24831.666   -908.22409     4709.103    78.914257    15.850598    29.516032 
 3993600    221.57609   -296.94567    229018.04   -23380.456    1467.5782   -24848.034   -676.22146    4705.7964     78.91391    15.851588    29.504019 
 3993800    221.15487   -276.03694    229018.04   -23424.463    1464.7883   -24889.251    -630.6282    4706.2734    78.913399    15.852463    29.521046 
 3994000    223.23583   -290.61733    229018.04   -23437.373    1478.5712   -24915.944   -647.39462    4709.0536    78.913725    15.854125    29.518752 
 3994200    224.86746   -295.06489    229018.04   -23360.743    1489.3781   -24850.121    -705.6675    4708.1057    78.913476    15.854805    29.528631 
 3994400     229.9204   -268.55335    229018.04   -23383.982    1522.8456   -24906.827   -594.63228    4705.7945    78.913256    15.853642    29.531416 
 3994600    225.70981   -233.17492    229018.04   -23367.742    1494.9573   -24862.699   -485.26138    4706.7432    78.912873    15.854616    29.522505 
 3994800    226.03976   -273.17583    229018.04   -23365.434    1497.1427   -24862.576   -618.80848    4707.6013    78.913716    15.855497    29.522063 
 3995000    231.00063   -219.94166    229018.04   -23405.668    1530.0003   -24935.669   -419.03423    4704.6233    78.914592    15.857958    29.510911 
 3995200    219.15462   -287.95694    229018.04   -23428.973    1451.5399   -24880.513   -713.03292    4706.4102    78.914219    15.859236    29.512424 
 3995400    222.59657   -222.17229    229018.04    -23377.41    1474.3372   -24851.748   -413.99052     4707.703    78.913416    15.859686    29.514176 
 3995600    227.70967   -207.46496    229018.04   -23362.485    1508.2031   -24870.688   -346.34547    4704.1134    78.913037    15.859408    29.527984 
 3995800    223.96203   -296.31458    229018.04   -23425.501    1483.3812   -24908.883   -705.68177    4706.8095    78.912585    15.857543    29.515393 
 3996000     225.8223   -282.66125    229018.04   -23390.306    1495.7023   -24886.008   -682.95225     4707.315    78.911135    15.856947    29.530543 
 3996200    221.17194   -259.78901    229018.04   -23366.008    1464.9014   -24830.909   -539.40189    4706.8568    78.910593     15.85663    29.520005 
 3996400    217.62351   -237.35614    229018.04   -23411.562    1441.3988   -24852.961   -505.39615    4705.7667    78.909703    15.855272    29.537355 
 3996600     217.9412   -298.57358    229018.04   -23438.015     1443.503   -24881.518   -703.98437    4707.6359    78.909312    15.854282    29.531094 
 3996800    222.50549   -311.05503    229018.04    -23383.35     1473.734   -24857.084   -788.77409     4707.162    78.909356    15.854959    29.522325 
 3997000    227.88674   -275.29722    229018.04   -23339.995    1509.3759   -24849.371   -633.38228    4705.0402    78.907088     15.85374    29.520265 
 3997200    222.23135    -318.1424    229018.04   -23407.044    1471.9182   -24878.962   -802.33786    4707.7068    78.906459    15.852842    29.512503 
 3997400    220.80906   -317.93407    229018.04   -23387.512    1462.4979    -24850.01   -778.31839    4708.7746    78.906538    15.853741    29.509097 
 3997600    229.37917   -254.34685    229018.04       -23387    1519.2608   -24906.261   -543.23745    4705.6248    78.907022    15.854201    29.507239 
 3997800    230.20681   -300.35571    229018.04   -23355.342    1524.7426   -24880.085   -703.98817    4708.3713    78.907623    15.854287    29.510701 
 3998000    220.71189    -295.7891    229018.04   -23371.409    1461.8543   -24833.263   -691.13652    4708.0763    78.908916    15.854762    29.501124 
 3998200    231.43792   -224.32194    229018.04   -23322.274    1532.8966    -24855.17   -419.11562    4706.1797     78.90754    15.854055    29.504822 
 3998400    227.57223   -309.12374    229018.04   -23381.864    1507.2928   -24889.157   -773.65996    4707.3065    78.909262    15.853239    29.510008 
 3998600    222.79018    -352.0496    229018.04   -23376.668    1475.6196   -24852.288   -937.32811     4708.901    78.908054    15.853514    29.512283 
 3998800    227.10464   -229.95374    229018.04    -23380.25    1504.1958   -24884.446   -415.57256    4706.2483    78.907671    15.854544    29.499912 
 3999000    221.31137   -291.20783    229018.04   -23389.764    1465.8248   -24855.588   -707.78431    4706.0935    78.906048    15.854997    29.510367 
 3999200    224.72566   -279.55006    229018.04    -23364.08    1488.4389   -24852.519   -635.82867    4708.7912     78.90646    15.852621    29.520443 
 3999400     224.5729   -232.70154    229018.04   -23366.592    1487.4272   -24854.019   -483.51925    4708.9812    78.907679    15.853576    29.510062 
 3999600     219.7717   -254.61773    229018.04   -23390.537    1455.6271   -24846.164   -552.58088    4706.0893    78.907887    15.853927    29.515283 
 3999800    225.01771   -231.13338    229018.04   -23376.606    1490.3733   -24866.979   -444.55105    4709.1935    78.907955    15.855984    29.521491 
 4000000    220.51453   -402.84386    229018.04   -23365.018    1460.5471   -24825.565   -1163.1965    4709.0556    78.909318      15.8557    29.523592 
Loop time of 16106.6 on 60 procs for 4000000 steps with 8943 atoms

Performance: 214.570 ns/day, 0.112 hours/ns, 248.345 timesteps/s
92.9% CPU use with 60 MPI tasks x no OpenMP threads

MPI task timing breakdown:
Section |  min time  |  avg time  |  max time  |%varavg| %total
---------------------------------------------------------------
Pair    | 0.28778    | 2994.5     | 10622      |7099.6 | 18.59
Neigh   | 2.0204     | 187.79     | 561.66     |1459.5 |  1.17
Comm    | 85.239     | 4514.1     | 13125      |6567.1 | 28.03
Output  | 134.24     | 134.6      | 134.76     |   1.3 |  0.84
Modify  | 349.06     | 8024.5     | 15695      |6586.1 | 49.82
Other   |            | 251.1      |            |       |  1.56

Nlocal:    149.05 ave 375 max 0 min
Histogram: 24 0 4 12 0 0 0 0 3 17
Nghost:    818.383 ave 1258 max 360 min
Histogram: 8 4 0 0 20 8 4 4 4 8
Neighs:    0 ave 0 max 0 min
Histogram: 60 0 0 0 0 0 0 0 0 0
FullNghs:  14937.7 ave 45010 max 0 min
Histogram: 26 14 0 0 0 0 0 2 10 8

Total # of neighbors = 896264
Ave neighs/atom = 100.22
Neighbor list builds = 417014
Dangerous builds = 0
write_data 		${DIR}/data.${NAME}_run
write_data 		run_8/data.${NAME}_run
write_data 		run_8/data.ibeam_cooling_8_run
Total wall time: 4:29:21
