
# Set production fixes - Nose/Hoover
#
fix                 4 water temp/csvr ${START_TEMP} ${END_TEMP} 500.0 928347
fix                 4 water temp/csvr 240 ${END_TEMP} 500.0 928347
fix                 4 water temp/csvr 240 227 500.0 928347


## divide "droplet" into core and surface
#region		core_reg cylinder z 135 135 44.6 20 INF units box
#region		surface_reg cylinder z 135 135 44.6 20 INF units box side out
#group		core dynamic all region core_reg
#group		surface dynamic all region surface_reg

## compute pressure core
#compute        peratom_core core stress/atom NULL
#compute        p_core core reduce sum c_peratom_core[1] c_peratom_core[2] c_peratom_core[3]
#variable       press_core equal -(c_p_core[1]+c_p_core[2]+c_p_core[3])/(3*1249982.5)


## compute pressure surface
#compute        peratom_surf surface stress/atom NULL
#compute        p_surf surface reduce sum c_peratom_surf[1] c_peratom_surf[2] #c_peratom_surf[3]
#variable       press_surf equal -(c_p_surf[1]+c_p_surf[2]+c_p_surf[3])/(3*42395)

## compute total pressure of drop
compute        peratom water stress/atom NULL
compute        p water reduce sum c_peratom[1] c_peratom[2] c_peratom[3]
variable       press equal -(c_p[1]+c_p[2]+c_p[3])/(3*58301)


# compute order parameter
compute        3 all orientorder/atom nnn NULL cutoff 3.5

# compute center of mass of bridge
compute 	4 water com

# Run simulation
thermo_style        custom step c_2 press vol etotal ke pe v_press c_1[4] c_4[*]
thermo              200
dump		     1 water custom 400 ${DIR}/prod.${NAME}.dump id type x y z vx vy vz c_3[*] c_peratom[*]
dump		     1 water custom 400 run_18/prod.${NAME}.dump id type x y z vx vy vz c_3[*] c_peratom[*]
dump		     1 water custom 400 run_18/prod.ibeam_cooling_18.dump id type x y z vx vy vz c_3[*] c_peratom[*]
run                 ${STEPS}
run                 5200000
Neighbor list info ...
  update every 1 steps, delay 0 steps, check yes
  max neighbors/atom: 2000, page size: 100000
  master list distance cutoff = 6.6747184
  ghost atom cutoff = 6.6747184
  binsize = 3.3373592, bins = 48 11 14
  2 neighbor lists, perpetual/occasional/extra = 1 1 0
  (1) pair sw, perpetual
      attributes: full, newton on
      pair build: full/bin/atomonly
      stencil: full/bin/3d
      bin: standard
  (2) compute orientorder/atom, occasional, copy from (1)
      attributes: full, newton on
      pair build: copy
      stencil: none
      bin: none
Per MPI rank memory allocation (min/avg/max) = 6.104 | 6.801 | 7.323 Mbytes
Step c_2 Press Volume TotEng KinEng PotEng v_press c_1[4] c_4[1] c_4[2] c_4[3] 
       0    233.65332   -390.53754    263624.46   -25868.815    1890.9328   -27759.748   -1259.0921    36.958767    78.602261    18.371222    27.434966 
     200    236.84333   -297.58958    263624.46   -25855.024    1916.7492   -27771.773   -791.58214    37.471092    78.602915    18.372563    27.420989 
     400    239.16162   -274.08955    263624.46   -25829.178    1935.5109   -27764.689   -714.93167    38.360545    78.603113    18.374095    27.431353 
     600    247.13341   -155.58673    263624.46   -25720.483    2000.0258   -27720.509   -175.11036    39.556187    78.603943    18.374826    27.420727 
     800    244.43303    -154.2051    263624.46   -25721.325    1978.1719   -27699.496   -193.95586    40.830357    78.603429    18.374407    27.415104 
    1000    240.69774   -327.18754    263624.46   -25758.694    1947.9426   -27706.637   -955.20783    42.857605    78.602959    18.373074     27.40644 
    1200    235.45601   -282.90985    263624.46   -25693.675    1905.5218   -27599.197   -807.55098    45.130039    78.603079    18.375886    27.412155 
    1400    237.71458   -53.456842    263624.46   -25655.491    1923.8002   -27579.291    297.02634    46.717267    78.604805    18.377769    27.407167 
    1600    239.73848   -295.57202    263624.46   -25661.487    1940.1793   -27601.667   -806.31338    47.689813    78.605831    18.377586    27.421727 
    1800    245.38902    -222.1009    263624.46   -25643.249    1985.9086   -27629.158   -518.81818     49.57349    78.605891    18.376608    27.439988 
    2000    244.80328   -335.36726    263624.46   -25582.748    1981.1683   -27563.916   -999.39452    50.951098    78.606821    18.376234    27.446097 
    2200    242.31004   -337.08863    263624.46   -25671.409    1960.9907     -27632.4   -1048.6244    52.212221    78.606503    18.377532    27.441359 
    2400    248.09425   -217.27175    263624.46   -25685.814    2007.8018   -27693.616   -475.73681    53.893009    78.606722    18.376978    27.442321 
    2600    235.88859     -253.657    263624.46   -25739.752    1909.0226   -27648.774   -615.69467    55.158125    78.608097    18.376074    27.435257 
    2800    242.35768   -156.79104    263624.46   -25647.873    1961.3763    -27609.25   -162.26198    56.668447     78.61046    18.375375     27.43033 
    3000    242.20285   -135.97502    263624.46   -25668.905    1960.1233   -27629.028   -82.273533     58.25016    78.611077    18.376739    27.431745 
    3200    238.46295   -240.63084    263624.46   -25725.255    1929.8566   -27655.112   -557.35922    59.663231    78.611831    18.378259    27.425516 
    3400    238.19979   -410.09513    263624.46    -25776.37    1927.7269   -27704.097   -1333.0926    60.301505    78.611543    18.378094    27.419236 
    3600    236.47403   -202.95062    263624.46   -25780.372    1913.7605   -27694.132   -382.63336    61.547269    78.610888    18.377563    27.409068 
    3800     241.9052   -289.44127    263624.46    -25731.62    1957.7145   -27689.334    -778.9166     62.85012    78.611273     18.37984    27.405113 
    4000    236.84142   -391.95517    263624.46   -25802.481    1916.7338   -27719.214   -1283.7686    64.429786    78.609868    18.380493    27.396969 
    4200    245.35915   -318.83576    263624.46    -25771.16    1985.6669   -27756.827   -879.57674    64.827906    78.611595    18.381301    27.389494 
    4400    231.81165   -238.67627    263624.46   -25728.682    1876.0283    -27604.71   -572.60886    65.372472    78.612098    18.379753    27.399303 
    4600     233.7501   -375.07274    263624.46   -25798.048     1891.716   -27689.764    -1187.405    67.079429    78.613087     18.37912    27.410708 
    4800    247.20018   -168.68907    263624.46   -25665.838    2000.5662   -27666.404   -249.90007    69.113638    78.613416    18.379067    27.423972 
    5000    240.55203   -209.91658    263624.46   -25714.503    1946.7633   -27661.267   -434.94743    70.918944    78.611166    18.379703    27.428687 
    5200    243.34067   -135.71971    263624.46   -25704.021    1969.3316   -27673.352   -120.75421    72.776343    78.610872    18.379879    27.429491 
    5400    239.79034   -213.73058    263624.46   -25717.542     1940.599   -27658.141   -454.97957    74.833874    78.610008    18.380556    27.457639 
    5600    238.48585   -84.783063    263624.46   -25749.972     1930.042   -27680.014    112.00076    75.850951    78.611801    18.379907    27.472547 
    5800    238.51998   -208.81894    263624.46   -25677.933    1930.3182   -27608.252   -450.08033     76.61755    78.611478    18.379123    27.492647 
    6000    242.36337   -218.12286    263624.46   -25713.922    1961.4224   -27675.344   -461.80724     78.29453    78.610703    18.377295    27.514872 
    6200    240.89722   -263.62259    263624.46    -25708.92    1949.5569   -27658.477   -692.05351    80.300022    78.611284    18.376887    27.487295 
    6400    237.55261   -179.61399    263624.46   -25684.793    1922.4893   -27607.282   -370.85544    81.552063    78.610299    18.376864    27.494684 
    6600    241.30839   -238.06586    263624.46    -25679.41    1952.8845   -27632.295   -570.35765    83.139663      78.6108    18.376691    27.486613 
    6800    240.93564   -342.08771    263624.46   -25704.926    1949.8678   -27654.794   -1015.1035    85.230015    78.609072    18.375548    27.484958 
    7000    241.10989   -334.75301    263624.46   -25687.236     1951.278   -27638.514   -1016.8853    86.664344    78.610293    18.372978    27.482279 
    7200    236.29951   -220.21103    263624.46    -25812.21    1912.3482   -27724.558   -453.25239    88.433607     78.60977    18.369945    27.484166 
    7400    236.29773   -191.04067    263624.46   -25723.587    1912.3337   -27635.921    -366.1072    89.918622    78.610696     18.37126    27.476343 
    7600    242.85637   -131.84304    263624.46   -25646.124    1965.4121   -27611.537   -79.860868    91.458749    78.610465    18.369704     27.46319 
    7800    236.22801   -252.68515    263624.46   -25771.369    1911.7695   -27683.139   -594.57145    93.078849    78.610705    18.368575    27.460448 
    8000     239.6996   -261.73487    263624.46   -25636.172    1939.8647   -27576.037   -665.76903    94.680563    78.609957    18.369885    27.459786 
    8200    246.47193   -93.077781    263624.46   -25647.979    1994.6725   -27642.652    102.98832    96.523649     78.61089    18.371487      27.4427 
    8400    244.70597   -283.87007    263624.46   -25631.993    1980.3808   -27612.373   -736.88436    98.087101    78.611542    18.374341    27.445265 
    8600    241.89287    -340.2218    263624.46   -25703.107    1957.6146   -27660.721   -1029.7217    99.729537     78.61345    18.373896    27.445819 
    8800    237.33556   -345.42889    263624.46    -25748.75    1920.7328   -27669.483   -999.65293    102.35035    78.612823    18.371736    27.454911 
    9000    240.74738   -249.69605    263624.46   -25711.503    1948.3443   -27659.847   -651.18875    105.75904    78.612322    18.372983    27.445668 
    9200    246.57578   -172.69029    263624.46   -25660.289     1995.513   -27655.802   -258.66459    107.72498    78.613326    18.373965    27.439149 
    9400    240.77793   -325.34311    263624.46   -25721.829    1948.5916   -27670.421    -942.4641    108.53237    78.610769    18.373646    27.454409 
    9600     235.4751   -355.98841    263624.46   -25746.678    1905.6763   -27652.355   -1062.3925    110.23799    78.610399    18.371665    27.443424 
    9800    245.43066   -306.41063    263624.46   -25620.163    1986.2456   -27606.408   -840.19284    112.00388    78.608828    18.372354    27.455263 
   10000    240.04497   -344.54246    263624.46   -25649.758    1942.6598   -27592.418   -1048.8595    114.31923    78.607999    18.372836    27.449253 
   10200    242.83961   -436.80395    263624.46   -25576.794    1965.2765    -27542.07    -1457.935    115.13731    78.605777    18.373454    27.455793 
   10400    243.37453   -319.15623    263624.46   -25608.432    1969.6056   -27578.037   -915.64429     116.8608    78.604253    18.375954    27.449838 
   10600    235.91561    -264.4158    263624.46   -25656.736    1909.2413   -27565.977   -678.45983    119.11688    78.604255    18.377201     27.46608 
   10800    238.03586   -214.35627    263624.46   -25736.176    1926.4003   -27662.576   -421.25738     119.6954    78.604665    18.376663    27.476198 
   11000    234.42167   -293.69658    263624.46   -25758.083     1897.151   -27655.234   -814.03773    121.29416     78.60604     18.37691    27.470062 
   11200    241.56506   -254.32137    263624.46   -25794.783    1954.9617   -27749.744   -586.62124    123.02918    78.607486    18.374438    27.466063 
   11400    237.05652   -240.57678    263624.46   -25724.014    1918.4746   -27642.489   -578.11564    125.03293    78.608249    18.372816    27.469846 
   11600    247.12261   -360.74476    263624.46   -25618.926    1999.9384   -27618.864   -1079.9021    126.37426    78.608615     18.37287     27.43719 
   11800    242.64841   -313.01666    263624.46   -25653.176    1963.7291   -27616.905   -937.67455     126.5937    78.608375    18.372417     27.43679 
   12000    240.27202   -104.53662    263624.46   -25653.201    1944.4972   -27597.698    27.283112    127.52052    78.608274    18.372916     27.44582 
   12200    243.16435   -130.58643    263624.46   -25625.999    1967.9046   -27593.903   -95.691326    128.89878    78.607431    18.372488    27.450426 
   12400    238.83911    -337.4373    263624.46   -25678.433    1932.9008   -27611.334   -962.39781    130.52136    78.606758    18.372341    27.449841 
   12600    238.12525   -188.86653    263624.46   -25639.182    1927.1236   -27566.306   -364.58786    132.76605    78.607957    18.371299    27.455777 
   12800    238.33745   -333.22729    263624.46   -25647.566     1928.841   -27576.407   -970.03206    132.80716     78.60846    18.369888    27.460866 
   13000    240.25955   -273.89637    263624.46   -25733.498    1944.3964   -27677.894   -696.07957    134.86313    78.607888    18.370297    27.466151 
   13200    238.48658   -411.50683    263624.46    -25765.11    1930.0479   -27695.158   -1305.5553    136.35171    78.607903    18.369615    27.478231 
   13400    237.02527   -199.39938    263624.46   -25811.398    1918.2217    -27729.62   -366.32314    137.67765    78.606663    18.369667    27.491559 
   13600     234.5007   -59.394697    263624.46   -25757.551    1897.7906   -27655.342    262.02179    140.94442    78.608089    18.373426    27.503824 
   13800    238.47936   -339.81153    263624.46   -25679.013    1929.9894   -27609.002   -989.91414    143.04005    78.609002    18.377267    27.513231 
   14000    235.76422   -278.25047    263624.46   -25595.392    1908.0161   -27503.408   -714.74044     143.1921    78.609689    18.378607    27.515976 
   14200    242.60483   -359.75982    263624.46    -25685.32    1963.3764   -27648.697   -1120.9469    146.12193    78.610232    18.378508    27.501594 
   14400    238.58595   -422.11526    263624.46   -25701.926    1930.8521   -27632.778   -1414.4641    149.30605    78.610803    18.379215    27.501402 
   14600     241.8828   -334.25284    263624.46   -25691.968    1957.5331   -27649.501   -983.40246    149.10049    78.609852    18.379219    27.501286 
   14800    238.69936   -234.85921    263624.46   -25627.168    1931.7699   -27558.937   -564.65167    150.51418    78.608358    18.377759    27.512221 
   15000    242.44341   -255.65084    263624.46   -25697.506    1962.0701   -27659.576   -633.14176    151.62993    78.606634    18.378584    27.493919 
   15200    236.49423   -256.34319    263624.46   -25666.744     1913.924   -27580.668   -618.03916    151.78721    78.605856    18.381397    27.509296 
   15400    236.17641   -376.14245    263624.46   -25717.358    1911.3519   -27628.709   -1120.6415    152.65045    78.604717    18.379708    27.498251 
   15600    246.31275   -280.16727    263624.46   -25574.016    1993.3843     -27567.4   -763.32849    153.75934    78.601613    18.378009    27.505002 
   15800    243.13787   -242.86178    263624.46   -25615.121    1967.6903   -27582.812   -567.14157    154.99209    78.601379    18.375151    27.508698 
   16000    245.35631   -410.22056    263624.46   -25685.438    1985.6439   -27671.082   -1296.1235     156.9864    78.603783    18.376918    27.510302 
   16200    240.96563   -242.05502    263624.46   -25676.506    1950.1106   -27626.617   -571.75708    158.62319    78.605472      18.3784    27.509038 
   16400    238.79468   -328.56738    263624.46   -25690.637    1932.5413   -27623.178   -966.26925    158.78671    78.603707     18.37656    27.497098 
   16600    240.45277   -288.24834    263624.46   -25642.642      1945.96   -27588.602    -764.1932     160.8765     78.60195     18.37539     27.49766 
   16800    238.76686   -250.75517    263624.46   -25692.251    1932.3161   -27624.567   -559.22313    162.76837    78.599995    18.376321    27.505688 
   17000    235.45101   -230.49849    263624.46   -25767.914    1905.4813   -27673.395   -523.11476    164.40734    78.598527    18.376697     27.50145 
   17200    241.96714   -185.95722    263624.46   -25770.208    1958.2157   -27728.424   -320.86415    166.19406    78.598683    18.376059    27.507824 
   17400    235.40474   -282.07054    263624.46   -25846.973    1905.1068   -27752.079   -766.56915    167.34997    78.597994    18.373491    27.512143 
   17600    240.04561   -239.67851    263624.46   -25792.448     1942.665   -27735.113   -571.42369    168.76991    78.597802    18.373899     27.51813 
   17800    234.48406   -147.03072    263624.46   -25805.829    1897.6559   -27703.485   -129.00927    168.87186    78.597711    18.375168    27.520608 
   18000    244.95329   -228.78523    263624.46   -25765.528    1982.3823    -27747.91   -511.76429    169.71569    78.597642    18.374226    27.526183 
   18200    239.48463   -217.87076    263624.46   -25799.783     1938.125   -27737.908   -477.05696    172.31126      78.5985    18.375445    27.540422 
   18400    232.81124    -218.7058    263624.46   -25740.284     1884.118   -27624.402   -481.46876    173.11523    78.597375    18.373405    27.559662 
   18600    237.23729    -165.9056    263624.46   -25707.162    1919.9375   -27627.099   -247.49096    174.34349    78.596341    18.375424    27.556554 
   18800    240.70961    -280.8318    263624.46   -25757.011    1948.0386    -27705.05   -749.69706    176.39127    78.597193    18.374086    27.565972 
   19000    244.02539   -210.66775    263624.46   -25680.939    1974.8729   -27655.812   -440.73848    177.18836     78.59753    18.372324     27.56562 
   19200    234.83459   -315.65784    263624.46   -25715.331    1900.4927   -27615.824   -932.79946    178.69706    78.598254     18.37198    27.572102 
   19400    239.62371    -278.0036    263624.46   -25644.022    1939.2505   -27583.272   -740.96685    179.13279    78.599951    18.370216    27.572262 
   19600    241.26562   -273.98423    263624.46    -25661.53    1952.5384   -27614.068   -678.98723    181.20421    78.601136    18.368657    27.560259 
   19800    240.20457   -269.81091    263624.46   -25698.648    1943.9514   -27642.599   -666.57506    183.22678    78.601169    18.366569    27.554474 
   20000    242.08136   -316.47438    263624.46   -25724.133    1959.1401   -27683.273   -905.26198    184.92379    78.601405    18.364716    27.559092 
   20200    235.34662    -209.5935    263624.46     -25769.2    1904.6365   -27673.836   -439.69745     187.0813    78.600175    18.365431    27.575638 
   20400    240.40041   -398.29806    263624.46   -25669.689    1945.5363   -27615.225   -1274.2561     189.3895    78.599573    18.364142    27.578064 
   20600    236.91893   -346.26836    263624.46   -25786.765     1917.361   -27704.126   -1030.1311    189.94601    78.598367    18.366973    27.580473 
   20800    242.15739   -399.06151    263624.46   -25683.484    1959.7553    -27643.24   -1252.5444     191.0137    78.598525    18.368687    27.589975 
   21000    240.26095   -259.06056    263624.46   -25722.396    1944.4076   -27666.804   -642.99639    191.77139    78.598832    18.368884    27.597326 
   21200    243.57906   -300.29101    263624.46   -25665.152    1971.2608   -27636.413    -829.5931    193.81054    78.598668    18.367241    27.605394 
   21400    242.84076   -279.00865    263624.46   -25686.443    1965.2858   -27651.729   -752.43693    194.63161    78.598004    18.367439    27.571791 
   21600    247.05452   -298.02547    263624.46   -25593.221    1999.3874   -27592.608   -839.41536     195.9681    78.597176    18.367105    27.577101 
   21800    240.16851   -270.83013    263624.46   -25694.695    1943.6596   -27638.355   -686.09782    197.17534     78.59834    18.366664    27.573561 
   22000    235.43723   -194.11212    263624.46   -25761.225    1905.3698   -27666.595   -345.32921    199.35267    78.598325    18.366943    27.572112 
   22200    234.94669   -275.04488    263624.46   -25784.227    1901.3999   -27685.627    -728.1411    200.33126    78.597241    18.366008    27.551961 
   22400    240.70946   -228.18532    263624.46   -25648.512    1948.0374    -27596.55   -531.30869    200.55706    78.596216    18.365605    27.555389 
   22600    239.05242    -319.2995    263624.46   -25678.738    1934.6272   -27613.366   -944.88143    202.24242    78.593832      18.3651    27.555409 
   22800    237.88625   -357.57178    263624.46   -25638.172    1925.1895   -27563.361   -1103.4657     202.7965    78.591768    18.364781    27.542539 
   23000    241.51944   -322.68605    263624.46   -25706.804    1954.5925   -27661.396   -885.53185    205.35945    78.589211     18.36463    27.522562 
   23200    244.41732   -273.75428    263624.46   -25667.525    1978.0447    -27645.57   -722.68332    206.48714    78.585734    18.365758    27.522494 
   23400    239.25092   -342.23077    263624.46   -25696.223    1936.2336   -27632.457   -1023.9897    208.80702    78.582172    18.364228    27.512259 
   23600    243.06341   -384.86618    263624.46   -25640.956    1967.0877   -27608.044   -1216.2842    210.16237    78.579581    18.360624    27.510316 
   23800    234.36607   -343.67558    263624.46   -25656.439     1896.701    -27553.14   -1003.8799    211.52149    78.579816     18.36103    27.495016 
   24000    237.23915   -242.42722    263624.46   -25710.961    1919.9526   -27630.913   -586.37338    213.67447    78.578176     18.36214    27.494115 
   24200    244.53589   -232.29116    263624.46   -25742.629    1979.0043   -27721.633   -565.53281    214.64491    78.577306    18.360161    27.470759 
   24400    238.22716   -284.94446    263624.46   -25806.383    1927.9484   -27734.332   -788.45649    217.18139    78.575196      18.3584    27.483324 
   24600    237.02761   -310.99487    263624.46    -25836.21    1918.2406    -27754.45   -891.03617    218.73682    78.573962    18.358545    27.489443 
   24800    236.85872   -387.10067    263624.46    -25793.17    1916.8737   -27710.044    -1254.107    219.56349    78.574046    18.356712    27.491371 
   25000    233.94583   -275.78691    263624.46   -25758.124    1893.3001   -27651.424   -737.07537    220.43422    78.575113    18.355633    27.487315 
   25200    239.58502   -277.70915    263624.46   -25882.007    1938.9374   -27820.944   -750.94529     221.4434    78.574874    18.354184    27.501756 
   25400    239.10669   -279.12493    263624.46   -25769.032    1935.0664   -27704.098   -757.48849    222.61734    78.575686    18.354755    27.512965 
   25600    247.63355   -366.84957    263624.46   -25603.059    2004.0734   -27607.132   -1168.4125    224.22021    78.574729    18.355946    27.512377 
   25800    247.59518   -279.69678    263624.46   -25580.116    2003.7628   -27583.879   -673.11877    225.54091    78.572776    18.356126    27.500238 
   26000    243.91586   -301.53846    263624.46   -25661.814    1973.9865   -27635.801   -809.50316    227.24654    78.572836    18.356267    27.518645 
   26200    236.08358   -181.71868    263624.46   -25710.986    1910.6007   -27621.587   -328.29727    228.24564    78.572646    18.356897     27.53397 
   26400    237.78029   -285.86182    263624.46   -25749.748    1924.3319    -27674.08   -788.21127    229.23823    78.574374    18.355341    27.539197 
   26600    239.03539   -219.69206    263624.46   -25655.541    1934.4894   -27590.031   -473.65194    229.17001     78.57433    18.356816    27.544811 
   26800    238.21263   -226.52185    263624.46   -25694.443    1927.8308   -27622.274   -477.62973      232.206    78.573937    18.358041    27.545957 
   27000    242.67991   -285.01952    263624.46   -25670.513     1963.984   -27634.497   -775.97502    232.93046    78.574234    18.355894    27.533438 
   27200    237.16984   -123.93877    263624.46    -25657.77    1919.3916   -27577.161   -57.145475    233.99623    78.573581    18.353864    27.514784 
   27400    241.78853   -302.65135    263624.46   -25597.672    1956.7702   -27554.442   -832.23593    235.27873    78.572177    18.353917    27.517388 
   27600    236.93186   -385.57048    263624.46   -25777.471    1917.4657   -27694.936   -1210.0848    237.59024    78.570539    18.353946    27.514964 
   27800    244.57861   -334.58567    263624.46    -25649.47    1979.3501    -27628.82   -1010.4236    238.57009    78.569378     18.35438    27.518204 
   28000    237.26937   -179.60653    263624.46   -25752.552    1920.1971   -27672.749   -314.08179    239.75306    78.570092    18.355933     27.53134 
   28200    237.00131   -432.30663    263624.46   -25687.088    1918.0278   -27605.116   -1418.3152    242.76071    78.568038    18.355707    27.550471 
   28400     241.2811   -297.49045    263624.46   -25681.221    1952.6636   -27633.884   -833.68612    245.67331    78.569015    18.355541    27.548167 
   28600     236.8763     -170.261    263624.46   -25720.635     1917.016   -27637.651    -197.7951    245.57052    78.569071    18.354466    27.537531 
   28800    242.63798   -203.52123    263624.46   -25718.173    1963.6448   -27681.818   -406.72279    247.53684    78.571856    18.352478    27.551481 
   29000    238.46611   -387.90448    263624.46   -25676.211    1929.8822   -27606.093   -1197.8982    248.74201    78.572272    18.353043    27.535144 
   29200    245.82867   -330.25898    263624.46   -25681.358    1989.4666   -27670.825   -950.58284    249.13607    78.572782    18.353398    27.535407 
   29400    239.85597    -284.3129    263624.46   -25730.397    1941.1302   -27671.528   -757.81689    250.96554    78.570413    18.353718    27.535518 
   29600     244.8841   -345.27786    263624.46   -25703.191    1981.8224   -27685.014   -1019.1751    252.04705    78.570451    18.353484     27.52344 
   29800    235.98713   -309.31672    263624.46   -25821.317      1909.82   -27731.137   -871.62069    254.14049    78.570607    18.353916    27.536094 
   30000    238.53634    -151.2276    263624.46   -25811.753    1930.4506   -27742.204   -209.09342    255.14934    78.569935    18.354127     27.54217 
   30200     236.4021   -412.16427    263624.46   -25761.873    1913.1784   -27675.051   -1340.6444    259.15861    78.571187    18.353927    27.545702 
   30400    245.09277   -140.46903    263624.46   -25731.951    1983.5111   -27715.462    -141.5739    260.42832     78.56967    18.354872    27.558923 
   30600    242.53304   -282.24207    263624.46   -25789.078    1962.7955   -27751.873   -720.96016    261.49218     78.56992    18.355599    27.565037 
   30800    235.38132   -202.31684    263624.46   -25811.708    1904.9174   -27716.626   -392.70338    261.88506    78.569916    18.353368    27.549411 
   31000    236.70594   -287.76091    263624.46   -25733.059    1915.6374   -27648.696   -797.10468    263.82456    78.571443    18.352213    27.544826 
   31200    242.96601   -199.97632    263624.46    -25700.65    1966.2995   -27666.949   -360.05456    264.39436    78.571136    18.353189    27.531524 
   31400    243.02929   -222.56046    263624.46   -25754.866    1966.8116   -27721.678   -494.32355    266.03379    78.572277    18.350864    27.541713 
   31600    238.01207   -251.41924    263624.46   -25696.533    1926.2077   -27622.741   -590.29588    267.32876    78.573094    18.351547     27.56844 
   31800    239.62287   -232.49456    263624.46   -25643.491    1939.2438   -27582.735   -557.18616    267.94779    78.574912    18.353315    27.543827 
   32000    239.21635   -147.67541    263624.46    -25720.29    1935.9539   -27656.243   -185.35601    270.54205     78.57507    18.353047    27.542785 
   32200    235.29017   -320.29826    263624.46    -25815.74    1904.1796    -27719.92   -925.27528    272.20207    78.573178    18.354602    27.532013 
   32400    239.39684   -266.72527    263624.46   -25757.761    1937.4146   -27695.175   -700.08433    273.14495    78.572845    18.355562    27.522216 
   32600    239.90143   -328.45578    263624.46   -25691.684    1941.4981   -27633.182   -936.16069    275.19151     78.57372    18.356935    27.497567 
   32800    243.86465    -301.6059    263624.46   -25650.297     1973.572   -27623.869    -855.3729    275.77051     78.57378    18.359356    27.485302 
   33000    245.68318   -214.34858    263624.46   -25680.565    1988.2892   -27668.854   -448.83932    276.39394    78.574191    18.360642    27.473245 
   33200    233.00114   -237.80601    263624.46   -25737.416    1885.6547   -27623.071   -558.61029    278.58708    78.574132    18.359466    27.469251 
   33400     245.8195    -220.8991    263624.46   -25726.366    1989.3925   -27715.759   -464.39179    280.36099    78.573303     18.36049    27.461841 
   33600    240.45119   -278.27972    263624.46   -25789.967    1945.9473   -27735.914   -736.20067    281.69004    78.572782    18.362731    27.459186 
   33800    244.34457   -400.80574    263624.46   -25613.399     1977.456   -27590.855   -1275.5285    282.80955    78.572457    18.364366    27.456394 
   34000    239.08268   -237.92393    263624.46   -25715.292    1934.8721   -27650.164   -576.68573    283.11125    78.571094    18.362694    27.466382 
   34200    244.18548    -294.1771    263624.46    -25682.96    1976.1685   -27659.128   -802.23778    285.85544    78.570231    18.360661    27.482172 
   34400    239.67654   -146.26418    263624.46   -25727.873    1939.6781   -27667.551    -122.6759    289.95292    78.569795    18.359647    27.475891 
   34600    242.47199   -172.32137    263624.46   -25574.302    1962.3014   -27536.603   -297.53831    290.85845    78.572054    18.357531    27.454995 
   34800    240.43013   -230.56054    263624.46   -25648.727    1945.7768   -27594.503   -500.83444    291.46434    78.571747    18.356942    27.454158 
   35000    239.59633   -269.84678    263624.46   -25656.818     1939.029   -27595.847   -688.47444    293.83813    78.570909    18.355956    27.454127 
   35200    241.35102   -299.49867    263624.46   -25612.411    1953.2295   -27565.641   -818.78313    294.50602    78.569658    18.356351    27.470325 
   35400    246.84756   -166.97373    263624.46   -25676.695    1997.7124   -27674.407   -277.30049    295.86078    78.568734    18.356103    27.473126 
   35600    242.13133   -395.98288    263624.46   -25666.076    1959.5444    -27625.62   -1277.7597    298.08012    78.567457    18.354367    27.471675 
   35800    246.19527   -317.21849    263624.46   -25557.602    1992.4335   -27550.035   -946.58602    299.58423    78.567747    18.354213    27.476622 
   36000    240.83242   -242.33198    263624.46   -25690.715    1949.0325   -27639.747   -582.89062    300.54283    78.568911     18.35181    27.471961 
   36200    238.22084   -280.58223    263624.46   -25691.381    1927.8973   -27619.278   -770.19175    300.78865    78.568245    18.352768    27.458164 
   36400    236.81929   -417.22902    263624.46   -25734.335    1916.5546   -27650.889   -1386.5466    301.84429     78.56939    18.352608    27.458908 
   36600    239.99741   -114.86264    263624.46   -25672.081    1942.2749   -27614.356   -9.8488986    303.98676    78.567853    18.353187    27.465178 
   36800    233.57431   -152.87448    263624.46   -25732.213    1890.2933   -27622.507   -156.52203    305.84447    78.567974    18.352616    27.446177 
   37000    238.43588   -275.81879    263624.46   -25692.359    1929.6376   -27621.997   -739.80555    307.47242    78.568967     18.35188    27.431644 
   37200    237.94991   -283.92797    263624.46   -25750.712    1925.7047   -27676.417   -794.71418    308.00972    78.567494    18.351228    27.419417 
   37400    238.53462    -308.5011    263624.46   -25743.416    1930.4366   -27673.853   -866.61265    308.49714    78.566688    18.351982    27.401494 
   37600    241.26804     -118.075    263624.46   -25728.135    1952.5579   -27680.693   -8.9736134    309.49496     78.56683    18.352022    27.399144 
   37800    232.47003   -341.41085    263624.46   -25825.418    1881.3565   -27706.774   -1035.8906    311.87021    78.567003    18.351934    27.411693 
   38000    240.58203   -291.17106    263624.46   -25732.581    1947.0062   -27679.588   -761.14725    313.93015    78.567059    18.352197     27.42016 
   38200    240.23904   -295.71626    263624.46   -25735.068    1944.2303   -27679.298   -831.70556    316.82797    78.567005     18.35096    27.433604 
   38400     241.2039   -239.34619    263624.46   -25709.626    1952.0388   -27661.665   -560.90759    318.20533    78.567549    18.352968    27.433203 
   38600    239.49787   -223.50345    263624.46   -25731.024    1938.2321   -27669.257   -495.71479    317.45254     78.56779    18.350842      27.4192 
   38800    232.14868   -407.17692    263624.46    -25806.82    1878.7559   -27685.576   -1356.4834    320.54292    78.568946     18.35086    27.424689 
   39000    237.97617   -364.25419    263624.46   -25668.759    1925.9172   -27594.676    -1120.824    321.65821    78.569989    18.351397    27.430494 
   39200     234.1703   -242.45766    263624.46   -25777.442    1895.1167   -27672.559   -575.27734    324.58641    78.568596    18.351792    27.442129 
   39400    243.51993   -325.70354    263624.46   -25711.529    1970.7823   -27682.312   -989.99746    325.98576    78.567854    18.350274     27.43727 
   39600    242.80505   -220.24786    263624.46   -25688.775    1964.9968   -27653.771   -500.63453    326.67396     78.56735     18.35009    27.449259 
   39800    240.48142   -161.95126    263624.46    -25742.91    1946.1919   -27689.102   -214.38253    326.64599    78.567973    18.349267    27.438022 
   40000    237.76849   -300.99539    263624.46   -25755.364    1924.2364     -27679.6   -880.94512    326.35041    78.568643    18.350172     27.43729 
   40200    240.19011   -229.90261    263624.46   -25720.089    1943.8344   -27663.924    -542.3448    326.63384    78.567742    18.351592     27.44324 
   40400    236.34483   -302.44977    263624.46   -25802.291    1912.7149   -27715.006   -846.20266    328.36832    78.568862    18.350946    27.442567 
   40600    238.24284   -432.89417    263624.46   -25730.136    1928.0753   -27658.211   -1419.3627     330.6723    78.568153    18.349779    27.440546 
   40800    237.96036   -171.83679    263624.46   -25739.951    1925.7893    -27665.74   -220.18168    331.05692    78.567667    18.351185    27.424405 
   41000    241.25793   -137.42938    263624.46    -25757.32    1952.4761   -27709.796   -88.984778    333.62512    78.567051    18.352315     27.43249 
   41200    244.07385    -304.0741    263624.46   -25656.863    1975.2651   -27632.128   -899.47032    336.11129    78.566521    18.353649    27.431342 
   41400    244.10055   -225.08783    263624.46   -25731.155    1975.4811   -27706.636   -496.32288    336.22204    78.567332    18.356322    27.422867 
   41600    238.13991   -406.62557    263624.46   -25723.699    1927.2423   -27650.941   -1288.7512    338.04084    78.567726    18.356617    27.426213 
   41800    242.07657   -310.48644    263624.46    -25734.73    1959.1013   -27693.831   -892.36148    340.35608    78.567897    18.354877    27.435742 
   42000      239.978   -184.13305    263624.46   -25763.805    1942.1178   -27705.923   -304.45345    341.10064    78.566528    18.353382    27.443494 
   42200    241.63997   -109.83963    263624.46   -25785.288    1955.5679   -27740.856    -13.03988    344.50618     78.56538    18.355271    27.443803 
   42400    240.04807   -219.20972    263624.46   -25757.217    1942.6848   -27699.901   -466.75485    347.77444    78.564487    18.355445    27.430545 
   42600    236.30491   -311.80007    263624.46    -25725.57    1912.3918   -27637.962   -926.76439    349.70471     78.56473    18.357264    27.442483 
   42800     241.5092   -313.50512    263624.46   -25740.704    1954.5097   -27695.213   -896.68293      352.526    78.565589    18.357766    27.449835 
   43000    239.55469   -354.63526    263624.46   -25766.525     1938.692   -27705.217   -1033.6595    354.70041    78.565843     18.35892    27.432613 
   43200     236.5038    -176.7774    263624.46   -25724.061    1914.0014   -27638.062   -285.52388    356.28991    78.565252    18.357541    27.418736 
   43400    234.95358   -193.01742    263624.46   -25722.565    1901.4556   -27624.021   -347.23931    357.98342    78.564116    18.356486    27.411381 
   43600    238.60763   -239.07197    263624.46   -25735.703    1931.0275   -27666.731   -544.76772    357.69216     78.56305    18.353697    27.408491 
   43800    237.59027   -325.31364    263624.46   -25786.589    1922.7941   -27709.383   -978.05269    357.80308    78.562708    18.353014    27.405985 
   44000    235.15559   -206.99717    263624.46   -25825.232    1903.0905   -27728.323   -428.55312    359.46585    78.560736    18.351692    27.406102 
   44200    241.85705   -270.64341    263624.46   -25743.052    1957.3247   -27700.377   -703.02461    359.63036    78.560899    18.351547    27.389847 
   44400    238.56497    -350.7023    263624.46   -25767.396    1930.6823   -27698.078   -1064.9709    361.55881    78.560151    18.349866     27.38319 
   44600      239.909    -229.6949    263624.46   -25808.417    1941.5594   -27749.976   -544.25805    365.87982    78.558723    18.348863    27.390248 
   44800    240.94785    -62.18513    263624.46   -25780.192    1949.9667   -27730.159    235.46058    366.45048     78.55919    18.348847    27.385874 
   45000    240.92823    -354.8694    263624.46   -25740.583    1949.8079   -27690.391   -1097.0988    366.63212    78.560614    18.347688    27.391073 
   45200    238.30418   -346.83096    263624.46   -25698.586    1928.5717   -27627.158   -1037.6862    368.23341    78.559084    18.347965    27.375102 
   45400    234.86822   -282.04441    263624.46   -25722.838    1900.7648   -27623.603   -754.60749    368.91343    78.557009    18.348855    27.356319 
   45600    239.04853   -382.80455    263624.46   -25662.781    1934.5957   -27597.376   -1239.5099    369.74117     78.55714     18.34911    27.367475 
   45800    238.93736   -226.16931    263624.46   -25678.876     1933.696   -27612.572   -507.27078    371.63944    78.556973    18.344784    27.364471 
   46000    242.17913   -311.07672    263624.46   -25653.934    1959.9313   -27613.866   -895.28173    372.91069    78.557381     18.34236    27.340411 
   46200    242.65643   -259.55581    263624.46    -25643.55     1963.794   -27607.344   -664.09935    372.37852    78.556881    18.341275    27.339981 
   46400    240.63739   -320.18665    263624.46   -25709.744    1947.4542   -27657.198   -919.88354    373.91464    78.556412    18.340614    27.331515 
   46600    240.37209   -339.22276    263624.46   -25693.075    1945.3071   -27638.382   -1002.6015    376.45207    78.556539     18.34108    27.341666 
   46800    241.09957   -418.97472    263624.46   -25623.293    1951.1945   -27574.488   -1384.7901    379.10713    78.554333    18.341246    27.335049 
   47000    240.04766   -203.90093    263624.46   -25685.552    1942.6816   -27628.234   -434.82828    381.99033    78.555564     18.34214    27.346946 
   47200    233.76755    -397.6101    263624.46   -25703.944    1891.8573   -27595.802   -1256.3479    382.89243    78.556473    18.342307    27.353987 
   47400    240.14755   -466.96085    263624.46   -25682.461    1943.4899   -27625.951   -1593.7142    384.18134     78.55787    18.343924    27.345097 
   47600    241.88482   -298.42784    263624.46   -25646.336    1957.5495   -27603.886   -791.43772    386.33709    78.557835    18.344765    27.369115 
   47800    241.79608   -277.63314    263624.46   -25667.465    1956.8314   -27624.296     -746.542    387.24724    78.558942    18.345551    27.371096 
   48000    240.04555   -108.50639    263624.46   -25685.233    1942.6645   -27627.898    13.864794    386.26391    78.560266    18.344835     27.39897 
   48200    239.17861    -347.7197    263624.46   -25692.822    1935.6484   -27628.471   -1079.4897    387.96825    78.562636    18.346042    27.389626 
   48400    238.24474   -146.16327    263624.46   -25750.655    1928.0907   -27678.746   -149.23496    387.95061    78.563439    18.345559    27.401373 
   48600    241.96811   -300.85754    263624.46   -25815.355    1958.2235   -27773.579   -842.42346    391.44843    78.564235    18.348098    27.394657 
   48800    237.22113   -319.01394    263624.46   -25769.089    1919.8067   -27688.896   -918.38664     392.3221    78.564898    18.348531    27.400191 
   49000    238.48176   -350.09185    263624.46    -25762.45    1930.0089   -27692.459   -1072.2169    391.82012    78.565552    18.348536    27.399657 
   49200    238.49978   -407.17065    263624.46   -25734.576    1930.1547   -27664.731   -1337.4001    393.08099    78.565154    18.348852    27.409312 
   49400    238.26989   -408.31231    263624.46   -25847.309    1928.2943   -27775.603   -1331.3062    394.81888    78.565443    18.348101     27.40096 
   49600    240.70566   -377.83647    263624.46   -25796.158    1948.0067   -27744.165   -1186.1164    394.15467    78.567202    18.346738    27.404146 
   49800    234.54968   -310.63085    263624.46   -25827.838    1898.1869   -27726.025   -877.37119    394.80319    78.569428    18.346812    27.401294 
   50000     232.6818   -307.72385    263624.46   -25826.459    1883.0704   -27709.529   -863.17489    396.75983    78.569953    18.347941    27.401041 
   50200    235.40078   -239.14369    263624.46   -25746.414    1905.0748   -27651.488   -538.48197    397.57776    78.571534    18.347369    27.389276 
   50400    233.03525   -199.35309    263624.46   -25758.374    1885.9308   -27644.304   -391.66587    399.07122    78.573099    18.347928    27.360087 
   50600    242.47933   -240.71467    263624.46   -25638.488    1962.3608   -27600.848   -582.49417     400.0776    78.573123     18.34644    27.342262 
   50800    235.72125   -283.31321    263624.46    -25824.22    1907.6684   -27731.888   -780.97014    401.28453    78.572551    18.345122    27.324833 
   51000     238.1886   -239.55519    263624.46   -25811.263    1927.6363   -27738.899   -540.14013    403.58991    78.571829    18.344913    27.314297 
   51200    236.39303   -341.51654    263624.46   -25885.614     1913.105   -27798.719   -1046.4003    405.03232    78.571971    18.344578    27.308066 
   51400    241.72865   -278.68373    263624.46   -25841.643    1956.2856   -27797.928   -765.45749    406.18338    78.571099    18.345149    27.301026 
   51600    240.07206   -304.95229    263624.46   -25815.664     1942.879   -27758.543   -846.73352    407.54919    78.570757    18.346781    27.286336 
   51800    233.60744   -268.24116    263624.46   -25792.519    1890.5615    -27683.08   -680.69433    408.52648    78.571525    18.348573     27.30587 
   52000    238.53548   -123.76558    263624.46   -25857.839    1930.4436   -27788.283    2.5825825    409.08094    78.569742    18.350351    27.302682 
   52200    234.24509    -374.6472    263624.46   -25927.298    1895.7219    -27823.02   -1150.2697    413.06304    78.570054    18.351585    27.307837 
   52400     231.4023   -46.067112    263624.46   -25959.063    1872.7155   -27831.779    306.88114    413.21466    78.568936     18.35359    27.306493 
   52600    243.03174   -345.32579    263624.46   -25760.179    1966.8314    -27727.01   -1020.0017    416.36773    78.566817    18.354271    27.315811 
   52800    245.32946   -172.01768    263624.46   -25697.437    1985.4266   -27682.863   -270.15675     415.9772    78.566158    18.354567    27.313987 
   53000    242.49683   -149.84339    263624.46   -25699.039    1962.5024   -27661.541   -163.47807    416.57943    78.565366    18.357491    27.321438 
   53200    237.89513   -378.42621    263624.46   -25818.771    1925.2613   -27744.032   -1229.0663    418.14738     78.56433    18.359403    27.326744 
   53400    241.88208   -223.89597    263624.46   -25729.274    1957.5273   -27686.801   -486.58119    417.80992    78.562327    18.358004    27.327091 
   53600     238.4595   -236.76729    263624.46   -25794.872    1929.8287   -27724.701   -536.50801    420.91401     78.56007    18.357034    27.330223 
   53800    242.52617   -314.86525    263624.46   -25751.629    1962.7398   -27714.369   -859.92783    422.61199    78.560767    18.357921    27.336221 
   54000    230.57806   -276.34329    263624.46   -25760.685     1866.045    -27626.73   -684.37298    424.04999    78.563758    18.358253    27.344712 
   54200    246.11102   -244.53218    263624.46    -25668.24    1991.7517   -27659.991   -590.63921    424.65816    78.563958    18.359863    27.346898 
   54400    238.05907   -198.84532    263624.46   -25713.294    1926.5881   -27639.882   -430.21942    426.39538    78.563679    18.358405    27.331973 
   54600    237.41306   -171.91266    263624.46   -25753.014      1921.36   -27674.374   -290.09624    428.44458     78.56303    18.360845    27.333805 
   54800    242.38252   -241.90501    263624.46   -25744.713    1961.5774    -27706.29   -544.48088    428.54862     78.56285    18.362489    27.343844 
   55000    238.27933   -294.40467    263624.46   -25712.164    1928.3707   -27640.535    -770.8031    429.78903     78.56188    18.367103    27.330048 
   55200    236.83416   -300.19832    263624.46   -25836.258     1916.675   -27752.933   -811.14958    432.39344    78.560406    18.368362    27.342614 
   55400    235.96147   -198.11841    263624.46   -25759.988    1909.6124     -27669.6   -346.29165    433.80858    78.561564    18.367539    27.339846 
   55600    242.99732   -367.52861    263624.46   -25714.502    1966.5528   -27681.055    -1131.836    434.81762    78.562797    18.370185    27.350974 
   55800    242.73937   -254.87253    263624.46   -25717.163    1964.4653   -27681.628   -632.71559    436.43145    78.563384    18.371398     27.34999 
   56000    238.66194   -245.87015    263624.46   -25736.509     1931.467   -27667.976   -554.64614    438.19209    78.563634    18.372709    27.352133 
   56200    237.55145   -216.51512    263624.46   -25726.244      1922.48   -27648.724   -454.24477    439.56954    78.560273    18.376158    27.339513 
   56400    240.33469   -288.25538    263624.46   -25849.156    1945.0044   -27794.161   -824.32387     440.0959    78.558268    18.378448    27.346662 
   56600    231.22062   -233.49743    263624.46   -25865.358    1871.2452   -27736.603   -514.41567     440.5346       78.558    18.378743     27.34847 
   56800    238.19165    -322.8275    263624.46   -25764.983     1927.661   -27692.644   -922.20072    442.16342    78.557184    18.381967    27.346845 
   57000    234.84041   -190.94523    263624.46   -25882.549    1900.5397   -27783.088   -337.47924    443.06947    78.557133    18.381713    27.346959 
   57200    243.60875   -244.44953    263624.46   -25771.551    1971.5011   -27743.052   -583.81642    445.46913     78.55618    18.381441    27.351125 
   57400    238.09925   -300.47688    263624.46   -25793.479    1926.9132   -27720.392   -770.20531    445.45045    78.556179    18.380666    27.360767 
   57600      234.164   -216.02096    263624.46   -25834.274    1895.0657    -27729.34   -435.95655    446.61879    78.555533    18.383182     27.35731 
   57800    240.85809   -201.17535    263624.46     -25728.7    1949.2402    -27677.94   -354.73511    449.39457    78.554766    18.386138    27.351547 
   58000    239.14962   -307.15502    263624.46    -25727.88    1935.4138   -27663.294   -857.56782    450.90827    78.554982    18.387508    27.346644 
   58200    241.63259   -250.88552    263624.46   -25704.414    1955.5082   -27659.922   -555.78769    451.99019     78.55548    18.389476    27.337825 
   58400    235.84843   -266.20554    263624.46   -25717.382    1908.6976    -27626.08   -667.43566    451.38669    78.557408    18.388763    27.342838 
   58600    238.18208   -369.51409    263624.46   -25734.124    1927.5836   -27661.708   -1183.6948    452.36969    78.556657    18.386502    27.368934 
   58800    233.72107   -352.60875    263624.46   -25722.376    1891.4811   -27613.857   -996.47783    453.77431    78.556627    18.385895    27.397676 
   59000    244.34954   -199.32215    263624.46   -25626.254    1977.4963    -27603.75   -312.26193    453.47818    78.556324    18.385293    27.405856 
   59200    243.96926   -314.50876    263624.46   -25664.089    1974.4186   -27638.508   -869.68598    455.96332    78.554124     18.38402    27.406978 
   59400    239.58732   -173.52668    263624.46   -25692.449     1938.956   -27631.405   -233.65851    459.66229    78.552796    18.387147    27.405602 
   59600    240.47546   -112.57359    263624.46    -25707.25    1946.1437   -27653.394   -1.2254632    458.80332    78.550815    18.387842    27.420063 
   59800    235.98634   -356.72814    263624.46   -25835.937    1909.8137    -27745.75   -1041.2869    458.64736    78.551486    18.388239    27.415971 
   60000    238.05477   -214.60097    263624.46   -25766.706    1926.5533    -27693.26   -454.60486    458.10889    78.551246    18.387947    27.417424 
   60200    236.65026   -295.67445    263624.46   -25819.473    1915.1867    -27734.66   -827.97594    459.45315    78.551126     18.38679    27.415749 
   60400    241.92377   -303.47913    263624.46   -25726.371    1957.8647   -27684.236    -852.7969    461.76249      78.5503    18.387636    27.402162 
   60600    235.80536   -77.849585    263624.46   -25812.676     1908.349   -27721.025    167.09761    461.15504    78.550727    18.386772    27.395511 
   60800    242.47436   -210.88918    263624.46   -25685.897    1962.3205   -27648.217   -435.91766    465.35897    78.552406    18.387678    27.380924 
   61000     235.5307   -253.63183    263624.46    -25760.72    1906.1263   -27666.846    -616.0275    465.61824    78.552985    18.387494    27.361958 
   61200    238.31108   -424.81318    263624.46   -25721.278    1928.6275   -27649.906   -1357.9669    468.19148    78.551948     18.38611    27.357377 
   61400    233.60062   -327.75285    263624.46   -25730.253    1890.5063   -27620.759   -965.27491    467.29904    78.552166    18.385043    27.345921 
   61600    241.19865   -217.52556    263624.46   -25766.072    1951.9964   -27718.068   -439.71763    467.98422    78.550251    18.384946    27.351192 
   61800    236.70689   -312.85689    263624.46   -25776.352     1915.645   -27691.997   -855.79746    471.12779     78.55001    18.384934    27.352535 
   62000    242.13038   -190.64213    263624.46   -25759.932    1959.5368   -27719.469   -318.60298    471.71444     78.54815    18.385343    27.352811 
   62200    237.09877   -279.84263    263624.46   -25732.019    1918.8165   -27650.835   -710.62719    472.76832    78.547781    18.385611    27.356388 
   62400    240.04008   -333.82046    263624.46   -25727.464    1942.6202   -27670.084   -978.06925    473.29517    78.547553    18.382937    27.365848 
   62600    239.74763   -370.70821    263624.46   -25747.658    1940.2534   -27687.911   -1087.5765    476.40012    78.546781    18.380516    27.344279 
   62800    237.09678   -405.60974    263624.46   -25761.369    1918.8004   -27680.169   -1278.0564    476.37385    78.544522    18.380593    27.337804 
   63000    238.24619   -327.97644    263624.46   -25774.112    1928.1024   -27702.215   -929.19285    477.11197     78.54403    18.382278    27.360329 
   63200    238.99631   -298.81356    263624.46   -25702.993     1934.173   -27637.166   -800.68827    476.78627    78.544545    18.384032    27.360133 
   63400     233.3359   -341.46967    263624.46   -25801.657    1888.3639   -27690.021   -974.86474    475.81849    78.545137    18.382795    27.376948 
   63600    229.13379   -427.75219    263624.46   -25814.388    1854.3567   -27668.745   -1383.9211    478.01142    78.543343    18.381965    27.374456 
   63800    233.90898   -194.42464    263624.46   -25849.548    1893.0018    -27742.55   -336.07727    477.57643    78.544025     18.38173    27.374503 
   64000    241.25452   -306.80508    263624.46   -25725.462    1952.4485   -27677.911   -811.16791    477.52879    78.544369    18.383192     27.37731 
   64200    237.80777    -161.9421    263624.46    -25719.69    1924.5543   -27644.244   -242.40608    479.84597    78.545476    18.383516    27.384429 
   64400    236.13031   -361.50499    263624.46   -25740.898    1910.9788   -27651.877   -1101.5889    482.31879    78.547333    18.384836    27.389271 
   64600     242.0407   -295.33323    263624.46    -25812.14     1958.811   -27770.951   -794.38876    481.07391    78.547494    18.386423    27.373712 
   64800    240.78222   -150.74323    263624.46    -25765.19    1948.6263   -27713.817   -111.36099    479.81497    78.547907    18.386639    27.385562 
   65000    240.58352   -259.81949    263624.46   -25690.886    1947.0182   -27637.904   -650.93272    481.56734    78.547313    18.386315    27.388472 
   65200    241.57827   -369.20034    263624.46   -25762.816    1955.0686   -27717.884   -1113.2228    483.19082    78.545314    18.384551    27.395582 
   65400    244.45856   -206.12647    263624.46   -25742.371    1978.3785    -27720.75   -387.66219    484.13848     78.54442    18.383462    27.393604 
   65600    238.96504   -256.27596    263624.46   -25694.614      1933.92   -27628.534   -656.36495    483.68569    78.542974    18.384248    27.404735 
   65800    233.70553   -349.30829    263624.46   -25713.551    1891.3553   -27604.906   -1018.0039    485.46259    78.542775    18.384057    27.404992 
   66000    239.07869   -293.70054    263624.46   -25706.616    1934.8398   -27641.456   -762.98635    486.24614    78.542304    18.382143    27.394975 
   66200    237.21296   -402.74869    263624.46   -25748.191    1919.7406   -27667.931   -1258.9926    486.81247    78.542226      18.3802    27.411607 
   66400    240.47634   -232.52274    263624.46   -25738.075    1946.1508   -27684.226   -542.70214    485.50272    78.543051    18.379648    27.399993 
   66600      240.827   -255.37817    263624.46    -25771.98    1948.9887   -27720.969   -631.54977    487.82725     78.54205    18.379678    27.399608 
   66800    240.95849   -198.22512    263624.46   -25817.079    1950.0528   -27767.132   -342.43918    489.70367     78.54238    18.380954     27.37119 
   67000    231.59397   -277.07513    263624.46   -25847.429    1874.2667   -27721.696   -756.10043    490.00675     78.54119      18.3827    27.379824 
   67200    236.23798   -144.14253    263624.46   -25755.942    1911.8502   -27667.792   -150.42703    490.23612    78.540858    18.383551    27.369446 
   67400    241.15327   -523.32848    263624.46   -25691.327    1951.6291   -27642.956   -1825.6785    492.36324    78.540118    18.384006    27.375108 
   67600    241.65186   -240.18949    263624.46   -25608.212    1955.6641   -27563.876   -585.89849    492.58792    78.540516    18.382129    27.376895 
   67800    241.44116   -148.92542    263624.46   -25704.533     1953.959   -27658.492   -101.35006    494.76026    78.540698    18.383622    27.345604 
   68000     237.2614   -316.07429    263624.46   -25731.152    1920.1326   -27651.285    -932.5383    495.60429    78.540735    18.382939    27.338464 
   68200    234.40456   -159.53622    263624.46   -25752.591    1897.0125   -27649.604   -218.41447    495.59757    78.540586    18.383524    27.352511 
   68400    243.07528   -336.36926    263624.46   -25663.926    1967.1838   -27631.109    -991.4109    496.65714    78.541274    18.383573    27.366406 
   68600    241.81613   -144.41575    263624.46   -25713.277    1956.9936    -27670.27     -158.301    498.29251    78.542783    18.384403    27.370057 
   68800    244.27212   -320.44301    263624.46   -25710.852    1976.8697   -27687.721   -921.07482    499.83245     78.54272    18.385859    27.364994 
   69000    241.06954   -321.71867    263624.46    -25741.28    1950.9515   -27692.232   -898.18983    501.22577    78.542124    18.385798    27.393016 
   69200    237.41957   -235.53371    263624.46   -25776.625    1921.4127   -27698.037   -521.45416    503.85437    78.541563     18.38635    27.386297 
   69400    232.25181   -295.34364    263624.46    -25802.59    1879.5905   -27682.181   -780.25912    504.04324    78.539904    18.384893    27.403146 
   69600    246.29879   -249.98027    263624.46   -25580.275    1993.2713   -27573.546   -624.22068    506.27281    78.542296    18.382521    27.399036 
   69800    243.95051    -368.5787    263624.46   -25705.304    1974.2669   -27679.571   -1113.7236    507.22757    78.543638    18.380786    27.405275 
   70000    244.32272   -319.30667    263624.46   -25654.379    1977.2792   -27631.658   -911.83268    507.77142    78.544522    18.378417    27.398772 
   70200    239.01385   -302.59965    263624.46   -25626.535     1934.315    -27560.85   -881.13588     508.1331    78.543973    18.376004    27.408049 
   70400    248.54363   -351.02726    263624.46   -25575.564    2011.4386   -27587.003   -1108.1212    509.14494    78.543694    18.376291    27.419705 
   70600     235.3875   -283.07864    263624.46   -25683.081    1904.9674   -27588.049   -789.82315     510.1708    78.543998    18.375376    27.415211 
   70800    238.83679   -289.81963    263624.46   -25700.129    1932.8821   -27633.011   -802.31641    509.48869    78.545828    18.377466    27.418692 
   71000    240.31687   -309.95724    263624.46    -25719.68    1944.8602    -27664.54   -879.97494    508.84284    78.546188    18.378219    27.400621 
   71200    239.22726   -127.28885    263624.46   -25708.899    1936.0421   -27644.941   -75.913707    510.32481    78.547013     18.38149     27.41319 
   71400     244.2383   -184.21235    263624.46   -25746.342     1976.596   -27722.938   -366.36404    512.63295    78.547446    18.383899    27.416937 
   71600    242.70998   -338.84101    263624.46   -25720.077    1964.2275   -27684.304   -1024.4113    513.70742     78.54804    18.384142    27.407428 
   71800    237.36566   -219.04761    263624.46   -25819.959    1920.9764   -27740.935   -440.63375    513.45911    78.548825    18.382625    27.411924 
   72000    238.61892   -282.72614    263624.46   -25774.216    1931.1189   -27705.335   -777.99507    517.38119    78.548083    18.383832    27.397906 
   72200    241.08031   -368.10453    263624.46   -25597.007    1951.0387   -27548.046    -1180.612    518.70313    78.547273    18.382998    27.397919 
   72400    239.56424   -469.48351    263624.46   -25712.651    1938.7693   -27651.421   -1589.7818    521.10377    78.545926      18.3806    27.404401 
   72600    243.02146   -297.82953    263624.46   -25596.139    1966.7482   -27562.888   -846.69779    522.09316    78.545842    18.379101    27.408241 
   72800    238.74474    -275.8224    263624.46   -25655.337    1932.1372   -27587.475   -736.99245     524.1912    78.545438    18.377134    27.402156 
   73000    240.74715   -376.19459    263624.46   -25710.899    1948.3424   -27659.241   -1210.8653    527.93481    78.546375    18.375187    27.405595 
   73200    241.38908   -345.77848    263624.46   -25624.958    1953.5375   -27578.496   -1068.9479    528.51294    78.545822    18.374939    27.405597 
   73400    241.54013   -209.82362    263624.46   -25617.188      1954.76   -27571.948    -425.1733    529.38347    78.547533    18.376279    27.412018 
   73600     244.3665   -244.19047    263624.46     -25597.4    1977.6335   -27575.033    -618.6691    531.57615    78.547503    18.375629    27.422804 
   73800    233.88716   -135.97073    263624.46   -25757.704    1892.8252   -27650.529   -118.74571    532.59452    78.548158    18.375244    27.423477 
   74000    234.35144   -431.00318    263624.46   -25750.453    1896.5826   -27647.036   -1441.5745    534.39336    78.546193    18.372483     27.42058 
   74200    232.87393   -307.65912    263624.46   -25713.082    1884.6253   -27597.707   -844.43943    534.46236    78.545078    18.370882    27.426872 
   74400    243.88492   -234.11535    263624.46   -25646.857    1973.7361   -27620.593   -540.02227    536.85795    78.545412     18.37062    27.422374 
   74600    228.72038    -275.0498    263624.46   -25733.265     1851.011   -27584.276   -720.56229    537.50682    78.544222    18.369079    27.419988 
   74800    237.13719   -129.95149    263624.46   -25735.714    1919.1274   -27654.842   -60.262622    538.63184    78.542801     18.36963    27.425162 
   75000    237.61157   -441.74194    263624.46   -25745.944    1922.9665    -27668.91   -1477.5621    541.51195    78.541937    18.370001    27.431921 
   75200    242.04085   -169.96666    263624.46   -25694.645    1958.8122   -27653.457   -241.08668    543.36204    78.540029    18.368157    27.441195 
   75400    238.54873   -222.67333    263624.46   -25751.283    1930.5509   -27681.834   -501.28554    544.99584    78.540366     18.37076      27.4366 
   75600    242.01256    -232.7166    263624.46   -25742.597    1958.5833    -27701.18   -542.09038    546.43145    78.540911    18.372849       27.424 
   75800    245.22004   -286.64519    263624.46   -25652.972    1984.5411   -27637.513     -771.699    546.57143    78.539365    18.372916     27.42738 
   76000    244.13126   -177.92575    263624.46   -25669.204    1975.7297   -27644.934   -303.08942    545.85646    78.539024    18.373787    27.418811 
   76200    234.55542   -436.77575    263624.46   -25800.173    1898.2334   -27698.406   -1442.5214    547.27952    78.539738    18.375363    27.405736 
   76400    233.70737   -218.38316    263624.46    -25776.28    1891.3702   -27667.651   -496.31279    547.82053    78.541158    18.378124    27.380581 
   76600    242.09453    -389.2194    263624.46   -25747.553    1959.2467     -27706.8   -1247.0216    549.96033    78.541232    18.379102    27.357656 
   76800    235.41947   -341.45147    263624.46   -25786.596    1905.2261   -27691.822   -1048.4398    550.34305    78.542075    18.379097    27.347528 
   77000    245.91724   -215.21226    263624.46    -25722.74    1990.1834   -27712.923   -452.50197    552.11279    78.544235    18.380839    27.352966 
   77200    237.46886   -251.81682    263624.46   -25778.119    1921.8116    -27699.93   -597.56751    551.07152    78.544096    18.381085    27.348061 
   77400    237.57443   -256.89712    263624.46   -25753.711    1922.6659   -27676.377   -653.57802    552.82042    78.544281    18.381103    27.337557 
   77600     230.3527   -428.35501    263624.46   -25808.213    1864.2212   -27672.434   -1372.4932    555.08263    78.544993    18.382266    27.328088 
   77800    238.86638    -341.7838    263624.46   -25746.668    1933.1215    -27679.79   -1008.1375    556.24886    78.547009    18.379865    27.332124 
   78000    238.38604   -419.89119    263624.46   -25732.166    1929.2342     -27661.4    -1322.476    555.37524    78.547804    18.380456    27.332237 
   78200    238.52997   -293.60066    263624.46   -25763.299     1930.399   -27693.698   -888.96206    556.83744    78.547317    18.380395    27.334233 
   78400    241.08454    -134.3143    263624.46   -25766.553    1951.0729   -27717.626   -75.346756    557.32001    78.546242    18.378842    27.343484 
   78600    238.67658   -247.30511    263624.46   -25709.869    1931.5855   -27641.455   -597.72566    559.17529    78.546093     18.37839    27.341527 
   78800    242.97603    -320.1066    263624.46   -25723.261    1966.3806   -27689.642   -931.96958    558.67872    78.545934    18.377984    27.353085 
   79000    240.49652   -419.28379    263624.46   -25760.482    1946.3141   -27706.796   -1382.5509    560.74239    78.547476    18.376393    27.383269 
   79200    239.93964    -233.8962    263624.46    -25703.17    1941.8073   -27644.977    -515.1948    559.41196    78.547715     18.37474    27.376241 
   79400    239.68389   -167.75272    263624.46   -25678.106    1939.7376   -27617.843   -234.89764    561.22619    78.546475    18.375757    27.382891 
   79600     234.8812    -25.87024    263624.46   -25770.327    1900.8699   -27671.197     429.6824    566.37782    78.547127    18.374602    27.371631 
   79800    241.02811   -163.34598    263624.46   -25761.466    1950.6163   -27712.082   -218.09613    565.47738    78.546473    18.374477    27.374154 
   80000    241.84997   -234.31646    263624.46   -25824.834    1957.2674   -27782.101    -502.9069    565.83028    78.546016    18.374426    27.368853 
   80200    237.92095   -363.16018    263624.46   -25835.336    1925.4703   -27760.806   -1127.3789    566.67015    78.546506    18.370385    27.364175 
   80400    239.55544   -276.46724    263624.46    -25837.08    1938.6981   -27775.778   -746.26785    567.85179    78.546011    18.369295    27.369798 
   80600    235.71138   -321.18314    263624.46    -25769.09    1907.5885   -27676.679   -903.08125    570.54144    78.544436    18.369408    27.353304 
   80800    238.96916   -372.34604    263624.46   -25760.991    1933.9534   -27694.945   -1140.2409    568.93009    78.545622    18.369782    27.348783 
   81000     241.1067   -364.99623    263624.46   -25718.755    1951.2522   -27670.007   -1096.4354    568.16404     78.54607    18.368682    27.340665 
   81200    241.62019   -193.63919    263624.46   -25717.711    1955.4078   -27673.119   -334.79503    568.59126    78.545598    18.368718     27.32122 
   81400     241.3718   -194.95704    263624.46   -25726.508    1953.3976   -27679.906   -344.68076    568.67808    78.546034    18.368357    27.331889 
   81600    239.07747   -233.92746    263624.46   -25817.674    1934.8299   -27752.503   -554.74643    570.10176    78.547241    18.370787    27.311547 
   81800     232.8106   -226.27232    263624.46   -25896.232    1884.1127   -27780.345   -479.70019    569.30786    78.546951    18.369826    27.304398 
   82000    235.22268   -297.66542    263624.46   -25754.926    1903.6335   -27658.559   -827.37473    567.40543    78.546527    18.367025    27.290601 
   82200    241.56839   -248.60235    263624.46   -25685.205    1954.9886   -27640.194   -599.58152    568.94758    78.546445    18.366868    27.264746 
   82400    242.91459   -195.23275    263624.46   -25698.347    1965.8833    -27664.23   -351.08081    570.64416    78.548548    18.369185    27.245785 
   82600    240.10136   -355.23123    263624.46   -25663.758    1943.1162   -27606.874   -1052.9926    571.67448    78.548551    18.371246    27.247863 
   82800    241.60161   -277.24321    263624.46   -25743.908    1955.2575   -27699.166   -775.09047    572.04513    78.549991    18.370176    27.223639 
   83000    246.34997   -429.83176    263624.46   -25669.326    1993.6855   -27663.012   -1427.4566    573.49528    78.550544    18.368862    27.224336 
   83200    245.64902   -140.45962    263624.46   -25720.971    1988.0128   -27708.984   -83.076229    574.66837    78.551273    18.367935    27.225803 
   83400    242.19034    -403.7781    263624.46   -25735.969     1960.022   -27695.991   -1299.6935    578.09325    78.550515     18.36635    27.218408 
   83600    235.64565    -230.9334    263624.46       -25796    1907.0565   -27703.056   -495.31032    576.76179    78.549362    18.365671    27.217963 
   83800    239.58151   -153.67942    263624.46   -25760.183     1938.909   -27699.092   -139.15268    579.20154    78.548448    18.365358    27.229848 
   84000    234.53263   -285.79945    263624.46   -25728.244     1898.049   -27626.293   -801.52305    581.43371     78.54735    18.366618    27.243212 
   84200    243.19668   -302.98573    263624.46   -25720.414    1968.1663    -27688.58   -849.19657    580.50039    78.547207     18.36732     27.24302 
   84400     243.6226   -219.81006    263624.46   -25749.521    1971.6132   -27721.134    -472.2973    581.43453    78.546587    18.367394    27.250851 
   84600    240.21847   -328.31705    263624.46   -25675.848    1944.0639   -27619.912   -993.91006    582.20338    78.546166    18.367499    27.257766 
   84800    238.68258   -288.35103    263624.46   -25735.172    1931.6341   -27666.806   -816.49219    582.39822    78.545614    18.368019     27.24099 
   85000    234.84485   -288.90225    263624.46   -25737.158    1900.5758   -27637.734   -782.00327    586.49406    78.544842    18.370017    27.226681 
   85200    239.20329   -202.47654    263624.46   -25738.341    1935.8482    -27674.19   -360.08488    589.24481    78.545175    18.372709     27.22776 
   85400    238.59404    -332.0101    263624.46   -25780.917    1930.9175   -27711.834   -986.79035    592.44857    78.544625    18.372357    27.220315 
   85600    239.45454   -239.49058    263624.46   -25781.415    1937.8815   -27719.296   -554.04548    594.06557    78.543957    18.371471    27.210122 
   85800    242.53964   -340.89998    263624.46   -25760.951    1962.8489     -27723.8   -1029.4657    595.98867    78.542728    18.370785    27.196635 
   86000    239.73141   -222.35268    263624.46   -25791.113    1940.1221   -27731.235   -503.64775    595.20326    78.542164    18.368996    27.220282 
   86200    238.64071   -270.10834    263624.46   -25747.508    1931.2953   -27678.803   -718.50888    594.74673     78.54234     18.36705    27.230199 
   86400    238.43705   -330.31491    263624.46   -25803.934     1929.647   -27733.581   -934.76994    593.96827    78.543318    18.365296    27.223899 
   86600    245.05349   -353.11558    263624.46   -25748.982    1983.1932   -27732.175   -1009.9758    594.20918    78.543917    18.367369    27.223033 
   86800     234.6937   -461.10439    263624.46   -25857.694    1899.3525   -27757.046   -1547.0889    595.58919    78.540735    18.368654    27.210802 
   87000    235.44034   -267.29345    263624.46   -25733.909     1905.395   -27639.304   -695.79473    597.22455    78.540006    18.368942    27.227964 
   87200    237.72831    -182.7071    263624.46    -25746.03    1923.9112   -27669.941   -328.86086    599.35046    78.538889      18.3665    27.222158 
   87400     238.8574   -159.75883    263624.46   -25824.363    1933.0489   -27757.412   -192.95832    602.66241    78.536772    18.366877    27.235568 
   87600    236.18664    -291.0862    263624.46   -25751.053    1911.4347   -27662.488   -772.46955    604.89482    78.536708    18.368698    27.242443 
   87800    239.05815   -260.23476    263624.46    -25781.69    1934.6735   -27716.364   -654.49942    607.21249      78.5372     18.37077    27.221608 
   88000    237.33497   -221.50479    263624.46   -25777.105     1920.728   -27697.833   -429.18066    605.54846    78.537909    18.372951    27.220255 
   88200    228.76188   -301.13697    263624.46   -25835.452    1851.3468   -27686.799   -861.41178     606.2029    78.539077    18.375132    27.226431 
   88400    242.03827   -378.34068    263624.46   -25711.924    1958.7913   -27670.715   -1143.3372    608.19668    78.537782    18.376966    27.193294 
   88600    239.59046   -340.34344    263624.46   -25754.238    1938.9815    -27693.22   -1012.8777     607.7183    78.537258    18.376264    27.176001 
   88800    236.81243    -309.5564    263624.46   -25767.259    1916.4991   -27683.758    -887.5731    609.56494    78.536207    18.373977    27.179138 
   89000    243.05264   -339.54505    263624.46   -25765.176    1967.0006   -27732.177   -1035.6236    610.62263    78.535772    18.373951    27.180703 
   89200    247.05581    -225.0968    263624.46   -25788.401    1999.3978   -27787.799   -496.87009    608.86345    78.538567    18.372456    27.166429 
   89400     241.5613   -377.61536    263624.46   -25818.316    1954.9313   -27773.247   -1161.7539    612.09013    78.538926    18.371704    27.171021 
   89600     235.1969   -352.33896    263624.46    -25924.56    1903.4248   -27827.984   -1065.4774    612.43898    78.539636    18.374388     27.17798 
   89800    235.71689   -254.15572    263624.46   -25757.769    1907.6331   -27665.402   -629.49098    615.38304    78.542406    18.376035    27.171439 
   90000    242.03829   -144.24215    263624.46   -25747.407    1958.7915   -27706.198   -145.47335    617.62963    78.543738    18.378798    27.169287 
   90200     237.3076   -117.58865    263624.46   -25794.539    1920.5065   -27715.045   -52.950112    621.19074    78.544591    18.378882    27.156485 
   90400    236.73136   -241.09832    263624.46   -25737.962     1915.843   -27653.805   -553.88538    622.98163    78.543887    18.378542    27.189944 
   90600    240.91906    -116.4499    263624.46    -25738.37    1949.7336   -27688.104   -12.911516    625.33941     78.54638    18.378737    27.211956 
   90800    237.85572   -377.15341    263624.46   -25762.164    1924.9424   -27687.106   -1174.4609     627.4118    78.547833    18.379146    27.215081 
   91000    236.62962   -406.07717    263624.46   -25777.817    1915.0197   -27692.836   -1324.1209    628.21015    78.547893    18.377738    27.223338 
   91200    231.58187   -373.02244    263624.46   -25858.984    1874.1687   -27733.152   -1137.8594    630.23561    78.547672     18.37669    27.206758 
   91400    236.94693   -151.76725    263624.46   -25775.972    1917.5877    -27693.56   -207.21938    632.38488    78.549314    18.374683    27.172868 
   91600    238.80261   -276.29134    263624.46   -25658.502    1932.6055   -27591.107   -765.98697    636.02781    78.550385    18.375047    27.171921 
   91800    244.37591   -122.66409    263624.46   -25665.686    1977.7097   -27643.396   -54.178302    636.29448    78.550947    18.375658    27.193374 
   92000     239.3572   -204.39412    263624.46   -25699.995    1937.0937   -27637.088   -417.25118    638.40047    78.552301    18.374322    27.205467 
   92200    236.61606   -327.75317    263624.46   -25747.068      1914.91   -27661.978   -946.71889    639.68915    78.553762     18.37448    27.218396 
   92400     241.7773   -195.93696    263624.46   -25718.443    1956.6793   -27675.123   -364.34675    638.25081    78.552118    18.376951    27.215692 
   92600    242.25164    -289.0178    263624.46   -25650.983    1960.5182   -27611.501   -763.54124    640.10901    78.551401    18.378197    27.205184 
   92800    236.23033   -320.11988    263624.46   -25734.418    1911.7883   -27646.206   -943.31027    641.82257    78.551808    18.377342    27.225731 
   93000    239.87212   -212.23178    263624.46   -25765.917    1941.2609   -27707.178   -457.75487    643.69727    78.551905    18.378275    27.232088 
   93200     235.5938   -179.21543    263624.46   -25718.094    1906.6369   -27624.731   -306.04005    642.10229    78.553137    18.375686    27.237215 
   93400     236.8586   -239.01182    263624.46   -25803.042    1916.8728   -27719.915   -543.45663    644.01099    78.554852    18.375452    27.233054 
   93600    240.92781   -197.41187    263624.46   -25741.913    1949.8045   -27691.718   -392.81474    645.13055    78.555424    18.376935    27.233518 
   93800    239.99425   -365.97331    263624.46   -25773.969    1942.2493   -27716.218   -1155.3493      646.547    78.553622    18.380453    27.216656 
   94000    236.18418   -360.77665    263624.46   -25804.281    1911.4148   -27715.695   -1095.4301    649.06102    78.552593    18.379993    27.203388 
   94200    236.93522   -184.28628    263624.46   -25723.164    1917.4929   -27640.657    -314.8263     649.6743    78.551705    18.378854    27.204843 
   94400    241.15048   -294.12179    263624.46   -25773.327    1951.6065   -27724.934   -783.88371    653.79314    78.552057    18.379525    27.202103 
   94600    239.29371   -215.90689    263624.46   -25800.649    1936.5799   -27737.229   -447.08387    654.60271    78.553338    18.377381      27.1909 
   94800    239.57989   -303.65162    263624.46   -25797.676    1938.8959   -27736.572   -821.75765    658.45789    78.554074    18.377103    27.191911 
   95000    239.53246   -386.06371    263624.46    -25799.02    1938.5121   -27737.533   -1228.8943    661.73265    78.555294    18.376857    27.192698 
   95200    237.09969   -349.09798    263624.46   -25749.083    1918.8239   -27667.907    -1035.171    660.36641    78.553743    18.377316    27.190596 
   95400    240.27383   -233.63098    263624.46   -25669.989    1944.5119   -27614.501   -521.31997    660.01478     78.55326    18.378286    27.209504 
   95600    238.94186   -111.24371    263624.46   -25665.089    1933.7324   -27598.821    44.568091    661.10288    78.552969     18.37893    27.200081 
   95800    243.07655   -291.14932    263624.46   -25668.683    1967.1941   -27635.877   -818.07624    660.01535    78.552438    18.378844    27.211875 
   96000    238.88774   -302.45711    263624.46   -25680.334    1933.2944   -27613.629   -818.07833    663.13198    78.551822    18.376445    27.219064 
   96200    245.09095    -320.7226    263624.46   -25654.464    1983.4964    -27637.96   -932.46095    662.09826    78.550309    18.377222    27.240682 
   96400    241.36159    -337.3449    263624.46   -25703.744     1953.315   -27657.059   -1019.2668     663.1349     78.54953    18.376831    27.242761 
   96600    241.22766   -320.54239    263624.46   -25747.049    1952.2311    -27699.28   -916.55817    661.59355    78.548505    18.377182    27.253518 
   96800    237.25464   -285.66226    263624.46   -25690.249    1920.0779   -27610.326   -758.58685    664.36567    78.549362    18.377414    27.267754 
   97000    237.98422   -244.19638    263624.46   -25745.735    1925.9823   -27671.717   -578.93561    664.60116    78.550079    18.374881    27.282874 
   97200    236.33173   -338.09213    263624.46   -25757.511    1912.6089    -27670.12   -1009.6239    667.47333    78.549469     18.37245     27.30276 
   97400    240.67477   -395.45989    263624.46   -25742.418    1947.7567   -27690.175   -1268.4118    670.82088     78.54898    18.373255    27.313381 
   97600    239.99853   -245.68411    263624.46   -25672.196    1942.2839    -27614.48   -600.77866    670.37341    78.549077    18.374713    27.311647 
   97800    241.61718   -184.16598    263624.46    -25680.16    1955.3835   -27635.544   -326.98381    672.97198    78.546503    18.374149    27.324523 
   98000    235.21189   -220.53976    263624.46   -25735.461    1903.5461   -27639.008    -455.1686    675.56392    78.548082     18.37328    27.321701 
   98200    238.51866   -295.84573    263624.46   -25764.773    1930.3075    -27695.08   -834.37328    677.35757    78.547394    18.374125    27.323097 
   98400    239.02635   -228.48601    263624.46   -25750.754    1934.4162   -27685.171   -485.18692    677.24049    78.545818    18.372218    27.310888 
   98600    238.13447   -260.89296    263624.46   -25729.979    1927.1983   -27657.177   -652.45049    678.05762     78.54537    18.371427    27.302707 
   98800     241.4318   -282.62801    263624.46    -25688.62    1953.8833   -27642.503   -741.04817    681.85862    78.546471    18.371681    27.307125 
   99000    236.07999   -204.66827    263624.46   -25734.769    1910.5716    -27645.34   -391.63862    682.52146    78.548364    18.371025    27.286974 
   99200    235.48512   -365.84499    263624.46   -25715.815    1905.7574   -27621.573   -1130.8264    679.37006    78.547807    18.371147    27.287942 
   99400    242.88708     -209.724    263624.46   -25785.857    1965.6607   -27751.518   -428.35587    678.91815     78.54762     18.36992    27.316069 
   99600    245.10535   -361.52616    263624.46   -25739.913    1983.6129   -27723.525   -1069.1451    679.07688    78.548305    18.370753    27.332013 
   99800    237.30619   -175.96298    263624.46   -25764.919    1920.4951   -27685.414   -258.67821    679.23973    78.548812    18.371911    27.348538 
  100000     238.7397   -232.77273    263624.46    -25714.63    1932.0964   -27646.726    -515.2435    682.48147    78.550442    18.372594    27.353028 
  100200    240.73874   -161.66364    263624.46   -25794.316    1948.2744   -27742.591   -217.83466    684.65151    78.551746    18.376088    27.342327 
  100400    239.16458   -379.55737    263624.46   -25702.006    1935.5348   -27637.541    -1215.692    683.90717    78.551609     18.37837    27.340219 
  100600     237.4544    -277.1044    263624.46   -25677.626    1921.6946   -27599.321   -786.70082    682.86516    78.550803     18.37887    27.353889 
  100800    234.92327   -188.86434    263624.46   -25745.658    1901.2103   -27646.868   -323.69808    683.38477    78.550094    18.378395    27.338407 
[...]
 5176000    228.77662   -487.83214    263624.46   -28580.335    1851.4662   -30431.801   -1415.7711    4923.5191    77.639817    18.258358    28.169716 
 5176200    224.14516   -465.52883    263624.46   -28531.385    1813.9842    -30345.37   -1304.5125    4916.4729    77.639397    18.258647    28.169331 
 5176400    229.31197   -472.40441    263624.46   -28548.678    1855.7987   -30404.476   -1366.5955    4921.0129    77.638976    18.259272    28.172353 
 5176600    225.81761   -465.60495    263624.46   -28471.204    1827.5191   -30298.723   -1311.9103    4929.3017    77.640011    18.259883    28.173775 
 5176800    226.18238    -407.0589    263624.46   -28508.502    1830.4712   -30338.973   -1077.0992     4921.593    77.640173    18.259348    28.170518 
 5177000    231.69325   -415.51508    263624.46     -28511.8    1875.0701   -30386.871   -1130.9865    4919.5755    77.640469    18.260053    28.165255 
 5177200    230.79303   -371.48542    263624.46   -28478.653    1867.7848   -30346.438   -929.46457     4925.305    77.639808    18.260384    28.166337 
 5177400      232.383   -553.08029    263624.46   -28443.244    1880.6522   -30323.896   -1735.3615    4926.0838    77.640844    18.260744    28.167286 
 5177600    225.84211   -436.95991    263624.46   -28433.289    1827.7174   -30261.006   -1185.3287    4922.4783    77.640641    18.260301     28.16845 
 5177800    228.18521   -369.33332    263624.46   -28510.747    1846.6799   -30357.426   -856.40045    4921.3087    77.640393    18.260457    28.169808 
 5178000    222.35398   -329.02022    263624.46   -28541.506    1799.4883   -30340.995   -682.16843    4923.1891    77.640417    18.260622    28.162046 
 5178200    231.32911   -385.80621    263624.46   -28517.727    1872.1232   -30389.851   -980.33543    4924.7809    77.639333    18.261184     28.17027 
 5178400    227.64393   -456.79498    263624.46   -28491.145    1842.2994   -30333.444   -1317.0705    4927.9375    77.639832     18.26241    28.166261 
 5178600    230.81983   -508.93066    263624.46   -28524.824    1868.0016   -30392.825   -1514.9228    4925.9025    77.639873    18.262227     28.16612 
 5178800    226.96312   -381.62919    263624.46   -28469.947    1836.7896   -30306.736   -971.96742    4918.5101    77.639795    18.261888    28.167583 
 5179000    225.70475   -412.77722    263624.46   -28548.166    1826.6058   -30374.772   -1080.8075    4924.2282    77.639301     18.26152    28.165325 
 5179200    223.87195   -531.38793    263624.46   -28548.808    1811.7732   -30360.581   -1616.9672    4931.7625    77.638729    18.262205    28.165854 
 5179400    230.82133   -455.78828    263624.46   -28441.841    1868.0138   -30309.855   -1308.2167    4927.8408    77.639289    18.262277    28.175482 
 5179600    225.73394   -403.35338    263624.46   -28529.667    1826.8421   -30356.509    -1051.283    4919.6074    77.639351    18.262947    28.165479 
 5179800    225.21996   -347.70999    263624.46   -28574.749    1822.6824   -30397.432   -827.13166    4926.0375    77.639186    18.263669     28.16574 
 5180000    219.82844   -460.29032    263624.46   -28639.484    1779.0494   -30418.533    -1316.485    4932.2345     77.63914    18.264224    28.162918 
 5180200    227.01632   -440.03921    263624.46   -28594.882    1837.2202   -30432.102     -1234.04    4920.9411    77.639699    18.264561    28.160046 
 5180400    223.58093   -373.25908    263624.46   -28477.115     1809.418   -30286.532   -890.61809    4918.3026    77.638694    18.264273    28.163065 
 5180600     228.5482   -493.80187    263624.46   -28514.265    1849.6175   -30363.883   -1460.2787    4929.1759    77.638971    18.263853    28.162067 
 5180800    225.44898   -431.57772    263624.46   -28572.804    1824.5359    -30397.34   -1179.0399    4926.7336    77.640005    18.263436    28.167033 
 5181000    231.70317   -481.79048    263624.46    -28484.94    1875.1504    -30360.09   -1389.9819    4924.6557    77.640926    18.264038    28.162716 
 5181200     227.0761    -463.4762    263624.46   -28555.018     1837.704   -30392.722   -1318.0414    4922.0231    77.641457    18.263289    28.160388 
 5181400    225.79171   -411.99313    263624.46   -28520.422    1827.3096   -30347.732   -1072.3943    4924.5844    77.642287    18.263731    28.164513 
 5181600    223.31916   -454.55817    263624.46   -28554.152    1807.2995   -30361.452    -1302.848    4924.5787    77.642495    18.263775    28.165924 
 5181800    227.58968    -551.2906    263624.46   -28499.649    1841.8604   -30341.509   -1732.3438    4925.8905    77.642448    18.262859    28.167517 
 5182000    230.74233   -433.88582    263624.46   -28502.619    1867.3744   -30369.993   -1171.5659    4921.5563    77.642206       18.263    28.164595 
 5182200    231.49202     -467.128    263624.46   -28482.662    1873.4416   -30356.104    -1306.299    4926.2298    77.641265    18.262797    28.157439 
 5182400    225.42402   -434.06874    263624.46   -28561.625    1824.3339   -30385.959   -1192.8208    4925.7813    77.640775     18.26255     28.16231 
 5182600    221.69107   -571.03169    263624.46   -28549.972    1794.1235   -30344.095   -1805.1946    4927.5604    77.640799    18.263312    28.165273 
 5182800    227.01506   -363.59356    263624.46   -28527.762      1837.21   -30364.972   -879.56666    4919.7023    77.640001    18.263322    28.168711 
 5183000    226.15632   -374.42287    263624.46   -28471.286    1830.2603   -30301.546   -960.22398     4922.029    77.639548    18.262975    28.167022 
 5183200    222.62179   -520.87535    263624.46   -28511.149    1801.6557   -30312.805   -1605.1942    4932.2045    77.638854    18.262918     28.16504 
 5183400    223.78555   -529.04525    263624.46   -28603.769    1811.0739   -30414.843   -1652.8598    4930.5137    77.639892    18.263409    28.168612 
 5183600    222.29591   -451.32208    263624.46   -28578.285    1799.0184   -30377.304   -1283.0514    4920.6163    77.639386    18.263274    28.168735 
 5183800    229.87488   -473.26632    263624.46   -28559.741    1860.3543   -30420.095   -1379.0826    4919.3843    77.637544    18.263652    28.166763 
 5184000    227.24718    -412.5831    263624.46   -28519.851    1839.0885    -30358.94   -1098.3096    4926.6007    77.637374    18.264303    28.160887 
 5184200    225.24404   -474.54753    263624.46   -28514.674    1822.8774   -30337.551   -1356.3357    4927.6469    77.638289    18.263565    28.164462 
 5184400    231.30111   -415.86853    263624.46   -28530.464    1871.8966   -30402.361   -1114.9561    4919.0965    77.638739    18.263835      28.1626 
 5184600    229.08165   -441.86013    263624.46   -28534.426    1853.9347   -30388.361   -1237.6557    4922.5481    77.638999    18.264345    28.157233 
 5184800    228.29263   -437.08233    263624.46   -28539.171    1847.5492    -30386.72   -1194.8432    4930.6692    77.639166    18.263309    28.164456 
 5185000    225.02854   -510.60366    263624.46   -28529.364    1821.1333   -30350.497   -1577.3849    4926.4534    77.638715    18.262291    28.162432 
 5185200    228.09434   -375.07335    263624.46   -28562.157    1845.9445   -30408.101   -945.22234    4918.9239    77.638346    18.262911    28.169746 
 5185400    225.09166   -370.60613    263624.46   -28532.997    1821.6441   -30354.641   -908.99427    4922.2012    77.637709    18.262838    28.157703 
 5185600    222.13934   -460.27422    263624.46   -28557.721    1797.7513   -30355.472   -1301.5991     4933.399    77.637621     18.26415    28.159916 
 5185800    229.76017   -334.62173    263624.46   -28504.656    1859.4259   -30364.082   -740.47579    4925.1729    77.638209    18.264592    28.155551 
 5186000    228.11865   -478.28691    263624.46   -28472.238    1846.1413   -30318.379   -1381.1766    4924.9762    77.638335    18.265692    28.166015 
 5186200    231.66178   -399.94196    263624.46   -28515.768    1874.8155   -30390.584   -1049.1097    4924.4452    77.637861    18.266144    28.158967 
 5186400    228.54604   -467.53792    263624.46   -28526.048    1849.6001   -30375.648   -1328.5258    4929.3379     77.63787    18.266538    28.163233 
 5186600    225.05905   -299.54898    263624.46   -28547.109    1821.3802   -30368.489   -531.99808    4918.5859    77.638907    18.267639    28.159655 
 5186800    229.41925   -593.35955    263624.46   -28443.511    1856.6669   -30300.178   -1870.9038    4928.3188    77.639249    18.268896    28.163348 
 5187000    234.07639   -335.61404    263624.46   -28446.686    1894.3566   -30341.043   -716.76833    4920.6632    77.638476    18.269129    28.163431 
 5187200    222.42105   -319.16419    263624.46   -28596.459    1800.0311   -30396.491   -684.92566    4924.7922    77.637731     18.26872    28.155336 
 5187400    224.20247   -307.67697    263624.46   -28599.983     1814.448   -30414.431   -594.11663    4925.9449     77.63834    18.268923    28.166781 
 5187600    228.37929   -590.35853    263624.46   -28507.261    1848.2506   -30355.512   -1876.3333     4926.609    77.638608    18.268466    28.168744 
 5187800    222.35488   -433.69936    263624.46   -28535.385    1799.4956    -30334.88   -1183.0462    4916.8709    77.638164    18.268568    28.173421 
 5188000    228.49343    -499.9951    263624.46   -28458.471    1849.1743   -30307.646   -1465.6554    4924.1231     77.63801    18.269081    28.162548 
 5188200    232.92692   -419.18624    263624.46   -28483.492    1885.0541   -30368.546   -1119.8356    4923.5678    77.637915    18.269484    28.164343 
 5188400    230.73411   -478.18032    263624.46   -28533.966    1867.3079   -30401.274   -1412.7516    4923.8765    77.638112    18.269674    28.166823 
 5188600    222.12056   -557.28451    263624.46   -28585.162    1797.5993   -30382.761   -1750.8595    4923.6819    77.638453    18.268737    28.164411 
 5188800    225.63958   -422.82904    263624.46   -28563.095    1826.0784   -30389.174    -1143.739    4924.3647    77.638522    18.269437    28.165449 
 5189000    226.58617   -452.34652    263624.46   -28530.265    1833.7391   -30364.004    -1271.713    4923.9056    77.639257    18.268591    28.164377 
 5189200    224.04755   -330.29412    263624.46   -28617.777    1813.1942   -30430.971   -699.52642     4921.147    77.638944    18.267792    28.166592 
 5189400    221.05448   -595.59362    263624.46   -28553.758    1788.9716    -30342.73   -1893.9251     4926.898    77.638604     18.26738    28.166222 
 5189600      226.161   -405.40882    263624.46   -28508.316    1830.2982   -30338.614   -1043.5229     4921.276    77.638987    18.266993    28.165996 
 5189800    226.43918   -431.46453    263624.46   -28555.079    1832.5494   -30387.629   -1229.9239    4925.7862    77.638771    18.266507    28.163323 
 5190000    227.52927    -473.3292    263624.46   -28552.432    1841.3715   -30393.804   -1370.8663    4921.5648    77.638183     18.26761    28.160813 
 5190200    227.26065   -547.69978    263624.46   -28579.317    1839.1975   -30418.515    -1707.218    4923.0391     77.63782    18.267655    28.161175 
 5190400    233.55413    -493.8513    263624.46   -28411.547      1890.13   -30301.677   -1445.0487    4923.7085     77.63728    18.268357    28.164833 
 5190600     224.7303   -476.66818    263624.46   -28524.406    1818.7197   -30343.126   -1361.6881    4928.1499    77.637209    18.267677    28.162106 
 5190800    226.59622    -379.0716    263624.46   -28511.369    1833.8204    -30345.19   -960.88438    4924.4488    77.637715     18.26658    28.164632 
 5191000    222.92186   -419.95417    263624.46   -28554.142    1804.0842   -30358.226   -1126.4214    4918.7451    77.636996    18.266068    28.164018 
 5191200    225.86453   -492.71461    263624.46   -28524.015    1827.8989   -30351.914   -1461.4503      4923.42    77.636256     18.26635    28.163763 
 5191400    227.67893   -442.63932    263624.46   -28523.959    1842.5827   -30366.541   -1238.5075     4920.798     77.63534     18.26698    28.164344 
 5191600    226.96306   -504.54019    263624.46     -28547.2    1836.7892   -30383.989   -1500.8601    4925.7418    77.634647    18.266398    28.157492 
 5191800    229.39506   -425.04927    263624.46   -28443.501    1856.4711   -30299.972   -1152.1871    4921.9297    77.633905     18.26691    28.162427 
 5192000    236.88603   -515.11567    263624.46   -28449.393    1917.0948   -30366.487   -1574.2962    4926.3036    77.633235    18.267584    28.161936 
 5192200    229.12291   -424.13677    263624.46   -28517.461    1854.2686    -30371.73   -1195.3332    4923.7158    77.633324    18.267669    28.160543 
 5192400    228.66027   -537.56627    263624.46    -28502.13    1850.5245   -30352.654   -1694.3365    4927.2951    77.632497    18.267023    28.152242 
 5192600    223.76383    -400.4684    263624.46    -28563.14    1810.8982   -30374.039   -1053.3158    4919.7454    77.632047    18.266852    28.156158 
 5192800    232.33342    -417.4287    263624.46   -28499.795     1880.251   -30380.046   -1146.9724    4920.5593    77.631307    18.266791     28.15342 
 5193000    224.60729    -453.2729    263624.46   -28547.033    1817.7242   -30364.757   -1263.0906    4926.8634    77.630542    18.266555     28.16028 
 5193200     231.5758   -471.63119    263624.46   -28488.798    1874.1196   -30362.918   -1344.2761    4926.4782    77.630198    18.265926    28.159708 
 5193400    228.56978   -389.07153    263624.46    -28563.85    1849.7922   -30413.643   -957.13679    4919.2238    77.630086    18.264581    28.168011 
 5193600    227.60004   -431.03378    263624.46   -28461.055    1841.9442   -30302.999   -1174.7867    4918.2951    77.629328     18.26375    28.158123 
 5193800    223.66013   -495.54018    263624.46   -28550.072    1810.0589   -30360.131   -1458.1737     4925.058    77.629484    18.263201    28.165241 
 5194000    218.40848   -353.86516    263624.46   -28624.336    1767.5578   -30391.894   -776.21993    4920.9897    77.629588    18.264525    28.164227 
 5194200    222.39418    -402.7265    263624.46   -28564.378    1799.8137   -30364.191   -1049.1365    4921.5351    77.629463    18.264079    28.160762 
 5194400    222.26993   -389.30863    263624.46   -28482.488    1798.8081   -30281.296   -1001.6823    4928.0102    77.630256    18.264069    28.162863 
 5194600    228.05431   -475.35238    263624.46   -28461.621    1845.6206   -30307.242   -1406.3165    4926.9859    77.630783    18.263327    28.161958 
 5194800    227.50345   -482.89164    263624.46    -28468.94    1841.1625   -30310.103   -1421.9282    4919.1639    77.630726    18.263987    28.168298 
 5195000    223.70027     -486.312    263624.46   -28484.744    1810.3837   -30295.128    -1424.422    4923.8441    77.630013    18.264469    28.166308 
 5195200    225.27452   -449.20192    263624.46     -28466.5     1823.124   -30289.624   -1238.1054    4917.1794    77.630059    18.264066    28.172032 
 5195400    226.24458   -375.32578    263624.46   -28451.985    1830.9746    -30282.96   -922.97336    4924.4506    77.629719    18.263356    28.166498 
 5195600    223.92227   -462.40135    263624.46   -28551.555    1812.1804   -30363.735   -1302.4852    4925.6688    77.629723    18.262419    28.165943 
 5195800     235.3469   -421.92783    263624.46   -28406.579    1904.6387   -30311.218   -1141.7958    4923.9225    77.629688    18.262558    28.164462 
 5196000     224.5012   -467.90438    263624.46   -28492.399    1816.8656   -30309.265   -1343.5694    4922.8991    77.629687     18.26182    28.159407 
 5196200    224.67084   -443.33814    263624.46   -28486.151    1818.2385    -30304.39   -1239.8394    4920.0351    77.628864     18.26138    28.167838 
 5196400    225.72046   -463.29313    263624.46   -28467.699     1826.733   -30294.432   -1363.3594    4920.7846    77.629164    18.261491    28.170312 
 5196600    222.73734   -523.04808    263624.46   -28513.339    1802.5908    -30315.93   -1578.0572    4918.6489    77.629282    18.261377    28.161483 
 5196800    228.14302   -469.54869    263624.46   -28488.866    1846.3385   -30335.205   -1342.7438     4923.966    77.630178    18.260631    28.160962 
 5197000     234.7834   -401.48658    263624.46    -28455.62    1900.0784   -30355.699   -1001.8424    4923.8699    77.630258    18.260621     28.16497 
 5197200    231.06892   -421.32307    263624.46   -28512.534    1870.0175   -30382.551    -1119.513    4925.4518    77.630444    18.260819    28.161573 
 5197400    231.69487   -415.53565    263624.46   -28493.701    1875.0832   -30368.784   -1093.2017    4923.2362     77.62978    18.260638    28.166676 
 5197600    225.16438   -429.54923    263624.46    -28537.12    1822.2326   -30359.352   -1218.7088    4925.9501     77.62976    18.260844    28.162449 
 5197800    220.69606   -378.82168    263624.46   -28607.879     1786.071    -30393.95   -971.57115    4920.4464    77.629082     18.26168    28.164959 
 5198000    227.06129   -443.52513    263624.46   -28489.436    1837.5842    -30327.02   -1261.2206    4924.6226    77.627909    18.262264     28.15975 
 5198200    225.84249    -416.1358    263624.46   -28479.971    1827.7205   -30307.692   -1133.4761    4926.3511    77.628593    18.262357    28.163109 
 5198400    223.18733   -457.90696    263624.46   -28561.395    1806.2326   -30367.627   -1319.1626    4925.4225    77.627548    18.262402    28.167066 
 5198600    225.31568    -376.2377    263624.46   -28602.584    1823.4571   -30426.041   -900.84764    4920.2214    77.627019     18.26306     28.16506 
 5198800    229.95229   -479.12284    263624.46   -28521.574    1860.9807   -30382.555   -1371.2095    4920.8784    77.627154    18.263612    28.169298 
 5199000    227.04806   -348.88037    263624.46   -28450.927    1837.4771   -30288.404   -799.71947    4920.8765    77.626855    18.265073    28.169405 
 5199200    227.91936    -397.0761    263624.46   -28509.479    1844.5284   -30354.008   -1007.4461     4926.647    77.627047    18.265329    28.164584 
 5199400    230.28625   -542.77148    263624.46   -28536.232    1863.6834   -30399.915   -1666.4328    4927.1785    77.627604    18.264876     28.16726 
 5199600    224.22978   -467.72678    263624.46   -28505.482    1814.6691   -30320.151   -1322.0038    4928.5967    77.628385    18.266512    28.169781 
 5199800     229.9039    -526.9895    263624.46   -28498.632    1860.5891   -30359.221   -1618.8157    4927.1675    77.628872    18.266755    28.162541 
 5200000    228.73478    -391.5031    263624.46    -28504.68    1851.1275   -30355.808   -993.41924    4918.5971    77.629044    18.267193    28.164675 
Loop time of 16002.7 on 80 procs for 5200000 steps with 9436 atoms

Performance: 280.753 ns/day, 0.085 hours/ns, 324.946 timesteps/s
98.1% CPU use with 80 MPI tasks x no OpenMP threads

MPI task timing breakdown:
Section |  min time  |  avg time  |  max time  |%varavg| %total
---------------------------------------------------------------
Pair    | 0.26773    | 4191.1     | 12723      |7181.0 | 26.19
Neigh   | 0.47823    | 233.8      | 838.43     |1948.4 |  1.46
Comm    | 16.073     | 5153.8     | 14514      |6317.6 | 32.21
Output  | 171.38     | 171.49     | 173.62     |   1.9 |  1.07
Modify  | 315.17     | 6186.2     | 15753      |7521.1 | 38.66
Other   |            | 66.27      |            |       |  0.41

Nlocal:        117.950 ave         374 max           0 min
Histogram: 34 9 17 0 0 0 0 0 2 18
Nghost:        748.612 ave        1216 max           0 min
Histogram: 12 0 3 1 4 1 22 14 9 14
Neighs:         0.00000 ave           0 max           0 min
Histogram: 80 0 0 0 0 0 0 0 0 0
FullNghs:      11678.0 ave       44271 max           0 min
Histogram: 55 5 0 0 0 0 0 1 2 17

Total # of neighbors = 934242
Ave neighs/atom = 99.008266
Neighbor list builds = 551349
Dangerous builds = 0
write_data 		${DIR}/data.${NAME}_run
write_data 		run_18/data.${NAME}_run
write_data 		run_18/data.ibeam_cooling_18_run
System init for write_data ...
Total wall time: 4:27:16
