
### Dimensions ###


### IMPORT ATOMS ###
read_data ../Box_Setup/data.Ibeam_240K
Reading data file ...
  orthogonal box = (0.0000000 0.0000000 0.0000000) to (157.50400 36.487659 45.872046)
  10 by 2 by 4 MPI processor grid
  reading atoms ...
  9436 atoms
  reading velocities ...
  9436 velocities
  read_data CPU = 0.025 seconds
group water type 2
2716 atoms in group water
group graphite type 1
6720 atoms in group graphite


# Define potential
#
pair_style          sw
pair_coeff * * MLC_e.sw C mW

# Add velocity/set timestep
#

fix		1 graphite setforce 0.0 0.0 0.0
velocity 	graphite set 0.0 0.0 0.0
velocity            water create ${START_TEMP} ${SEED} rot yes dist gaussian
velocity            water create 240 ${SEED} rot yes dist gaussian
velocity            water create 240 9768 rot yes dist gaussian
timestep            5.0

# Define output
#
compute 1 water msd
compute 2 water temp


thermo	            100
thermo_style custom step c_2 press vol etotal ke pe c_1[4] density

# Neighbor lists
#
neigh_modify        delay 0 every 1 check yes


# Set fixes
#
fix                 2 water momentum 10 linear 1 1 1 rescale
fix                 3 all nve
fix                 4 water temp/csvr ${START_TEMP} ${START_TEMP} 500.0 928347
fix                 4 water temp/csvr 240 ${START_TEMP} 500.0 928347
fix                 4 water temp/csvr 240 240 500.0 928347

# Run 0.05 ns equilibration
#
dump                1 all custom 100 ${DIR}/eq.${NAME}.dump id type x y z vx vy vz
dump                1 all custom 100 run_18/eq.${NAME}.dump id type x y z vx vy vz
dump                1 all custom 100 run_18/eq.ibeam_cooling_18.dump id type x y z vx vy vz
run                 10000
Neighbor list info ...
  update every 1 steps, delay 0 steps, check yes
  max neighbors/atom: 2000, page size: 100000
  master list distance cutoff = 6.6747184
  ghost atom cutoff = 6.6747184
  binsize = 3.3373592, bins = 48 11 14
  1 neighbor lists, perpetual/occasional/extra = 1 0 0
  (1) pair sw, perpetual
      attributes: full, newton on
      pair build: full/bin/atomonly
      stencil: full/bin/3d
      bin: standard
Per MPI rank memory allocation (min/avg/max) = 3.597 | 4.372 | 4.790 Mbytes
Step c_2 Press Volume TotEng KinEng PotEng c_1[4] Density 
       0          240   -384.81349    263624.46   -25860.227    1942.2958   -27802.523            0   0.81656126 
     100    240.68629   -294.44109    263624.46   -25862.337    1947.8499   -27810.187   0.84015133   0.81656126 
     200    235.73077   -396.38249    263624.46   -25876.622    1907.7454   -27784.367    1.2629663   0.81656126 
     300    238.49369   -303.11805    263624.46   -25839.905    1930.1054    -27770.01     1.633096   0.81656126 
     400    239.90353    -233.5486    263624.46   -25832.086    1941.5151   -27773.601    2.1264069   0.81656126 
     500    245.32841   -154.52093    263624.46   -25809.886    1985.4181   -27795.304    2.5326039   0.81656126 
     600    247.06908   -81.746846    263624.46   -25744.232    1999.5052   -27743.737    2.8930817   0.81656126 
     700    239.30029   -229.31927    263624.46     -25752.5    1936.6331   -27689.133     3.244852   0.81656126 
     800    242.27448   -502.71764    263624.46   -25733.102     1960.703   -27693.805    3.5400945   0.81656126 
     900    246.24925    -391.7289    263624.46   -25765.658    1992.8704   -27758.528    3.9351462   0.81656126 
    1000    238.25781   -230.17494    263624.46   -25789.869    1928.1965   -27718.066    4.2328426   0.81656126 
    1100    241.02731   -116.51131    263624.46   -25769.909    1950.6097   -27720.519    4.6837346   0.81656126 
    1200    239.00806   -276.15121    263624.46   -25772.689    1934.2682   -27706.957     5.153938   0.81656126 
    1300    245.82503   -296.78014    263624.46   -25717.361    1989.4372   -27706.798     5.413959   0.81656126 
    1400    236.32235   -296.33751    263624.46   -25754.611     1912.533   -27667.144    5.7153113   0.81656126 
    1500    246.19044   -279.44232    263624.46   -25800.933    1992.3944   -27793.328    6.0416913   0.81656126 
    1600     236.6685   -335.98236    263624.46   -25771.086    1915.3343   -27686.421    6.4776694   0.81656126 
    1700    238.03063   -388.62855    263624.46   -25770.934    1926.3579   -27697.292    6.9448812   0.81656126 
    1800    239.32109    -247.5269    263624.46   -25724.768    1936.8015   -27661.569    7.4918425   0.81656126 
    1900    243.51948   -157.57215    263624.46   -25673.903    1970.7786   -27644.682    7.8645831   0.81656126 
    2000    245.58129    -278.2502    263624.46   -25634.533    1987.4646   -27621.997    8.0714638   0.81656126 
    2100    240.56324   -350.22115    263624.46    -25735.75    1946.8541   -27682.604    8.5261013   0.81656126 
    2200    243.92458   -305.04147    263624.46   -25713.369     1974.057   -27687.426    9.0854178   0.81656126 
    2300     244.1777   -326.32077    263624.46   -25699.016    1976.1055   -27675.121    9.5324123   0.81656126 
    2400    242.51357   -221.40036    263624.46   -25692.152    1962.6379    -27654.79    9.6587766   0.81656126 
    2500    237.83281   -113.87409    263624.46   -25718.622     1924.757   -27643.379    10.014927   0.81656126 
    2600    239.91215   -217.94581    263624.46    -25721.55    1941.5848   -27663.135    10.374316   0.81656126 
    2700    242.31499   -321.33768    263624.46   -25699.369    1961.0308     -27660.4    10.683767   0.81656126 
    2800    248.14879   -312.28815    263624.46    -25643.54    2008.2432   -27651.784    11.096871   0.81656126 
    2900    239.79219   -227.41418    263624.46   -25662.378     1940.614   -27602.992    11.563932   0.81656126 
    3000    241.77387   -271.89021    263624.46   -25656.142    1956.6516   -27612.794    11.828802   0.81656126 
    3100    246.74963   -311.83382    263624.46   -25647.817    1996.9199   -27644.737    12.238767   0.81656126 
    3200    240.18727   -265.42728    263624.46   -25732.903    1943.8114   -27676.714    12.750716   0.81656126 
    3300    233.58708   -338.94082    263624.46   -25834.499    1890.3967   -27724.896    13.184019   0.81656126 
    3400    240.16956   -371.09718    263624.46    -25768.33    1943.6681   -27711.998     13.50069   0.81656126 
    3500    238.27838   -238.74161    263624.46   -25758.566    1928.3629   -27686.928    13.913289   0.81656126 
    3600     239.8636   -410.32424    263624.46   -25753.317    1941.1919   -27694.509    14.563448   0.81656126 
    3700    245.81425   -299.66584    263624.46   -25721.872      1989.35   -27711.222    14.977825   0.81656126 
    3800    248.14187   -287.78526    263624.46   -25712.429    2008.1872   -27720.617    15.402557   0.81656126 
    3900    241.47241    -217.6361    263624.46   -25724.807    1954.2119   -27679.019    15.643587   0.81656126 
    4000    240.74599   -251.34676    263624.46    -25769.57    1948.3331   -27717.903    15.934877   0.81656126 
    4100    239.71049   -145.03095    263624.46   -25751.965    1939.9529   -27691.918     16.33875   0.81656126 
    4200    243.91942   -266.45648    263624.46   -25729.145    1974.0153    -27703.16    16.598751   0.81656126 
    4300    233.80485   -323.57179    263624.46   -25788.283    1892.1591   -27680.442    16.965658   0.81656126 
    4400    241.23381   -246.46358    263624.46   -25754.974     1952.281   -27707.255    17.268687   0.81656126 
    4500    239.19199     -324.824    263624.46   -25793.625    1935.7567   -27729.381    17.681697   0.81656126 
    4600    239.74978   -194.31454    263624.46   -25838.981    1940.2708   -27779.251    17.882989   0.81656126 
    4700      240.354   -131.85934    263624.46   -25770.317    1945.1607   -27715.477    18.252326   0.81656126 
    4800    239.83144   -266.48072    263624.46   -25730.768    1940.9317   -27671.699    18.480548   0.81656126 
    4900    248.84208   -359.48829    263624.46   -25682.349    2013.8539   -27696.203    18.831416   0.81656126 
    5000    240.81046   -230.34675    263624.46   -25775.228    1948.8548   -27724.083    19.397246   0.81656126 
    5100    245.50443   -309.27267    263624.46   -25750.834    1986.8426   -27737.677    19.814556   0.81656126 
    5200    238.80182    -336.6237    263624.46    -25794.44    1932.5991   -27727.039    20.241524   0.81656126 
    5300    235.05702   -357.16837    263624.46    -25848.69    1902.2928   -27750.983    20.338305   0.81656126 
    5400    234.33037   -215.36273    263624.46   -25825.514    1896.4121   -27721.926    20.724977   0.81656126 
    5500    237.89208   -303.59139    263624.46   -25818.155    1925.2366   -27743.392    21.117487   0.81656126 
    5600    237.61382    -381.4277    263624.46   -25838.062    1922.9847   -27761.046    21.670671   0.81656126 
    5700     241.1793    -264.9235    263624.46   -25811.375    1951.8398   -27763.214    21.942143   0.81656126 
    5800    242.97911   -462.36493    263624.46   -25798.035    1966.4054    -27764.44    22.058848   0.81656126 
    5900    238.32752   -284.53393    263624.46   -25823.875    1928.7606   -27752.636    22.312118   0.81656126 
    6000    234.47997    -401.8599    263624.46   -25821.649    1897.6228   -27719.272    22.886626   0.81656126 
    6100    233.03045   -365.99328    263624.46   -25833.436     1885.892   -27719.328    23.261131   0.81656126 
    6200    237.95448   -352.57901    263624.46   -25823.578    1925.7416   -27749.319    23.483787   0.81656126 
    6300    240.00335   -260.26146    263624.46   -25755.579    1942.3229   -27697.902    23.881301   0.81656126 
    6400    235.13345   -236.20882    263624.46   -25801.338    1902.9113   -27704.249    24.356384   0.81656126 
    6500    232.94429   -243.75389    263624.46   -25801.885    1885.1947   -27687.079    24.302231   0.81656126 
    6600    239.94458   -323.82791    263624.46   -25812.752    1941.8473   -27754.599     24.47671   0.81656126 
    6700    236.24509    -209.9648    263624.46   -25841.569    1911.9077   -27753.477    25.159837   0.81656126 
    6800    237.67481   -251.57592    263624.46   -25822.897    1923.4783   -27746.375    25.747318   0.81656126 
    6900    242.90737   -189.57226    263624.46   -25783.478    1965.8249   -27749.303    26.338028   0.81656126 
    7000    238.32681   -377.47216    263624.46   -25793.473    1928.7549   -27722.228    26.735969   0.81656126 
    7100    242.10765   -331.79944    263624.46   -25804.144    1959.3528   -27763.497    27.321607   0.81656126 
    7200    237.02903   -116.94426    263624.46   -25886.613    1918.2521   -27804.865    27.852287   0.81656126 
    7300    236.82504   -271.11763    263624.46   -25910.189    1916.6012    -27826.79    28.239339   0.81656126 
    7400    241.57295   -228.14546    263624.46   -25848.312    1955.0255   -27803.338    28.529582   0.81656126 
    7500    235.18434   -255.26179    263624.46   -25808.646    1903.3232   -27711.969    28.622196   0.81656126 
    7600    245.54411    -129.1498    263624.46   -25764.047    1987.1638   -27751.211    29.092315   0.81656126 
    7700    238.84957   -170.78629    263624.46    -25802.91    1932.9855   -27735.895    29.593823   0.81656126 
    7800    232.61558   -349.50642    263624.46   -25842.328    1882.5345   -27724.862    29.947798   0.81656126 
    7900    239.63577   -309.68064    263624.46   -25797.269    1939.3481   -27736.617     30.31481   0.81656126 
    8000    243.08007   -373.58351    263624.46   -25734.439    1967.2225   -27701.662    30.427047   0.81656126 
    8100    239.24752   -248.23003    263624.46   -25715.897    1936.2061   -27652.104    30.730799   0.81656126 
    8200    244.88992   -257.90319    263624.46   -25728.012    1981.8695   -27709.881    31.125473   0.81656126 
    8300    248.53299   -107.54831    263624.46   -25692.627    2011.3524   -27703.979    31.667077   0.81656126 
    8400    244.24191   -231.01741    263624.46   -25688.258    1976.6252   -27664.883    31.959261   0.81656126 
    8500    238.55692   -350.70199    263624.46   -25736.657    1930.6171   -27667.274    32.464954   0.81656126 
    8600    243.14956   -307.25131    263624.46   -25733.191    1967.7849   -27700.976     32.52753   0.81656126 
    8700    235.52798   -345.03727    263624.46   -25764.375    1906.1042   -27670.479    32.821927   0.81656126 
    8800    240.86583   -149.14775    263624.46   -25792.028    1949.3029   -27741.331    33.132963   0.81656126 
    8900    235.48999   -245.33519    263624.46   -25834.901    1905.7968   -27740.698     33.76908   0.81656126 
    9000    233.92259    -322.8353    263624.46   -25792.317    1893.1119   -27685.429    33.879034   0.81656126 
    9100    235.99906    -289.3732    263624.46   -25827.563    1909.9167    -27737.48    34.106336   0.81656126 
    9200    246.11157   -229.94098    263624.46   -25785.372    1991.7561   -27777.128    34.697238   0.81656126 
    9300    238.95995   -314.79068    263624.46   -25867.329    1933.8788   -27801.208    35.361769   0.81656126 
    9400    236.12793   -288.86825    263624.46   -25851.436    1910.9595   -27762.396    36.117284   0.81656126 
    9500    239.00248   -306.46682    263624.46   -25869.438     1934.223   -27803.661    36.332416   0.81656126 
    9600      238.852   -187.36017    263624.46   -25891.607    1933.0051   -27824.612    36.537912   0.81656126 
    9700    243.82113    -240.9972    263624.46   -25880.904    1973.2199   -27854.124    36.691825   0.81656126 
    9800     248.1824   -214.82062    263624.46   -25845.376    2008.5151   -27853.891    36.808221   0.81656126 
    9900    237.78326   -389.55026    263624.46   -25865.447     1924.356   -27789.803    36.862751   0.81656126 
   10000    233.65332   -390.53754    263624.46   -25868.815    1890.9328   -27759.748    36.958767   0.81656126 
Loop time of 33.9967 on 80 procs for 10000 steps with 9436 atoms

Performance: 127.071 ns/day, 0.189 hours/ns, 294.146 timesteps/s
97.9% CPU use with 80 MPI tasks x no OpenMP threads

MPI task timing breakdown:
Section |  min time  |  avg time  |  max time  |%varavg| %total
---------------------------------------------------------------
Pair    | 0.00053716 | 7.8807     | 29.311     | 376.2 | 23.18
Neigh   | 0.00052142 | 0.24934    | 0.91348    |  62.8 |  0.73
Comm    | 0.013441   | 10.24      | 30.942     | 351.7 | 30.12
Output  | 0.17129    | 0.1715     | 0.17871    |   0.2 |  0.50
Modify  | 0.43999    | 15.268     | 33.664     | 384.5 | 44.91
Other   |            | 0.1868     |            |       |  0.55

Nlocal:        117.950 ave         373 max           0 min
Histogram: 36 0 20 4 0 0 0 0 2 18
Nghost:        753.362 ave        1253 max           0 min
Histogram: 12 0 0 4 2 18 20 0 8 16
Neighs:         0.00000 ave           0 max           0 min
Histogram: 80 0 0 0 0 0 0 0 0 0
FullNghs:      11549.9 ave       45239 max           0 min
Histogram: 50 10 0 0 0 0 0 2 10 8

Total # of neighbors = 923988
Ave neighs/atom = 97.921577
Neighbor list builds = 586
Dangerous builds = 0
write_data 	    ${DIR}/data.${NAME}_eq
write_data 	    run_18/data.${NAME}_eq
write_data 	    run_18/data.ibeam_cooling_18_eq
System init for write_data ...

undump              1
unfix               4



################################################
#######         Run Simulation         #########
################################################

reset_timestep      0
timestep	    10.0
log                 ${DIR}/log.run_${NAME}
log                 run_18/log.run_${NAME}
log                 run_18/log.run_ibeam_cooling_18
