
### Dimensions ###


### IMPORT ATOMS ###
read_data ../Box_Setup/data.Ibeam_235K
Reading data file ...
  orthogonal box = (0.0000000 0.0000000 0.0000000) to (78.752000 72.975319 40.002420)
  4 by 4 by 4 MPI processor grid
  reading atoms ...
  9010 atoms
  reading velocities ...
  9010 velocities
  read_data CPU = 0.024 seconds
group water type 2
2386 atoms in group water
group graphite type 1
6624 atoms in group graphite


# Define potential
#
pair_style          sw
pair_coeff * * MLC_e.sw C mW

# Add velocity/set timestep
#

fix		1 graphite setforce 0.0 0.0 0.0
velocity 	graphite set 0.0 0.0 0.0
velocity            water create ${START_TEMP} ${SEED} rot yes dist gaussian
velocity            water create 235 ${SEED} rot yes dist gaussian
velocity            water create 235 24413 rot yes dist gaussian
timestep            5.0

# Define output
#
compute 1 water msd
compute 2 water temp


thermo	            100
thermo_style custom step c_2 press vol etotal ke pe c_1[4] density

# Neighbor lists
#
neigh_modify        delay 0 every 1 check yes


# Set fixes
#
fix                 2 water momentum 10 linear 1 1 1 rescale
fix                 3 all nve
fix                 4 water temp/csvr ${START_TEMP} ${START_TEMP} 500.0 928347
fix                 4 water temp/csvr 235 ${START_TEMP} 500.0 928347
fix                 4 water temp/csvr 235 235 500.0 928347

# Run 0.05 ns equilibration
#
dump                1 all custom 100 ${DIR}/eq.${NAME}.dump id type x y z vx vy vz
dump                1 all custom 100 run_2/eq.${NAME}.dump id type x y z vx vy vz
dump                1 all custom 100 run_2/eq.ibeam_cooling_2.dump id type x y z vx vy vz
run                 10000
Neighbor list info ...
  update every 1 steps, delay 0 steps, check yes
  max neighbors/atom: 2000, page size: 100000
  master list distance cutoff = 6.6747184
  ghost atom cutoff = 6.6747184
  binsize = 3.3373592, bins = 24 22 12
  1 neighbor lists, perpetual/occasional/extra = 1 0 0
  (1) pair sw, perpetual
      attributes: full, newton on
      pair build: full/bin/atomonly
      stencil: full/bin/3d
      bin: standard
Per MPI rank memory allocation (min/avg/max) = 3.602 | 4.441 | 4.793 Mbytes
Step c_2 Press Volume TotEng KinEng PotEng c_1[4] Density 
       0          235   -397.42353       229892   -22660.138    1670.6695   -24330.807            0   0.88510766 
     100    234.26882   -276.32476       229892   -22669.712    1665.4714   -24335.183   0.82659141   0.88510766 
     200    231.20566   -303.24571       229892    -22704.42    1643.6947   -24348.115    1.1389156   0.88510766 
     300    230.71525   -279.30958       229892   -22686.562    1640.2082    -24326.77    1.4506101   0.88510766 
     400    239.90088   -402.45939       229892   -22682.115     1705.511   -24387.626    1.7707109   0.88510766 
     500    237.27048   -241.59558       229892   -22658.127    1686.8109   -24344.938    2.0142429   0.88510766 
     600    235.93002   -376.61066       229892   -22587.788    1677.2813   -24265.069    2.4412078   0.88510766 
     700    241.02852   -238.58067       229892   -22588.863    1713.5277   -24302.391    2.7854169   0.88510766 
     800    239.82948   -355.65012       229892    -22571.07    1705.0034   -24276.073    3.1529154   0.88510766 
     900    234.11249   -216.80982       229892   -22600.935      1664.36   -24265.295    3.5562258   0.88510766 
    1000    237.29084   -252.28114       229892   -22632.938    1686.9556   -24319.894    4.0031795   0.88510766 
    1100    236.27693   -404.03372       229892   -22607.577    1679.7475   -24287.324    4.5100773   0.88510766 
    1200      235.277   -342.99668       229892   -22604.414    1672.6388   -24277.053    4.7609132   0.88510766 
    1300    241.85294   -294.59165       229892   -22547.634    1719.3887   -24267.023    5.0782012   0.88510766 
    1400    236.13467   -387.35023       229892   -22577.604    1678.7361    -24256.34    5.4009543   0.88510766 
    1500    234.95475   -250.84734       229892   -22600.852    1670.3479     -24271.2    5.6004821   0.88510766 
    1600    235.80221   -255.93499       229892   -22579.651    1676.3726   -24256.024    5.8084013   0.88510766 
    1700    235.31132   -259.40733       229892   -22589.805    1672.8827   -24262.688    6.0066836   0.88510766 
    1800    232.88595    -369.7526       229892   -22550.916    1655.6403   -24206.556    6.1469232   0.88510766 
    1900    233.29073   -345.79941       229892   -22500.967    1658.5179   -24159.485    6.5260041   0.88510766 
    2000    242.69662   -544.43277       229892    -22466.71    1725.3866   -24192.096    6.8131751   0.88510766 
    2100    237.08451   -349.36731       229892   -22566.534    1685.4888   -24252.023    7.2057929   0.88510766 
    2200    241.43957   -331.85542       229892   -22532.446    1716.4499   -24248.896     7.697352   0.88510766 
    2300    238.32917    -361.4763       229892   -22512.253    1694.3374    -24206.59    8.2606454   0.88510766 
    2400    229.10424   -391.37429       229892   -22502.366    1628.7552   -24131.121    8.7786512   0.88510766 
    2500    238.55042    -252.0234       229892   -22526.812    1695.9102   -24222.723    9.4866679   0.88510766 
    2600    231.17687   -297.15709       229892   -22528.339      1643.49   -24171.829    9.8136885   0.88510766 
    2700    230.77537   -461.77689       229892    -22520.68    1640.6356   -24161.316    10.100662   0.88510766 
    2800    238.57899   -383.41714       229892   -22472.263    1696.1134   -24168.377    10.436276   0.88510766 
    2900    233.52782   -436.53118       229892   -22480.735    1660.2034   -24140.938    10.472913   0.88510766 
    3000      239.038   -415.29158       229892   -22476.647    1699.3766   -24176.024    10.978423   0.88510766 
    3100     238.5621   -415.40073       229892   -22471.388    1695.9933   -24167.381    11.241927   0.88510766 
    3200    236.80729   -356.91941       229892   -22540.331     1683.518   -24223.848    11.523179   0.88510766 
    3300    233.40737   -293.81343       229892    -22622.14    1659.3471   -24281.487    11.897366   0.88510766 
    3400    239.16392   -310.20134       229892   -22563.356    1700.2718   -24263.628    12.183922   0.88510766 
    3500    237.89372   -357.51522       229892    -22562.15    1691.2416   -24253.391    12.598077   0.88510766 
    3600    234.98533     -457.485       229892   -22563.714    1670.5652    -24234.28    13.301184   0.88510766 
    3700    233.57466   -425.48694       229892   -22530.485    1660.5364   -24191.022    13.971203   0.88510766 
    3800    237.15359   -320.20465       229892   -22524.873    1685.9799   -24210.853    14.392205   0.88510766 
    3900    236.61189   -352.35734       229892   -22530.765    1682.1288   -24212.894     14.81398   0.88510766 
    4000    233.29917   -361.33384       229892   -22571.003    1658.5779   -24229.581    15.297805   0.88510766 
    4100    238.86128   -308.77908       229892   -22558.148    1698.1203   -24256.268    15.766757   0.88510766 
    4200    230.80805    -342.4344       229892   -22546.499     1640.868   -24187.367    16.267859   0.88510766 
    4300    232.99917   -509.43812       229892   -22601.257    1656.4451   -24257.702     16.53762   0.88510766 
    4400    240.78892   -253.92203       229892   -22581.324    1711.8243   -24293.148    16.655993   0.88510766 
    4500    232.33732   -299.91928       229892   -22609.669    1651.7399   -24261.409    17.073612   0.88510766 
    4600    236.67321   -211.21949       229892   -22657.607    1682.5648   -24340.172    17.263334   0.88510766 
    4700    233.92392   -373.84075       229892   -22598.554    1663.0194   -24261.573    17.742833   0.88510766 
    4800      238.496   -430.11903       229892   -22554.673    1695.5234   -24250.196    18.020424   0.88510766 
    4900    232.34664   -227.84715       229892   -22504.064    1651.8061    -24155.87    18.222344   0.88510766 
    5000    237.67487   -288.27957       229892   -22557.998    1689.6858   -24247.683    18.736876   0.88510766 
    5100    239.35159   -371.46102       229892   -22518.545    1701.6059   -24220.151    18.814496   0.88510766 
    5200    236.17014   -239.33082       229892   -22553.322    1678.9883   -24232.311    19.115423   0.88510766 
    5300    234.71352    -499.0449       229892   -22629.612    1668.6328   -24298.245    19.134853   0.88510766 
    5400    233.41912   -210.14604       229892   -22615.134    1659.4307   -24274.565    19.176456   0.88510766 
    5500    238.74606   -274.39506       229892   -22613.098    1697.3011   -24310.399    19.204465   0.88510766 
    5600    236.47584   -392.27731       229892   -22641.766    1681.1616   -24322.928    19.197883   0.88510766 
    5700    231.24674   -109.50432       229892   -22618.459    1643.9867   -24262.445    19.263873   0.88510766 
    5800    238.82423   -321.21779       229892   -22611.464    1697.8569   -24309.321    19.635302   0.88510766 
    5900    234.45417   -504.71757       229892   -22640.685    1666.7891   -24307.474    20.013125   0.88510766 
    6000    237.68843   -360.07255       229892   -22666.187    1689.7822   -24355.969    20.310353   0.88510766 
    6100    233.53997   -188.40737       229892   -22678.755    1660.2899   -24339.045    20.796821   0.88510766 
    6200    238.94374   -437.96345       229892   -22695.522    1698.7065   -24394.228    21.102464   0.88510766 
    6300    236.36531   -199.22764       229892   -22623.305    1680.3758   -24303.681    21.397964   0.88510766 
    6400    233.34173   -381.99446       229892   -22666.668    1658.8805   -24325.548    21.697104   0.88510766 
    6500    232.55393   -182.33783       229892   -22667.215    1653.2798   -24320.495     22.03163   0.88510766 
    6600    233.31391   -350.53503       229892   -22681.467    1658.6827    -24340.15      22.3422   0.88510766 
    6700    235.48337    -441.4725       229892   -22702.245    1674.1059   -24376.351    22.344332   0.88510766 
    6800    233.92813   -506.07195       229892     -22679.3    1663.0493   -24342.349    22.666958   0.88510766 
    6900    231.68824   -268.40354       229892   -22629.354    1647.1254   -24276.479    23.115385   0.88510766 
    7000    241.26217   -241.61924       229892   -22633.151    1715.1887    -24348.34    23.478887   0.88510766 
    7100     228.4325    -470.9236       229892   -22644.866    1623.9797   -24268.845    24.116715   0.88510766 
    7200    235.86816   -201.47007       229892   -22713.308    1676.8414    -24390.15     24.73343   0.88510766 
    7300     230.2257   -241.17545       229892   -22748.419    1636.7279   -24385.147    24.901204   0.88510766 
    7400    230.25385   -321.90116       229892   -22714.853     1636.928   -24351.781    25.193958   0.88510766 
    7500    233.89285   -310.16715       229892   -22678.497    1662.7985   -24341.295    25.809402   0.88510766 
    7600    234.88563   -454.46456       229892   -22635.657    1669.8564   -24305.513    26.164673   0.88510766 
    7700    235.98066   -263.83254       229892   -22650.825    1677.6412   -24328.466    26.646046   0.88510766 
    7800    229.72399   -337.71834       229892   -22699.691    1633.1611   -24332.852     26.66801   0.88510766 
    7900    236.69444   -158.75338       229892   -22678.837    1682.7157   -24361.553    27.083974   0.88510766 
    8000     243.5898   -458.03194       229892   -22606.646    1731.7364   -24338.382    27.276237   0.88510766 
    8100    242.61366   -388.35897       229892   -22593.352    1724.7968   -24318.148    27.573524   0.88510766 
    8200    238.50045   -352.45287       229892   -22614.693     1695.555   -24310.248    27.995745   0.88510766 
    8300    234.12002   -342.12736       229892   -22566.517    1664.4136   -24230.931    28.633752   0.88510766 
    8400    237.01601   -435.68156       229892   -22550.769    1685.0018   -24235.771    29.008037   0.88510766 
    8500     236.7567   -252.44647       229892    -22598.93    1683.1583   -24282.088     29.04874   0.88510766 
    8600    240.67657   -196.76768       229892   -22618.197    1711.0256   -24329.223    28.950079   0.88510766 
    8700    235.07516   -404.42847       229892   -22638.463    1671.2038   -24309.666    29.166869   0.88510766 
    8800    233.23652   -411.82405       229892   -22637.823    1658.1326   -24295.956    29.168578   0.88510766 
    8900    233.49705    -248.3699       229892   -22668.823    1659.9847   -24328.807    29.225756   0.88510766 
    9000     238.2701   -307.25468       229892   -22638.261    1693.9174   -24332.178    29.379312   0.88510766 
    9100    231.32893   -454.61745       229892   -22667.854    1644.5711   -24312.425    29.594541   0.88510766 
    9200    240.25217   -283.30876       229892   -22626.412    1708.0084    -24334.42    29.928379   0.88510766 
    9300    229.10051   -203.32463       229892   -22697.879    1628.7287   -24326.608    29.994104   0.88510766 
    9400    237.17051   -195.32731       229892    -22663.58    1686.1002   -24349.681    30.127301   0.88510766 
    9500    233.73625   -309.05963       229892   -22714.259    1661.6852   -24375.944    30.528816   0.88510766 
    9600    232.13019    -388.4216       229892   -22719.127    1650.2674   -24369.395    31.042016   0.88510766 
    9700    241.82041   -376.54256       229892   -22685.036    1719.1574   -24404.193    31.243854   0.88510766 
    9800    247.44404   -378.37595       229892   -22642.308    1759.1371   -24401.445    31.653101   0.88510766 
    9900    233.87917   -184.37303       229892   -22663.083    1662.7013   -24325.785    31.941208   0.88510766 
   10000    233.44177   -449.04581       229892    -22657.19    1659.5917   -24316.781    32.295279   0.88510766 
Loop time of 18.3452 on 64 procs for 10000 steps with 9010 atoms

Performance: 235.484 ns/day, 0.102 hours/ns, 545.102 timesteps/s
99.1% CPU use with 64 MPI tasks x no OpenMP threads

MPI task timing breakdown:
Section |  min time  |  avg time  |  max time  |%varavg| %total
---------------------------------------------------------------
Pair    | 0.0012879  | 4.8597     | 14.974     | 243.5 | 26.49
Neigh   | 0.0014493  | 0.29181    | 1.0244     |  66.1 |  1.59
Comm    | 0.74615    | 7.2511     | 14.933     | 180.6 | 39.53
Output  | 0.20355    | 0.20484    | 0.20687    |   0.2 |  1.12
Modify  | 0.46423    | 5.4459     | 17.219     | 269.1 | 29.69
Other   |            | 0.2918     |            |       |  1.59

Nlocal:        140.781 ave         426 max           0 min
Histogram: 24 5 19 0 0 0 0 0 0 16
Nghost:        810.156 ave        1185 max          45 min
Histogram: 8 0 0 8 0 0 4 20 0 24
Neighs:         0.00000 ave           0 max           0 min
Histogram: 64 0 0 0 0 0 0 0 0 0
FullNghs:      13988.3 ave       52550 max           0 min
Histogram: 35 13 0 0 0 0 0 0 5 11

Total # of neighbors = 895250
Ave neighs/atom = 99.361820
Neighbor list builds = 575
Dangerous builds = 0
write_data 	    ${DIR}/data.${NAME}_eq
write_data 	    run_2/data.${NAME}_eq
write_data 	    run_2/data.ibeam_cooling_2_eq
System init for write_data ...

undump              1
unfix               4



################################################
#######         Run Simulation         #########
################################################

reset_timestep      0
timestep	    10.0
log                 ${DIR}/log.run_${NAME}
log                 run_2/log.run_${NAME}
log                 run_2/log.run_ibeam_cooling_2
