
# Set production fixes - Nose/Hoover
#
fix                 4 water temp/csvr ${START_TEMP} ${END_TEMP} 500.0 928347
fix                 4 water temp/csvr 235 ${END_TEMP} 500.0 928347
fix                 4 water temp/csvr 235 225 500.0 928347


## divide "droplet" into core and surface
#region		core_reg cylinder z 135 135 44.6 20 INF units box
#region		surface_reg cylinder z 135 135 44.6 20 INF units box side out
#group		core dynamic all region core_reg
#group		surface dynamic all region surface_reg

## compute pressure core
#compute        peratom_core core stress/atom NULL
#compute        p_core core reduce sum c_peratom_core[1] c_peratom_core[2] c_peratom_core[3]
#variable       press_core equal -(c_p_core[1]+c_p_core[2]+c_p_core[3])/(3*1249982.5)


## compute pressure surface
#compute        peratom_surf surface stress/atom NULL
#compute        p_surf surface reduce sum c_peratom_surf[1] c_peratom_surf[2] #c_peratom_surf[3]
#variable       press_surf equal -(c_p_surf[1]+c_p_surf[2]+c_p_surf[3])/(3*42395)

## compute total pressure of drop
compute        peratom water stress/atom NULL
compute        p water reduce sum c_peratom[1] c_peratom[2] c_peratom[3]
variable       press equal -(c_p[1]+c_p[2]+c_p[3])/(3*58187)


# compute order parameter
compute        3 all orientorder/atom nnn NULL cutoff 3.5

# compute center of mass of bridge
compute 	4 water com

# Run simulation
thermo_style        custom step c_2 press vol etotal ke pe v_press c_1[4] c_4[*]
thermo              200
dump		     1 water custom 400 ${DIR}/prod.${NAME}.dump id type x y z vx vy vz c_3[*] c_peratom[*]
dump		     1 water custom 400 run_2/prod.${NAME}.dump id type x y z vx vy vz c_3[*] c_peratom[*]
dump		     1 water custom 400 run_2/prod.ibeam_cooling_2.dump id type x y z vx vy vz c_3[*] c_peratom[*]
run                 ${STEPS}
run                 4000000
Neighbor list info ...
  update every 1 steps, delay 0 steps, check yes
  max neighbors/atom: 2000, page size: 100000
  master list distance cutoff = 6.6747184
  ghost atom cutoff = 6.6747184
  binsize = 3.3373592, bins = 24 22 12
  2 neighbor lists, perpetual/occasional/extra = 1 1 0
  (1) pair sw, perpetual
      attributes: full, newton on
      pair build: full/bin/atomonly
      stencil: full/bin/3d
      bin: standard
  (2) compute orientorder/atom, occasional, copy from (1)
      attributes: full, newton on
      pair build: copy
      stencil: none
      bin: none
Per MPI rank memory allocation (min/avg/max) = 6.107 | 6.716 | 7.324 Mbytes
Step c_2 Press Volume TotEng KinEng PotEng v_press c_1[4] c_4[1] c_4[2] c_4[3] 
       0    233.44177   -449.04581       229892    -22657.19    1659.5917   -24316.781   -1175.2766    32.295279    39.430841      35.5686    26.714963 
     200    234.25606   -374.36769       229892   -22696.003    1665.3807   -24361.383   -908.14677     33.46702    39.430353    35.570155    26.718257 
     400     230.4144   -248.61372       229892   -22674.606    1638.0694   -24312.676   -466.80604    35.215244    39.431295    35.571286     26.71891 
     600    242.12647   -292.89561       229892   -22553.981    1721.3332   -24275.314   -575.49882    36.153543    39.430354    35.569902    26.731483 
     800     235.6455   -540.04486       229892   -22530.873    1675.2585   -24206.132   -1539.6002    37.187949      39.4295    35.570833    26.723753 
    1000     231.4853   -387.81054       229892   -22586.857    1645.6827    -24232.54   -1014.1105    37.962282    39.429631    35.569315    26.726394 
    1200    235.90496   -236.12972       229892   -22549.421    1677.1031   -24226.524   -380.24875    39.361595    39.429153    35.567964    26.703911 
    1400    238.13792   -330.20561       229892   -22557.285    1692.9777   -24250.263   -735.09128    40.114317    39.429596    35.568107    26.718171 
    1600    234.69786   -388.98659       229892    -22537.29    1668.5215   -24205.812   -952.87535    41.689497    39.428961    35.569242    26.719972 
    1800    237.27765   -265.16885       229892   -22511.034    1686.8618   -24197.896   -532.35093    44.163322    39.430028    35.567962    26.702194 
    2000    239.72786   -411.88956       229892   -22472.287     1704.281   -24176.568   -1088.8202    47.500893    39.429917    35.565096    26.702266 
    2200    229.78554    -387.0703       229892   -22558.805    1633.5987   -24192.403   -988.03652     48.52658    39.431696    35.566563    26.690554 
    2400    239.01796   -398.15118       229892   -22533.425    1699.2341    -24232.66   -1010.4414    49.476821    39.433102    35.567717    26.714603 
    2600    230.20345   -431.15043       229892   -22601.408    1636.5697   -24237.978   -1102.8583    49.771677    39.433455    35.567703    26.717231 
    2800    235.32167   -420.28358       229892   -22499.938    1672.9563   -24172.894   -1110.2801    49.965661    39.435723    35.568719    26.727279 
    3000    234.13615   -255.21787       229892   -22502.655    1664.5282   -24167.183   -466.27135    51.309531    39.435603    35.566464     26.72417 
    3200    232.36009   -340.25692       229892   -22599.813    1651.9018   -24251.714   -770.19579    51.978884    39.435644    35.566247    26.749496 
    3400    231.66908    -271.9998       229892   -22581.013    1646.9892   -24228.002   -518.47994    53.588191    39.436039    35.566693    26.739959 
    3600    231.62851   -265.26713       229892   -22560.563    1646.7008   -24207.264   -485.68956     54.90013    39.437136    35.567595    26.772678 
    3800    235.93206   -273.34598       229892   -22521.692    1677.2958   -24198.988   -535.22404    55.397185    39.437236    35.568902    26.761012 
    4000    234.64306   -494.88991       229892   -22600.782     1668.132   -24268.914   -1411.9889    57.292839    39.437364    35.569497    26.727021 
    4200    237.18986   -439.99513       229892   -22575.167    1686.2377   -24261.405   -1175.8875    57.546858    39.436646    35.571218    26.725889 
    4400    232.82009   -410.76139       229892   -22579.592     1655.172   -24234.764   -1046.0652    59.298054     39.43749    35.571692    26.724613 
    4600    229.31564   -305.20636       229892   -22636.233    1630.2581   -24266.491   -658.55235    58.749284    39.438223    35.573056    26.717451 
    4800    229.91222    -367.5543       229892   -22498.764    1634.4993   -24133.263   -902.03112    60.286737    39.437567    35.572704    26.728691 
    5000    233.02037   -225.12337       229892   -22527.466    1656.5958   -24184.062    -338.6726    60.951312    39.439123    35.572978    26.728027 
    5200    230.23666   -123.73266       229892    -22518.23    1636.8058   -24155.036    65.714596    62.303844    39.438615    35.571454    26.706849 
    5400     238.6737     -340.782       229892   -22526.443    1696.7867    -24223.23   -772.47706    64.682513    39.438292    35.571774     26.69637 
    5600    235.87452   -191.15349       229892   -22550.096    1676.8867   -24226.983   -190.36267    65.608447    39.440177    35.571419    26.686585 
    5800    237.97344   -311.14413       229892    -22515.69    1691.8084   -24207.498   -688.16911    66.874292    39.441427    35.572907    26.685219 
    6000    233.32488   -476.33145       229892    -22562.69    1658.7607   -24221.451   -1291.2033    67.491492    39.440313    35.572402    26.693259 
    6200    234.13804   -273.95805       229892   -22615.592    1664.5417   -24280.134   -517.93211    68.049128    39.439891    35.570268    26.691382 
    6400    230.21164   -414.67704       229892   -22611.052     1636.628    -24247.68   -1071.1405    68.660691    39.438062    35.571685    26.710465 
    6600    236.43071   -333.87548       229892   -22646.392    1680.8408   -24327.233   -814.98161    70.132378    39.438267    35.571716    26.707815 
    6800    235.11298   -265.31808       229892   -22645.681    1671.4727   -24317.153   -497.97606     71.49197    39.437352    35.572519    26.723913 
    7000    238.88395    -365.3871       229892   -22576.355    1698.2814   -24274.636   -858.31246    72.019608    39.437003    35.573477    26.719403 
    7200    230.40052   -454.67192       229892   -22650.414    1637.9707   -24288.385   -1223.6016    73.326912    39.439005    35.573855    26.729552 
    7400    230.02036    -458.3825       229892   -22592.553    1635.2681   -24227.821   -1241.4584    75.792742    39.437991     35.57262    26.724511 
    7600    236.29472   -227.00524       229892   -22529.296    1679.8739    -24209.17   -353.15083    76.899243    39.440377    35.572823    26.719029 
    7800    227.01129   -193.70982       229892   -22644.602    1613.8759   -24258.478   -174.24475    76.257431    39.443513    35.571314    26.722624 
    8000    240.97973   -393.47956       229892   -22496.267    1713.1808   -24209.448   -993.32872     77.65088    39.444701    35.570909    26.707734 
    8200    240.10196   -246.49288       229892   -22510.528    1706.9406   -24217.469   -388.23221    79.299624    39.445034    35.569935    26.700935 
    8400    237.91412   -189.25542       229892   -22459.572    1691.3867   -24150.959   -211.69457    80.446859    39.447429     35.57148    26.698294 
    8600    234.76242   -416.17979       229892   -22520.389    1668.9805    -24189.37   -1088.8394     81.58728     39.44818    35.571081     26.69553 
    8800    229.56648   -208.29366       229892   -22539.008    1632.0413   -24171.049   -244.30004    81.813816    39.448019    35.571589    26.680506 
    9000    236.14362   -419.96698       229892   -22510.743    1678.7998   -24189.543   -1122.6799     82.50085    39.448278     35.57408    26.682842 
    9200      241.893   -461.20155       229892    -22477.25    1719.6734   -24196.923   -1253.0776    84.124191    39.449876    35.576218     26.69297 
    9400    240.56435   -449.59852       229892   -22526.092    1710.2278   -24236.319   -1192.7299    83.978724    39.450088    35.577193    26.695503 
    9600    237.01328   -501.64245       229892   -22599.459    1684.9824   -24284.442   -1406.0522    85.023573     39.44882    35.576422    26.697529 
    9800    236.33308   -299.72031       229892   -22557.725    1680.1467   -24237.872   -540.21147     86.15494    39.449003    35.575044    26.708342 
   10000    229.82766   -384.22361       229892   -22596.209    1633.8982   -24230.108     -953.224    86.410971    39.451784    35.574262    26.723191 
   10200    238.43761   -375.01513       229892    -22501.78    1695.1083   -24196.888   -913.30004     87.10198     39.45169      35.5752    26.721631 
   10400    236.47812   -311.06726       229892    -22515.25    1681.1778   -24196.428     -635.444    88.288483    39.455722    35.574158    26.710845 
   10600    228.71257   -330.68022       229892   -22597.394    1625.9707   -24223.364   -719.96024    88.656288    39.457513    35.574617    26.717097 
   10800    233.85628   -461.07506       229892   -22644.751    1662.5385    -24307.29   -1272.1861    90.294746    39.459348     35.57379    26.722427 
   11000    235.44319   -454.46677       229892   -22687.112    1673.8203   -24360.932   -1240.3012     91.60759    39.458863    35.573973    26.712897 
   11200    231.06106   -356.73084       229892   -22681.222    1642.6667   -24323.889   -832.85932    92.782956    39.460305    35.573331    26.695201 
   11400     233.0474   -418.93838       229892   -22634.381     1656.788   -24291.169   -1073.3654    94.457472     39.46032    35.572518    26.670415 
   11600    238.73152   -323.58363       229892   -22561.498    1697.1978   -24258.695   -720.01527    94.472958    39.460336    35.573577    26.678632 
   11800    234.97519   -342.28874       229892   -22542.506    1670.4932   -24212.999   -806.30009    96.494687    39.459626    35.572804     26.68859 
   12000    238.45724   -311.63656       229892   -22547.149    1695.2478   -24242.396   -698.76144    98.041437    39.461467    35.574727    26.684615 
   12200    238.63547   -300.95891       229892   -22562.345    1696.5149    -24258.86   -611.64883    99.501978    39.462597    35.576336    26.686852 
   12400    232.29682   -347.21392       229892   -22594.144     1651.452   -24245.596   -843.33429    100.03674    39.464475    35.576321    26.684528 
   12600    235.14629   -325.65843       229892   -22549.995    1671.7095   -24221.704   -723.87908    100.67802    39.465651    35.574583    26.682054 
   12800    238.61393   -320.16235       229892   -22569.115    1696.3618   -24265.477   -718.23886    102.33416    39.466852    35.574159    26.693781 
   13000    228.30378   -459.57976       229892   -22601.316    1623.0645   -24224.381   -1208.4377    103.16914    39.467348    35.575012    26.673831 
   13200    237.79209   -459.92593       229892   -22625.978    1690.5191   -24316.497   -1234.3551     103.9803    39.468899    35.574673     26.69144 
   13400    227.91583   -338.29515       229892   -22676.278    1620.3065   -24296.585   -815.01828    105.18059    39.469911    35.573018    26.691343 
   13600    235.02368   -433.43799       229892   -22606.537    1670.8378   -24277.375   -1132.3784     105.7819    39.469522     35.57341     26.68016 
   13800    237.48775   -650.84734       229892     -22531.9    1688.3555   -24220.255    -1999.818    107.12224    39.469172    35.572505    26.689229 
   14000    240.02305   -495.34304       229892   -22491.836    1706.3796   -24198.215   -1378.6631    108.41134     39.47213    35.572767    26.696197 
   14200     235.2725   -385.84118       229892   -22584.634    1672.6068   -24257.241   -963.87694    110.17442    39.470214    35.568046    26.676776 
   14400    230.77333   -287.21066       229892   -22627.306    1640.6212   -24267.927   -566.13485    110.75177    39.469937    35.566725     26.67244 
   14600      238.728   -375.25275       229892   -22593.012    1697.1727   -24290.185   -927.24481    111.85918    39.469877     35.56545    26.673233 
   14800    236.41928    -249.1955       229892   -22520.222    1680.7595   -24200.982    -423.4172    112.57684    39.469812    35.565674    26.675746 
   15000    233.95318    -432.5655       229892   -22576.604    1663.2274   -24239.831    -1168.659    112.97176    39.468624    35.563901    26.692261 
   15200     235.0601   -386.11513       229892    -22540.81    1671.0967   -24211.907   -959.44138    113.92236    39.465831    35.565011     26.69569 
   15400    230.88711   -300.53645       229892   -22635.956      1641.43   -24277.386   -644.56016    114.41635    39.465078    35.568186    26.711941 
   15600     241.0344   -566.85414       229892   -22524.896    1713.5694   -24238.466   -1683.4429    115.94857    39.464995    35.569505    26.704879 
   15800    235.50477   -163.11697       229892   -22533.508     1674.258   -24207.766   -76.690131    117.26646    39.463686    35.570514    26.702483 
   16000    235.62513    -467.3411       229892   -22590.955    1675.1137   -24266.068   -1297.3724    118.97175    39.464709    35.572817    26.714462 
   16200    235.18252   -191.38266       229892   -22553.062    1671.9671   -24225.029   -186.67615    120.03723    39.462606     35.57524    26.740291 
   16400    231.86379   -377.83561       229892    -22606.65    1648.3734   -24255.024   -911.41512     120.6927      39.4603     35.57648    26.737878 
   16600    236.88519   -391.88341       229892   -22565.742    1684.0717   -24249.814    -1004.186    122.86395    39.459823    35.580126    26.742265 
   16800    237.26916   -204.75454       229892   -22625.415    1686.8015   -24312.216   -273.69171    123.64624    39.458579    35.580334    26.742626 
   17000    231.78787   -258.17579       229892   -22655.078    1647.8337   -24302.912   -500.45195    126.31558    39.456905    35.580312    26.725663 
   17200    234.55783   -425.44353       229892   -22609.347     1667.526   -24276.873    -1125.661    127.05396    39.457975    35.579504    26.707834 
   17400     230.9767   -421.60697       229892   -22682.027    1642.0669   -24324.094   -1116.1268     126.9189    39.458806    35.578951     26.70422 
   17600    236.20643   -532.53883       229892    -22606.39    1679.2463   -24285.636   -1523.5649     129.0598      39.4577    35.579122    26.706438 
   17800    232.93792   -298.45055       229892   -22623.737    1656.0097   -24279.747   -611.85386    130.51466    39.455462    35.579473    26.710074 
   18000    233.87367   -436.32915       229892   -22579.576    1662.6622   -24242.238   -1146.1789    132.55434    39.455407    35.576785    26.701897 
   18200    231.61326   -497.31213       229892   -22614.896    1646.5924   -24261.488   -1362.7255    133.35384    39.456612    35.577476    26.675682 
   18400    235.76636   -270.08923       229892   -22584.386    1676.1178   -24260.504   -525.91171     133.6112    39.455392    35.578294    26.683238 
   18600    231.70251   -240.58446       229892   -22570.197    1647.2269   -24217.424   -384.24415    134.89768    39.453776    35.580428    26.692894 
   18800    233.81235   -339.47607       229892   -22631.569    1662.2262   -24293.795   -772.94054     136.0345     39.45062    35.578749    26.691421 
   19000    232.10333   -410.14588       229892    -22583.02    1650.0764   -24233.096    -1073.677    136.53196    39.447876    35.579128    26.710328 
   19200    237.34844   -255.58864       229892   -22569.388    1687.3651   -24256.753   -409.43488    137.82493    39.449443    35.578972    26.726691 
   19400    241.43541   -394.61574       229892   -22527.202    1716.4204   -24243.622   -947.33522    138.10717    39.454098     35.57664    26.736718 
   19600    235.13172   -308.89747       229892   -22547.645     1671.606   -24219.251   -635.52941    138.07404    39.454445    35.576918    26.731609 
   19800    233.23146   -405.68613       229892   -22534.564    1658.0966   -24192.661   -1053.4472    138.30938    39.456404    35.579677    26.721303 
   20000    241.34856   -310.73804       229892    -22579.14    1715.8029   -24294.943   -676.28089    139.35373     39.45721    35.577692    26.722016 
   20200    230.55092   -423.58268       229892   -22666.717      1639.04   -24305.757   -1117.6583    140.52463    39.457723    35.575429    26.708353 
   20400    234.73514   -319.83491       229892   -22628.583    1668.7865   -24297.369   -677.94702    141.13727    39.459053    35.572833    26.717213 
   20600    234.75067   -329.20988       229892   -22700.617     1668.897   -24369.514   -716.59468     142.1867    39.459163    35.573686    26.719533 
   20800    244.69622   -410.36157       229892   -22613.592    1739.6022   -24353.194   -1060.8053    143.59009    39.458005    35.572133    26.714939 
   21000     234.3538   -90.920996       229892   -22613.148    1666.0756   -24279.224    209.34572    143.78496    39.458501    35.572543    26.718852 
   21200     232.5939   -380.21135       229892   -22573.722     1653.564   -24227.286   -918.92023    145.44893    39.458911    35.573582     26.71479 
   21400    236.31912   -430.52738       229892    -22557.86    1680.0475   -24237.908   -1114.8291    146.48348    39.457531    35.574581    26.716862 
   21600    242.07966   -443.79165       229892   -22472.658    1721.0005   -24193.658   -1234.9746    147.11036    39.456492    35.577743    26.692884 
   21800    232.06387   -337.32563       229892    -22598.35    1649.7959   -24248.146   -744.81148    146.98474    39.456738    35.579409    26.699708 
   22000    224.80895   -417.56902       229892   -22670.077     1598.219   -24268.296   -1084.6962    149.54333    39.456217    35.581235    26.731776 
   22200    232.26292   -410.35617       229892   -22664.487     1651.211   -24315.697   -1054.7744    151.38706    39.455934    35.581995    26.738913 
   22400    236.43039   -547.37509       229892   -22507.419    1680.8385   -24188.258   -1556.9897    151.52591     39.45703    35.582408    26.732273 
   22600    237.20281   -428.17219       229892   -22604.766    1686.3298   -24291.096   -1119.5939     153.2924    39.456084    35.583377     26.73228 
   22800    232.97356   -237.31195       229892   -22566.957    1656.2631   -24223.221   -389.42495    153.38627    39.456204    35.587954    26.702477 
   23000    232.37486   -323.95289       229892   -22617.369    1652.0068   -24269.376   -717.00257    152.91377    39.458082    35.589331    26.705537 
   23200    236.59882   -280.05648       229892    -22525.12    1682.0359   -24207.156   -553.93951    154.04806    39.459211    35.587144    26.705037 
   23400    237.69409    -307.1712       229892   -22500.557    1689.8224    -24190.38   -645.54931    155.13782    39.458905    35.585765    26.690402 
   23600    239.77671   -383.92964       229892   -22442.068    1704.6283   -24146.696   -940.73456    156.42434    39.458151    35.587652    26.704343 
   23800    239.07539   -263.74332       229892   -22462.743    1699.6424   -24162.385   -452.40823    158.19643    39.456322    35.589558    26.711314 
   24000    234.42196   -351.48076       229892   -22488.408    1666.5601   -24154.968    -814.3778    160.62019    39.455862    35.588921    26.698323 
   24200    228.86547   -387.20594       229892   -22474.267    1627.0577   -24101.324   -914.54043    162.02994    39.457757    35.586983    26.707676 
   24400    233.16345   -301.74043       229892    -22513.52    1657.6131   -24171.133   -604.82406    162.90003     39.45729    35.586192     26.71452 
   24600    237.72468   -350.01397       229892   -22562.629    1690.0399   -24252.669   -803.00323    163.75906    39.455534    35.587069    26.712898 
   24800    228.84563   -362.02679       229892   -22538.148    1626.9167   -24165.065   -869.32944    164.52506    39.455881    35.588129    26.716944 
   25000    235.93636   -285.70339       229892   -22577.642    1677.3263   -24254.968   -580.19156    164.87487    39.456846    35.589047     26.70964 
   25200    224.68325   -286.52904       229892   -22699.196    1597.3253   -24296.521   -545.79467    165.45172    39.458197    35.590381    26.710471 
   25400     235.7885   -399.36314       229892   -22579.275    1676.2751   -24255.551   -1021.1941    166.59324      39.4578    35.591623    26.712697 
   25600    236.08103   -471.06348       229892   -22483.814    1678.3548   -24162.168   -1295.2496    166.83807     39.45714    35.590848    26.718677 
   25800    243.91147    -468.3895       229892   -22463.833    1734.0232   -24197.856   -1284.6997    167.80841    39.459154     35.59064    26.735189 
   26000    238.65528   -305.54132       229892   -22541.971    1696.6557   -24238.627    -629.5186     168.8725    39.460563    35.590238    26.736509 
   26200    237.09035   -454.73197       229892   -22578.091    1685.5303   -24263.622   -1226.9009    171.08512    39.460271    35.590886     26.72288 
   26400    232.45659   -255.21305       229892    -22652.27    1652.5878   -24304.858   -448.29071     172.5752    39.458607    35.593247    26.714577 
   26600    233.06478     -309.157       229892   -22564.402    1656.9116   -24221.314   -658.25505    171.37103    39.457622    35.592985    26.718251 
   26800    230.96062   -364.76367       229892   -22559.339    1641.9526   -24201.291   -849.12799    172.94173    39.457875    35.594591    26.712261 
   27000    238.75651   -406.63199       229892   -22479.854    1697.3754   -24177.229   -1028.9591    174.75763    39.458718    35.596054    26.697528 
   27200    241.12666   -318.63968       229892   -22540.348    1714.2253   -24254.573   -712.13137    176.00336    39.458265    35.596306    26.693664 
   27400    243.69132   -354.51956       229892   -22507.458    1732.4581   -24239.916   -856.64982    177.71568    39.458774    35.596649    26.700568 
   27600    227.63859   -281.21973       229892   -22621.916    1618.3355   -24240.251   -525.56455    180.78546    39.458265    35.597222    26.704144 
   27800    236.39399   -380.56469       229892   -22500.066    1680.5797   -24180.646   -920.47574    182.48201    39.460602    35.598236    26.692149 
   28000    228.75818   -272.75558       229892   -22607.296     1626.295   -24233.591   -504.18532    182.11184    39.460828     35.59864    26.687146 
   28200     236.8957   -373.16289       229892   -22609.607    1684.1465   -24293.754   -970.90795    183.72737     39.46304    35.599309    26.682771 
   28400    228.92552   -198.63121       229892   -22614.037    1627.4847   -24241.522   -287.80958    181.77205    39.462811    35.601042    26.689813 
   28600    235.35459   -396.40188       229892     -22603.1    1673.1903    -24276.29   -1001.6188    183.98746    39.461915    35.600628    26.687978 
   28800     230.5162   -324.02805       229892   -22570.441    1638.7932   -24209.234   -719.59002    185.30969    39.462063    35.598138    26.675709 
   29000    235.27961   -339.44765       229892   -22526.939    1672.6573   -24199.597   -753.60713    187.09339    39.462777     35.59574    26.692498 
   29200    236.72684    -518.0586       229892   -22487.403     1682.946   -24170.349   -1486.0464    188.58523    39.463272     35.59765    26.683445 
   29400    231.22173   -463.34377       229892    -22521.51    1643.8089   -24165.319   -1280.4402    189.10271    39.463557    35.597036    26.680097 
   29600    234.39645   -445.97588       229892   -22516.817    1666.3787   -24183.196   -1176.8535     190.6761    39.465866    35.598048    26.666769 
   29800    227.92835   -360.20333       229892    -22617.41    1620.3955   -24237.806   -881.80999    191.78365    39.469153    35.597266    26.676296 
   30000    228.23769   -313.75431       229892   -22673.436    1622.5947   -24296.031   -668.10432    193.49224    39.469675     35.59549    26.701742 
   30200    232.26211   -506.65617       229892   -22583.635    1651.2052    -24234.84   -1443.8149    192.42318     39.47031    35.593758    26.694865 
   30400    233.09108    -565.6005       229892   -22646.955    1657.0986   -24304.053    -1657.394    192.92195     39.47175    35.593511    26.690983 
   30600    226.78662   -390.20748       229892   -22678.048    1612.2787   -24290.327   -1014.9208    194.01219    39.471845    35.593803    26.677712 
   30800    237.34714   -128.36473       229892   -22645.834    1687.3559    -24333.19    91.186587    195.20345    39.472126    35.594412    26.674376 
   31000    236.52279   -541.12303       229892    -22630.35    1681.4954   -24311.845   -1624.0282    198.78151    39.472429    35.595128    26.670823 
   31200    231.76994   -290.54185       229892   -22609.988    1647.7063   -24257.694   -582.16324    200.52912     39.47212    35.591879    26.665032 
   31400    238.05154   -370.31621       229892   -22562.606    1692.3636    -24254.97    -928.0078    201.57664    39.473871    35.590255    26.643978 
   31600    232.93267   -308.83549       229892    -22574.44    1655.9724   -24230.413   -657.36702    202.51145    39.477276    35.590397    26.633101 
   31800    234.06704   -295.91633       229892   -22515.717    1664.0369   -24179.754   -589.18082    205.04684    39.476841    35.590086    26.630789 
   32000    231.85456   -308.56087       229892   -22602.599    1648.3079   -24250.906   -667.65982    205.74367    39.475867    35.594384    26.624359 
   32200    232.74538    -402.8568       229892   -22599.288    1654.6409   -24253.929   -1018.9193    206.16358    39.474314    35.593687    26.610347 
   32400    230.34524   -452.38821       229892   -22595.978    1637.5777   -24233.556    -1207.859    207.82733    39.474743    35.591997    26.599289 
   32600    236.41206   -355.35297       229892   -22507.986    1680.7082   -24188.694   -828.09531    207.48735     39.47561    35.591832    26.592223 
   32800    242.41862   -399.80494       229892    -22496.87    1723.4102   -24220.281   -965.67972    206.31493    39.475997    35.591336    26.571371 
   33000    235.33119   -536.21542       229892   -22499.611     1673.024   -24172.635   -1563.4162    207.30663    39.478484    35.593038    26.555502 
   33200    233.46465   -341.07185       229892   -22495.552    1659.7543   -24155.306   -775.14919    209.14714     39.48006    35.593928    26.560738 
   33400    232.87011   -404.96252       229892   -22594.631    1655.5276   -24250.158    -1038.481    211.12568    39.479304    35.594075    26.575981 
   33600    232.94469   -408.84682       229892   -22600.234    1656.0579   -24256.292   -1026.2787    212.17978    39.476927    35.595134    26.590488 
   33800    242.53942   -272.15283       229892   -22451.108     1724.269   -24175.377   -479.03599    212.17299    39.475838    35.596063    26.582842 
   34000    234.81979   -460.56128       229892   -22560.961    1669.3883    -24230.35     -1226.16    212.83438    39.475021    35.593369    26.573934 
   34200    235.00027   -392.52994       229892   -22559.464    1670.6715   -24230.135   -1018.8874    213.41721    39.472034    35.591575    26.588246 
   34400    233.36272   -281.16327       229892    -22612.23    1659.0297   -24271.259   -518.27373    214.84321    39.468784    35.592142     26.58929 
   34600    238.70179   -378.16703       229892   -22468.597    1696.9864   -24165.583   -949.63689    214.02187    39.468034    35.594136    26.569291 
   34800    236.64594   -372.32252       229892   -22554.745    1682.3709   -24237.116   -918.24225    215.62162    39.465297    35.594292    26.566562 
   35000    230.66396   -422.84755       229892   -22598.981    1639.8436   -24238.824    -1079.033    215.56571    39.464572    35.594307    26.570879 
   35200    238.38461   -379.99586       229892    -22543.72    1694.7315   -24238.451   -945.69057    217.25693    39.464856    35.594995      26.5825 
   35400    234.34301    -370.7429       229892    -22538.85    1665.9988   -24204.849   -884.39254    219.30319    39.465814    35.594749    26.582516 
   35600    236.37643   -353.98207       229892   -22555.096    1680.4548   -24235.551   -796.25894    221.11552    39.468278    35.593725    26.561263 
   35800    237.11502   -453.79584       229892   -22432.057    1685.7057   -24117.762   -1210.6778    223.15372    39.467071    35.591756    26.589494 
   36000     234.5392   -306.18709       229892   -22604.288    1667.3936   -24271.682   -592.64133    225.94072    39.467968    35.590067    26.607618 
   36200    238.37022   -360.89729       229892   -22612.788    1694.6292   -24307.417   -866.12417    226.64677     39.46686     35.58714    26.603602 
   36400    231.59109    -383.2003       229892   -22565.248    1646.4348   -24211.683   -946.63872    227.06134    39.465765    35.582606    26.598297 
   36600    237.47421   -331.52877       229892   -22547.982    1688.2592   -24236.242   -745.22231     226.4355    39.465746    35.581579    26.613053 
   36800    235.19535   -231.47211       229892    -22570.72    1672.0583   -24242.778    -358.0379     227.8252    39.464877    35.581208    26.625088 
   37000    232.73102   -206.97016       229892   -22601.841    1654.5388    -24256.38    -296.4649    230.21933    39.465218    35.581057    26.631635 
   37200    232.41275   -500.03669       229892   -22590.129    1652.2762   -24242.405    -1385.382    230.76808    39.465301    35.580701    26.629499 
   37400    233.28385   -387.29641       229892   -22580.676     1658.469   -24239.145   -929.37084    231.73787    39.465165    35.580873    26.630916 
   37600     229.5557   -374.30643       229892   -22606.916    1631.9647   -24238.881     -944.947    232.47843    39.466091    35.581359    26.628324 
   37800    234.75125   -220.80611       229892   -22676.439    1668.9011    -24345.34   -311.86888    232.49818    39.466634    35.578107    26.634652 
   38000    238.18388   -338.71945       229892   -22571.684    1693.3045   -24264.988   -772.85826    233.52399    39.466047    35.575794    26.646367 
   38200    229.03979   -405.74988       229892   -22569.414     1628.297   -24197.711   -1001.2109    233.95119    39.464946    35.574117    26.670546 
   38400    243.20112   -360.05301       229892   -22475.015    1728.9732   -24203.988   -864.81722    235.38876    39.466678    35.572436    26.669105 
   38600    237.72191   -338.76614       229892   -22521.307    1690.0202   -24211.328   -810.79803    236.49858    39.466428      35.5727    26.657186 
   38800    235.25654   -461.43151       229892   -22535.209    1672.4933   -24207.702   -1254.1481    237.57473    39.465821    35.572726    26.653875 
   39000    235.62674   -381.53987       229892   -22499.691    1675.1252   -24174.817    -966.2084    237.99038    39.463618    35.574927    26.667148 
   39200    236.09953   -455.45842       229892   -22591.382    1678.4863   -24269.868   -1243.0994    238.47085     39.46374    35.575602    26.667403 
   39400    235.78888   -303.99905       229892   -22564.319    1676.2778   -24240.597   -623.78001    240.74827    39.463776    35.576254    26.661743 
   39600    238.42057   -453.75075       229892   -22472.101    1694.9871   -24167.088   -1260.0641     242.1645    39.462228    35.579163    26.658694 
   39800    228.59044   -373.89984       229892   -22560.581    1625.1024   -24185.684   -935.28591    242.43074    39.461249    35.579788     26.64968 
   40000    235.58869   -305.76154       229892   -22536.319    1674.8547   -24211.174   -637.77824    243.63691    39.462576    35.578548    26.649348 
   40200    237.53485   -231.56058       229892   -22523.164    1688.6904   -24211.854   -344.93084    244.84713    39.465028    35.579313    26.643958 
   40400    231.42766   -429.07824       229892   -22563.459    1645.2729   -24208.732   -1106.8763    244.94946    39.464834    35.578877    26.630429 
   40600    237.42222   -398.49183       229892   -22499.338    1687.8896   -24187.228   -992.81388    245.71688    39.466481     35.57877    26.647472 
   40800    231.15422   -345.42579       229892   -22600.985     1643.329   -24244.314   -775.99458    248.76549    39.466997    35.575429    26.646549 
   41000    237.72369   -395.29663       229892   -22557.063    1690.0328   -24247.096   -958.71452    250.47985    39.466069    35.574309    26.639938 
   41200    238.79565   -435.66232       229892   -22491.626    1697.6537    -24189.28   -1126.7217    251.43629    39.464435      35.5712    26.629116 
   41400     235.5939   -337.09978       229892   -22545.367    1674.8917   -24220.259    -787.6907    252.01077    39.463877    35.567608    26.635444 
   41600    239.23048   -289.19511       229892   -22551.791     1700.745   -24252.536   -556.02411    253.25574    39.464516     35.56524    26.662809 
   41800    235.56847   -339.78856       229892   -22546.904    1674.7109   -24221.615   -751.39059    254.53245    39.464026    35.565926    26.676154 
   42000    235.29535   -334.66527       229892    -22589.09    1672.7692   -24261.859   -761.80924    254.37507    39.465949    35.567429    26.684931 
   42200    231.75296    -416.8549       229892    -22651.01    1647.5855   -24298.596   -1053.9173    254.73683    39.464511    35.565856    26.687868 
   42400    236.34886   -305.86098       229892   -22607.413    1680.2589   -24287.672    -654.5095      254.965    39.464368    35.566012    26.670418 
   42600    228.13295   -471.75022       229892   -22622.845      1621.85   -24244.695   -1310.9746    255.42663    39.465045    35.567084    26.660773 
   42800    234.67841   -236.28088       229892   -22551.905    1668.3832   -24220.289    -391.0728    258.15917    39.464175    35.570001    26.664933 
   43000      238.592   -356.96855       229892   -22608.483    1696.2059   -24304.689   -806.22655     258.0963    39.465898    35.569134    26.656187 
   43200    232.06409   -385.50924       229892   -22626.577    1649.7974   -24276.374   -949.38089    259.19592      39.4661    35.567041      26.6617 
   43400    236.41253   -371.11309       229892   -22603.725    1680.7115   -24284.436   -881.40586    262.07883    39.465962    35.566706    26.690047 
   43600    231.50929   -212.43901       229892   -22615.652    1645.8532   -24261.505   -274.80636    262.63207    39.464467    35.566339    26.677808 
   43800    238.33311   -204.22822       229892   -22642.489    1694.3653   -24336.854    -247.1842    266.19162    39.464442    35.568098    26.671122 
   44000    232.20284   -331.80947       229892   -22684.067    1650.7838   -24334.851   -736.04989    266.53999    39.465214    35.569438    26.651668 
   44200    234.97072   -370.52057       229892    -22626.11    1670.4613   -24296.572   -882.98398    265.35603    39.465106    35.570581    26.646927 
   44400    230.42346   -298.92792       229892   -22682.009    1638.1338   -24320.142   -583.29936    265.84051    39.465057    35.569535    26.644027 
   44600    231.80321   -409.12025       229892   -22629.408    1647.9428   -24277.351   -1010.5887    266.10879    39.465766    35.568816    26.660867 
   44800    232.68488   -415.54053       229892   -22633.322    1654.2108   -24287.533   -1059.1069    264.86537    39.466525    35.568727    26.665502 
   45000    231.54564   -470.24206       229892   -22590.892    1646.1117   -24237.004   -1275.6828    265.86184    39.465013    35.570232    26.665808 
   45200    233.44193   -398.66305       229892    -22561.97    1659.5928   -24221.563   -1026.4448    267.11216    39.466468     35.56919    26.685349 
   45400    225.44095   -272.67813       229892   -22643.056     1602.712   -24245.768   -512.35718    267.19857    39.465206    35.568416    26.667228 
   45600    239.42417   -205.81931       229892   -22547.817    1702.1219   -24249.939   -275.49677    267.39648    39.465284    35.567826    26.658821 
   45800    237.15216   -398.46244       229892   -22595.771    1685.9697   -24281.741   -985.84297    268.84063    39.463911    35.567563    26.641185 
   46000    235.45602   -483.84073       229892   -22506.763    1673.9115   -24180.674   -1361.7063    269.60205    39.462999    35.569136    26.651999 
   46200    237.59546   -482.26905       229892    -22497.77    1689.1212   -24186.891   -1348.8295     269.1367    39.463179    35.569924     26.64757 
   46400    229.42531   -324.13766       229892    -22578.13    1631.0378   -24209.168   -727.65555    270.05674     39.46445    35.568381    26.619503 
   46600    234.45186   -480.64929       229892   -22549.923    1666.7727   -24216.695   -1306.8469    272.42706    39.464243    35.568011    26.622071 
   46800    234.52634   -361.76016       229892   -22552.044    1667.3021   -24219.346   -919.42101    272.34835    39.464588    35.567072    26.616492 
   47000     238.3189   -309.03134       229892   -22526.947    1694.2643   -24221.212   -660.40271    274.52482    39.464132    35.566623    26.604889 
   47200    228.81722   -413.03043       229892   -22614.723    1626.7147   -24241.437    -1043.778    273.93326    39.464529    35.568695    26.581376 
   47400    235.83548   -315.02308       229892   -22580.939    1676.6091   -24257.548     -681.783    273.97681    39.464529     35.57173    26.604458 
   47600    233.53254   -479.81045       229892   -22591.955     1660.237   -24252.192   -1322.8686    276.04289      39.4647    35.572797    26.589713 
   47800    230.59696    -455.8706       229892   -22609.366    1639.3672   -24248.734   -1223.1012    276.78547    39.464588    35.574622    26.570539 
   48000    238.12012   -455.99083       229892   -22596.264    1692.8511   -24289.115   -1228.9004    277.38539    39.466991    35.575295    26.576251 
   48200    231.72622   -360.75479       229892   -22600.974    1647.3954   -24248.369   -850.59315    278.19501    39.465804    35.574731    26.567494 
   48400    228.73394   -486.31844       229892   -22582.793    1626.1226   -24208.916   -1346.9357    279.30857    39.465967    35.574726    26.561541 
   48600    232.71334   -348.56794       229892   -22657.742    1654.4131   -24312.155    -823.8089     282.0946    39.465929    35.574403    26.555082 
   48800    231.44249   -284.49255       229892   -22574.054    1645.3783   -24219.432   -510.41633    284.06186    39.465171    35.574644    26.552324 
   49000    234.65571   -487.48814       229892     -22575.6    1668.2219   -24243.822   -1339.6407    285.31059    39.465559    35.572827    26.551779 
   49200    239.85002   -293.43303       229892   -22538.608    1705.1494   -24243.757   -611.73126    287.65519    39.466871     35.57111    26.553265 
   49400    231.31987   -266.25657       229892   -22561.743    1644.5066   -24206.249   -523.68844    287.21379    39.467167    35.570141    26.561054 
   49600    230.06715   -190.92827       229892   -22556.306    1635.6007   -24191.906     -192.544    286.03066    39.467537    35.568899    26.560621 
   49800    235.21721   -248.95615       229892   -22578.619    1672.2137   -24250.833   -419.60483    288.38328    39.469691    35.572872    26.562692 
   50000    234.56654    -377.4547       229892   -22602.319    1667.5879   -24269.907   -958.03672     288.6287    39.469799    35.573189    26.557789 
   50200     237.8229   -308.07194       229892   -22525.777    1690.7382   -24216.515   -671.73182     289.8393    39.467909     35.57263    26.551864 
   50400    236.00005   -161.01868       229892   -22543.399    1677.7791   -24221.178   -89.445102    290.14713    39.466704    35.572661    26.557471 
   50600    244.53636   -379.55622       229892   -22420.312    1738.4657   -24158.778   -952.42359    291.82556    39.463481    35.570736    26.565836 
   50800    228.74557    -340.0116       229892   -22570.301    1626.2053   -24196.506   -776.49858    291.33478    39.463067    35.570835    26.570753 
   51000    229.73364   -306.05015       229892   -22538.555    1633.2297   -24171.785   -661.70413    290.62792    39.463133    35.568355    26.555941 
   51200     226.0221   -350.10211       229892   -22549.324    1606.8436   -24156.167   -815.18177    292.08379    39.461821    35.567615     26.55001 
   51400    233.58564   -220.03738       229892   -22546.494    1660.6145   -24207.109   -286.91718    293.37252    39.461107    35.567483    26.540732 
   51600     231.1805   -325.79169       229892   -22568.174    1643.5158    -24211.69   -726.63523     294.9652     39.46011    35.567987    26.519936 
   51800    231.62703   -432.27628       229892   -22529.432    1646.6903   -24176.122   -1140.8134    295.79601    39.460559    35.567241    26.510554 
   52000    229.94216   -392.87713       229892   -22608.191    1634.7122   -24242.904   -986.28861    294.86069    39.459615     35.56738    26.491442 
   52200    226.54728    -358.0617       229892   -22603.617    1610.5772   -24214.194   -805.60086    296.12862    39.460161    35.568281    26.503744 
   52400    230.20965   -284.54619       229892   -22697.084    1636.6138   -24333.698   -542.51015    298.39243    39.461068    35.568677    26.520009 
   52600    233.47235   -384.03802       229892   -22584.908    1659.8091   -24244.717   -974.46655    300.17702    39.463338    35.569386    26.517982 
   52800    233.50258   -333.90069       229892   -22536.404     1660.024   -24196.428   -776.41244    299.96724    39.464057    35.570762    26.518598 
   53000    230.59125   -457.18003       229892   -22502.862    1639.3267   -24142.188   -1269.1019    301.24558    39.459673    35.575403    26.521413 
   53200    233.75843   -335.86207       229892   -22606.892    1661.8429   -24268.735   -754.53499    301.38969    39.459265    35.575739    26.521856 
   53400    234.58235   -378.52915       229892   -22590.853    1667.7004   -24258.553   -893.94225    300.48307    39.458939    35.575506    26.529449 
   53600    232.68854   -332.65047       229892   -22686.917    1654.2368   -24341.154   -771.27193     300.8866    39.458705    35.578557     26.53158 
   53800    236.54551   -515.50263       229892   -22648.669    1681.6569   -24330.325   -1423.7254    301.99746    39.458402    35.579553    26.537367 
   54000    232.31144   -399.33667       229892   -22636.831    1651.5559   -24288.387   -964.53071    303.26423    39.459445    35.580029    26.535651 
   54200    238.47752   -323.75614       229892   -22560.732     1695.392   -24256.124   -707.66568    304.02319    39.458276    35.580228    26.542802 
   54400    240.66227   -322.69307       229892   -22537.155    1710.9239   -24248.079   -677.74794    304.72912    39.455568    35.578013    26.559484 
   54600    235.82117   -344.97571       229892   -22565.183    1676.5074    -24241.69   -762.63846    305.54008    39.453196    35.579917    26.546381 
   54800     236.9775   -356.55424       229892   -22545.549     1684.728   -24230.277   -841.12001    306.34363    39.452084    35.578173     26.54231 
   55000    238.71893    -468.9453       229892   -22540.054    1697.1082   -24237.163   -1239.9504    307.32569    39.450099    35.577521    26.537911 
   55200    228.84545   -321.99639       229892   -22662.119    1626.9154   -24289.034   -731.63485    307.72467    39.449733    35.577097    26.531882 
   55400     233.6348   -188.90956       229892   -22625.056     1660.964    -24286.02   -195.40898    308.21891    39.448693     35.57747    26.547221 
   55600    231.56359   -300.78391       229892   -22616.898    1646.2393   -24263.137   -644.01851    310.51861    39.447754    35.576433    26.551004 
   55800    238.48202   -457.61862       229892   -22469.498     1695.424   -24164.922   -1252.7198    310.69654    39.446565    35.578366    26.557742 
   56000    242.51488   -186.74365       229892   -22508.739    1724.0946   -24232.833   -175.65791    310.93849    39.445932    35.579431    26.550818 
   56200    234.51822   -195.80342       229892    -22515.52    1667.2444   -24182.764   -236.65073    312.33521    39.447516    35.579589    26.538663 
   56400    235.25073   -436.53044       229892   -22580.765     1672.452   -24253.217   -1121.3977    314.14305    39.447841    35.580453    26.540183 
   56600    229.72841   -276.48781       229892   -22650.179    1633.1926   -24283.372   -526.80848    313.66943     39.44645    35.579857    26.542833 
   56800    234.01201   -313.88674       229892   -22576.146    1663.6457   -24239.792   -699.42293    314.45349    39.444788    35.579011    26.533081 
   57000    228.29277   -256.22731       229892   -22644.538    1622.9862   -24267.524   -481.43864    314.04597    39.447101    35.578551    26.544232 
   57200    232.81091   -277.73045       229892   -22541.217    1655.1068   -24196.324   -522.72369    316.10247    39.447716    35.577721    26.529962 
   57400    232.47169   -474.74136       229892   -22590.986    1652.6951   -24243.681   -1304.4228     317.5603    39.447199    35.578557    26.519068 
   57600    227.93956   -235.63707       229892   -22624.605    1620.4752    -24245.08   -346.03118    319.15592    39.446796    35.580264    26.515114 
   57800    235.03595   -388.43927       229892   -22596.289    1670.9251   -24267.215   -937.33621    318.51137    39.446151    35.580327    26.514611 
   58000    235.82151   -299.75725       229892   -22612.452    1676.5098   -24288.962   -608.28264    318.65364    39.449085    35.580034    26.495323 
   58200    235.24549   -434.31374       229892   -22531.454    1672.4147   -24203.869   -1154.0503    320.00104    39.451642    35.579004    26.472805 
   58400    235.53889   -455.70564       229892   -22562.789    1674.5006    -24237.29   -1210.1738    320.96497    39.451516    35.580984     26.46587 
   58600    235.96749   -389.88255       229892   -22583.342    1677.5476    -24260.89   -961.58527    319.57368     39.45202    35.582991     26.47138 
   58800    231.69626   -490.97493       229892    -22588.05    1647.1825   -24235.233   -1375.2301    320.87586    39.452773    35.582991    26.449453 
   59000    232.85575   -441.37588       229892   -22526.027    1655.4256   -24181.452   -1181.2555    322.54412    39.451129    35.580928    26.439614 
   59200     233.0351   -337.37283       229892   -22591.935    1656.7006   -24248.636   -790.87242    322.58665    39.449592    35.581613     26.44461 
   59400     234.0832   -365.81204       229892   -22564.073    1664.1518   -24228.224   -890.49254    323.33241    39.448423    35.581318    26.437928 
   59600    235.05527   -327.85206       229892   -22606.993    1671.0624   -24278.055   -733.64871    324.72456    39.446565    35.582179     26.46618 
   59800    233.67787   -434.61966       229892    -22589.13    1661.2702     -24250.4   -1139.9764     327.3441     39.44656      35.5857    26.467775 
   60000    238.11943   -393.46395       229892   -22564.661    1692.8463   -24257.507   -972.69953    330.48218    39.443038    35.585594    26.475336 
   60200    234.88781   -202.77459       229892   -22605.265    1669.8719   -24275.137   -223.61746    329.92994    39.442233    35.584306    26.491134 
   60400    238.36668   -218.29526       229892   -22585.177     1694.604   -24279.781   -291.48965    331.48858     39.43946    35.582295    26.499506 
   60600    230.02025   -419.76986       229892   -22566.601    1635.2673   -24201.869   -1098.4363    333.29229    39.437605    35.582659    26.514267 
   60800    240.18842   -305.81858       229892   -22466.529    1707.5552   -24174.084   -658.44492    333.60563      39.4382    35.580913    26.512707 
   61000    227.65164   -305.55135       229892   -22577.066    1618.4283   -24195.495   -643.47443    334.26284    39.439221    35.582734    26.520348 
   61200    235.58217   -239.47046       229892   -22532.257    1674.8083   -24207.065   -385.35493    336.23563    39.440998    35.583023    26.527402 
   61400    237.74968   -293.97081       229892   -22580.017    1690.2176   -24270.235   -579.46944    335.79523    39.439519    35.584299    26.546869 
   61600    229.67845    -417.3065       229892   -22609.848    1632.8374   -24242.686   -1071.2545    337.88211    39.439276     35.58366    26.537883 
   61800    233.84385   -420.11306       229892   -22649.046    1662.4502   -24311.496    -1064.827    338.05139    39.439145    35.583083    26.528161 
   62000    239.70042    -343.9681       229892   -22545.732    1704.0859   -24249.818   -804.35236    338.38108    39.440214    35.581045    26.527115 
   62200    239.92168   -277.77719       229892    -22583.19    1705.6589   -24288.848   -542.79651    337.60022    39.441947    35.579256    26.520947 
   62400    238.62011   -326.70888       229892   -22606.263    1696.4057   -24302.668   -714.72835    337.92904    39.439777    35.578008    26.524941 
   62600    230.72795    -406.0085       229892   -22624.311    1640.2985   -24264.609   -999.22451    339.74132    39.438889    35.577304    26.508666 
   62800    237.69985   -361.02608       229892   -22701.057    1689.8634   -24390.921   -868.61231     339.4745    39.438404    35.576359    26.505933 
   63000    240.84418    -376.5092       229892    -22636.33    1712.2172   -24348.547     -932.264    341.63917    39.434967    35.575761       26.528 
   63200    230.11812   -581.45452       229892   -22675.163    1635.9631   -24311.126   -1762.0408    342.83742    39.436076    35.574382    26.535679 
   63400    232.72271    -462.5887       229892   -22705.323    1654.4797   -24359.802   -1261.6579      345.147    39.437208    35.573206    26.538161 
   63600    228.35803   -387.74328       229892   -22708.287    1623.4502   -24331.737   -957.44282    345.69153    39.437573     35.57175    26.537673 
   63800    228.31585   -370.48089       229892   -22686.254    1623.1503   -24309.404   -893.55912    345.35064     39.43993    35.571624    26.532966 
   64000    233.99338   -261.37618       229892   -22568.011    1663.5132   -24231.525   -499.82009    344.34353    39.443612     35.57229    26.519005 
   64200    236.77637   -394.24494       229892   -22555.359    1683.2981   -24238.657   -1036.6087    345.66422    39.443065    35.573186    26.506074 
   64400    235.21722   -545.51046       229892   -22608.377    1672.2138   -24280.591   -1572.3044    347.42592    39.441168    35.575356    26.522687 
   64600    229.52792   -272.30721       229892   -22623.278    1631.7673   -24255.045   -522.70218     348.0538    39.441482    35.576918    26.519465 
   64800    230.42212   -277.93891       229892   -22620.751    1638.1243   -24258.875   -569.55135    348.65191    39.442851    35.576502    26.516755 
   65000    230.04126   -225.92291       229892   -22514.702    1635.4167   -24150.118   -344.55819    348.30067    39.444266    35.575723    26.525338 
   65200    229.94222   -346.86351       229892   -22545.287    1634.7125       -24180   -826.41187    347.28454      39.4439    35.573967     26.52308 
   65400    234.68119   -346.67504       229892   -22557.198     1668.403   -24225.602    -836.2611    348.56397    39.443869    35.574334    26.522194 
   65600    235.88277   -376.54894       229892   -22487.098    1676.9454   -24164.043   -878.91874    350.20033    39.444665    35.575626    26.516535 
   65800    234.86385   -381.10637       229892   -22513.387    1669.7016   -24183.089   -928.66194     353.0614    39.445551    35.577113    26.534085 
   66000    229.72756   -361.21975       229892   -22488.587    1633.1865   -24121.773   -944.12268     353.4355    39.446569    35.576898    26.551727 
   66200    233.68699    -441.4075       229892   -22536.871     1661.335   -24198.206   -1203.4004    354.66509    39.449156    35.578955    26.568841 
   66400    235.56064   -406.23053       229892   -22557.123    1674.6553   -24231.778   -1040.8543    354.38547    39.448822    35.578189    26.586719 
   66600    229.43976   -363.48057       229892   -22593.084    1631.1405   -24224.225    -869.4159    355.03811    39.448706     35.57849    26.619123 
   66800    231.74014   -295.27414       229892   -22580.109    1647.4944   -24227.603   -623.29667    355.51468    39.449733    35.578214    26.621664 
   67000    222.61697   -317.69616       229892   -22674.298    1582.6357   -24256.934   -742.26622    355.16365    39.449051    35.577882    26.621123 
   67200    231.11759   -340.31115       229892   -22575.534    1643.0686   -24218.602   -799.21805    354.67252    39.447936    35.578903    26.626681 
   67400    235.93548   -389.37656       229892   -22560.463    1677.3201   -24237.783   -967.14241    355.72256    39.450176    35.577509    26.631163 
   67600    238.18943   -187.49815       229892   -22511.947    1693.3439   -24205.291   -171.66149    357.99497    39.448784    35.577415    26.628831 
   67800    234.18841   -406.73613       229892    -22516.68    1664.8997   -24181.579   -1014.9349    358.52412    39.446741    35.577331    26.636438 
   68000    228.01962   -284.15784       229892   -22572.612    1621.0444   -24193.656   -554.35106    358.16423    39.444475     35.57887    26.629779 
   68200    237.18002   -375.08858       229892   -22522.941    1686.1678   -24209.109   -885.61831    358.07875    39.445485    35.579624    26.647428 
   68400    236.43593   -299.28924       229892   -22496.619    1680.8779   -24177.497   -628.48886    358.16443    39.448813    35.578118    26.663955 
   68600    234.71745   -312.59585       229892   -22545.083    1668.6608   -24213.744   -698.81609    362.47433    39.450354    35.578938    26.668543 
   68800    233.88679   -457.09432       229892   -22496.738    1662.7554   -24159.493   -1249.0813    364.25358    39.451127    35.580059    26.688115 
   69000    242.11161   -498.72968       229892   -22508.117    1721.2276   -24229.344   -1367.6077    365.80306    39.452945     35.58192    26.680707 
   69200    234.06679   -429.87569       229892   -22578.272    1664.0351   -24242.307    -1119.857    365.12839    39.453567    35.583241     26.66668 
   69400    230.18545   -408.52037       229892     -22602.3    1636.4418   -24238.741   -991.81132    365.53344    39.451285    35.584621    26.663869 
   69600    236.63249   -458.34241       229892   -22505.541    1682.2753   -24187.816   -1266.6941    365.25463    39.451615    35.585339    26.658474 
   69800    234.61981   -442.30083       229892   -22547.032    1667.9666   -24214.999    -1193.848    365.78844     39.45062    35.584526    26.650178 
   70000    234.07576   -432.19186       229892   -22596.481    1664.0989    -24260.58   -1174.1911    366.94394     39.45075    35.584831    26.647441 
   70200     235.4833   -353.66907       229892   -22515.195    1674.1054   -24189.301   -861.41236    368.37092    39.449563    35.584414    26.656267 
   70400    238.69063   -242.92173       229892   -22540.643    1696.9071    -24237.55    -439.9915    369.17798    39.448834    35.583136    26.664711 
   70600    231.54051   -257.47198       229892   -22594.687    1646.0752   -24240.762   -433.64646    370.59844    39.448213    35.582781    26.670163 
   70800    234.31677    -371.9279       229892   -22561.082    1665.8122   -24226.894   -883.78749    373.19422    39.447266     35.58271    26.662634 
   71000    231.73601   -118.65296       229892   -22593.818    1647.4651   -24241.283    57.589965    372.29986    39.446907    35.583865    26.668848 
   71200    231.69125   -335.88372       229892   -22585.134    1647.1469   -24232.281   -733.69017    374.22927     39.45009    35.584447    26.697039 
   71400    236.00414   -394.71552       229892   -22618.038    1677.8082   -24295.846   -954.63398    375.71206    39.449944    35.586677    26.664241 
   71600    236.02211   -449.56399       229892   -22518.874    1677.9359    -24196.81   -1243.7161    377.42578    39.449555     35.58774    26.653245 
   71800    232.13043   -433.44342       229892   -22583.176    1650.2691   -24233.445   -1103.9378    377.56285    39.450395    35.588473    26.679497 
   72000    231.54969   -359.09202       229892   -22589.783    1646.1405   -24235.924   -838.39174    377.41156     39.45381    35.588663    26.695947 
   72200    236.15336   -350.49595       229892   -22464.349     1678.869   -24143.218   -802.40604    378.89299     39.45384     35.58837    26.710963 
   72400    232.54057   -485.94558       229892   -22550.969    1653.1849   -24204.154   -1344.1926     380.6419    39.455634    35.586577    26.722876 
   72600    238.83006   -287.51775       229892   -22534.246    1697.8983   -24232.144    -586.7379    379.70772    39.456945    35.585816    26.711588 
   72800    237.22982    -318.0866       229892   -22562.045    1686.5218   -24248.567   -632.00178    381.73693    39.458592    35.585457    26.714908 
   73000    235.00017   -498.63345       229892   -22604.925    1670.6707   -24275.596   -1375.4899    382.43892    39.455134     35.58244    26.719857 
   73200    236.02774    -436.9618       229892   -22542.448     1677.976   -24220.424   -1149.1186    383.82241    39.455776     35.58202    26.721321 
   73400    238.95193   -382.66797       229892   -22515.239    1698.7647   -24214.004   -937.34648    384.28232    39.454022    35.583476    26.737387 
   73600    231.84471   -411.54501       229892   -22533.206    1648.2378   -24181.444   -1053.1924    384.41515    39.454775    35.581435    26.717239 
   73800    234.41115   -354.91948       229892   -22640.272    1666.4832   -24306.755   -850.66583    383.93953    39.456003    35.580944    26.705626 
   74000    235.66944   -356.96456       229892   -22600.242    1675.4287    -24275.67   -806.67127    387.09986    39.453759    35.582845     26.70637 
   74200    233.90838   -521.19595       229892   -22494.107    1662.9089   -24157.016   -1506.5604    385.83661    39.453594     35.58288    26.712734 
   74400    235.85807   -503.33628       229892   -22492.661    1676.7698    -24169.43   -1447.3032    386.44241    39.456419    35.582352    26.708396 
   74600    236.30505   -520.29446       229892   -22521.068    1679.9474   -24201.015   -1461.9617    386.23777    39.456644    35.583967     26.72697 
   74800    228.06735   -472.82943       229892    -22578.01    1621.3837   -24199.393   -1289.3521    387.79483    39.455004    35.584597    26.742742 
   75000    230.63934   -301.36139       229892   -22574.835    1639.6686   -24214.503   -649.37185    386.10618    39.456289      35.5835    26.770065 
   75200    232.75438   -199.46173       229892   -22502.881    1654.7048   -24157.586    -223.6166    386.42789    39.454422    35.584138    26.777612 
   75400    231.29526   -354.94957       229892   -22626.767    1644.3316   -24271.098   -864.82242    386.51427    39.452982    35.582614    26.774212 
   75600     231.8623   -441.79909       229892   -22590.408    1648.3629    -24238.77   -1180.8907    388.49362     39.45258    35.580058    26.793265 
   75800    235.18333    -429.5421       229892   -22532.468    1671.9729   -24204.441   -1126.9715    389.68816    39.454818    35.581081    26.794298 
   76000    238.33885   -276.24355       229892   -22528.302    1694.4061   -24222.709   -537.12205    389.74204    39.455259    35.580064    26.802558 
   76200    227.91852   -324.62912       229892   -22634.222    1620.3257   -24254.547   -733.14178    391.54201     39.45503    35.579862    26.815905 
   76400    235.00004   -331.10948       229892   -22615.709    1670.6698   -24286.378   -770.70677     391.2783    39.455592    35.579461    26.821999 
   76600    234.62164   -402.43398       229892   -22591.585    1667.9796   -24259.564   -1037.6929    392.17316    39.454471    35.578616    26.809338 
   76800    228.62185   -417.46161       229892   -22608.168    1625.3258   -24233.494   -1098.2904    390.73244    39.453243    35.577276    26.823558 
   77000    230.38277   -338.57379       229892   -22619.002    1637.8446   -24256.847   -791.92463    393.15825    39.454375     35.57436    26.827848 
   77200    235.50856   -386.26181       229892   -22565.128     1674.285   -24239.413   -963.81381    393.17299    39.457224    35.573117    26.816578 
   77400     230.9249    -297.2437       229892   -22562.431    1641.6987    -24204.13   -618.31909    391.25483     39.45896    35.575293    26.805561 
   77600     235.4463   -390.39839       229892   -22596.956    1673.8423   -24270.799   -1000.7107     391.5809    39.458524    35.572886    26.795116 
   77800     233.2166   -422.86849       229892   -22629.587    1657.9909   -24287.578   -1147.7804     390.7084    39.458544    35.572469    26.782019 
   78000     232.0549    -322.0842       229892   -22628.689    1649.7321   -24278.421   -713.68713    390.31407    39.457981    35.572254    26.775269 
   78200     233.9852   -248.20339       229892   -22639.748    1663.4551   -24303.203   -434.27449    391.32006    39.458665    35.571149    26.775737 
   78400    234.91387   -343.53817       229892   -22588.336    1670.0572   -24258.393   -798.11465    391.33766    39.460404    35.571172    26.754457 
   78600    231.68271   -320.11899       229892   -22608.319    1647.0861   -24255.406    -720.8528    393.39664    39.460556    35.569146    26.763764 
   78800     236.7032   -277.84304       229892    -22533.74    1682.7779   -24216.518   -557.58884    394.25682    39.460771    35.567749    26.767965 
   79000    233.21975   -293.62663       229892   -22528.851    1658.0133   -24186.864   -643.79338    394.90392    39.463529    35.570773     26.78644 
   79200    238.53073   -486.05297       229892   -22468.407    1695.7703   -24164.177   -1381.5623    397.21581    39.462644    35.571859    26.772095 
   79400    234.81142   -432.08944       229892   -22479.491    1669.3288   -24148.819   -1128.3507    396.78268    39.461018    35.569075    26.764785 
   79600    228.27673   -120.58051       229892    -22528.21    1622.8722   -24151.082    25.958033    399.14274    39.460488    35.568572    26.773859 
   79800    233.03517   -275.78111       229892    -22535.19    1656.7011   -24191.891   -534.07076    401.38711    39.458117    35.569097    26.761099 
   80000    231.46807    -362.9589       229892   -22589.777    1645.5602   -24235.337   -894.93754    401.97794    39.458069    35.566824    26.753538 
   80200    232.93442   -200.73732       229892   -22636.265    1655.9848    -24292.25   -274.07863    401.42662    39.458821    35.563892     26.76948 
   80400    232.02851   -472.70876       229892   -22633.614    1649.5445   -24283.158   -1357.3933    402.73668    39.458008    35.560905    26.768394 
   80600    233.84237   -366.07611       229892    -22590.61    1662.4396    -24253.05    -912.2354    403.54132    39.459111    35.561094    26.781022 
   80800    235.85565   -181.23833       229892   -22565.296    1676.7525   -24242.049   -170.61452    404.48152    39.459132    35.560397    26.778506 
   81000    231.87039    -375.5725       229892   -22587.786    1648.4204   -24236.206   -882.64295    406.05141    39.460691    35.560547    26.766842 
   81200     233.7471   -394.30459       229892   -22545.824    1661.7624   -24207.586   -1025.1215    407.12765     39.46133    35.560031    26.764967 
   81400    233.85911    -299.7857       229892   -22526.396    1662.5586   -24188.954   -627.55293    407.92137    39.458763    35.558232    26.777609 
   81600    233.80763   -546.59204       229892   -22619.997    1662.1927   -24282.189   -1638.0342    408.76996    39.457546    35.558235    26.791699 
   81800    230.93426   -379.37614       229892   -22652.143    1641.7652   -24293.908   -933.36306    409.29168    39.458796    35.560039    26.802088 
   82000    231.08516   -319.49406       229892   -22561.346     1642.838   -24204.184   -724.19741    411.11848    39.458879    35.561856    26.802963 
   82200    240.82127   -328.03875       229892   -22520.813    1712.0543   -24232.867   -755.02539    411.31492     39.45878    35.561031    26.801774 
   82400     233.9583    -239.9248       229892    -22555.79    1663.2638   -24219.053   -398.13796    410.64563    39.458464    35.558037     26.80513 
   82600    238.27889   -482.62657       229892   -22451.583    1693.9799   -24145.563   -1377.2352    411.79524    39.458412    35.556364    26.785593 
   82800    233.65996   -393.54127       229892   -22601.453    1661.1429   -24262.596   -991.65544    413.28936    39.458438    35.553312    26.759519 
   83000    243.34562   -490.24832       229892   -22529.839    1730.0005    -24259.84   -1374.7155    415.79255    39.459307    35.550519    26.786497 
   83200    235.53833   -279.07966       229892    -22547.67    1674.4966   -24222.166    -532.2378    416.66592    39.459976    35.550276     26.80723 
   83400    242.96783   -312.15353       229892   -22553.189    1727.3147   -24280.504   -684.79759    417.33249    39.460843    35.549575    26.800175 
   83600    224.37455   -276.48867       229892   -22659.139    1595.1307    -24254.27   -541.58752     416.8468    39.461944    35.550852    26.801869 
   83800    235.45315   -303.67765       229892   -22606.448    1673.8911   -24280.339   -650.65956    418.27035    39.461552    35.549323     26.77106 
   84000    240.51697   -229.37726       229892   -22585.647    1709.8909   -24295.538   -398.24553    418.57512    39.462712    35.546538    26.782577 
   84200    234.11483   -173.37633       229892   -22544.793    1664.3766    -24209.17   -133.60064    420.24473    39.461279    35.545939    26.805488 
   84400    230.29821   -414.82381       229892   -22574.075    1637.2434   -24211.319   -1098.4961    421.83552    39.460392    35.548358    26.803836 
   84600     230.3164   -246.17118       229892   -22509.765    1637.3727   -24147.138   -428.31839    422.13513    39.458829    35.548148    26.803505 
   84800    234.64584   -499.73482       229892   -22529.668    1668.1517    -24197.82    -1450.019     421.8142    39.458314    35.548544    26.809258 
   85000    232.73852   -379.50855       229892   -22502.752    1654.5921   -24157.344   -920.61829    422.93031    39.459416    35.549356    26.798276 
   85200    234.64435   -283.16473       229892   -22518.022    1668.1411   -24186.163   -547.92134    422.66922    39.459649    35.550231    26.802599 
   85400    232.03436   -385.65396       229892   -22624.281    1649.5861   -24273.867   -1002.2589    420.60813    39.460067    35.551339    26.803957 
   85600    234.20743   -449.22273       229892   -22581.534    1665.0349   -24246.569   -1201.3314    421.44314     39.45883    35.551159    26.784238 
   85800    231.77712   -373.05522       229892   -22618.034    1647.7573   -24265.791   -887.24758    422.35955    39.460296     35.54893    26.795619 
   86000    233.93093   -307.27932       229892   -22581.028    1663.0693   -24244.097     -645.138    423.44388    39.459479    35.547121     26.80281 
   86200    238.57154   -384.71436       229892   -22550.292    1696.0604   -24246.352   -964.38944    423.01345     39.45874    35.544546    26.806547 
   86400    233.67256   -412.17397       229892   -22623.132    1661.2324   -24284.365   -1055.2055    422.75582    39.460642    35.544627    26.792838 
   86600    238.52933   -352.43647       229892   -22563.992    1695.7603   -24259.753   -823.21675    423.51366     39.46169    35.546511    26.800251 
   86800    227.47325   -381.43125       229892   -22626.934    1617.1601   -24244.094   -952.11601    422.20618    39.460371    35.546758    26.788355 
   87000    234.19243   -229.87429       229892   -22553.459    1664.9283   -24218.388   -376.83086    423.13322    39.460404    35.544471     26.79055 
   87200    236.57087    -301.8102       229892   -22493.727    1681.8372   -24175.564    -652.1988    423.89432    39.460786      35.5427    26.794162 
   87400    233.31828   -306.49638       229892   -22592.433    1658.7138   -24251.146   -623.39206    424.57367    39.462001    35.539904     26.80066 
   87600    230.99145   -413.79911       229892   -22499.586    1642.1718   -24141.758    -1098.863    426.13709    39.463269    35.540697     26.79824 
   87800     230.3746   -448.92962       229892   -22537.984    1637.7865   -24175.771   -1202.9949    425.65844    39.464714     35.54074    26.790532 
   88000    235.43457   -478.23355       229892   -22529.207     1673.759   -24202.966   -1320.8819    426.77665    39.465365    35.540097    26.776728 
   88200    235.56448    -164.1406       229892   -22595.878    1674.6826   -24270.561   -90.899435    426.34385     39.46447    35.538975     26.79745 
   88400    243.80407   -271.54274       229892   -22553.553    1733.2597   -24286.813   -508.73147    427.00832    39.464845     35.54161    26.800979 
   88600    239.28017   -311.80444       229892   -22588.847    1701.0982   -24289.945   -650.07021    427.28161    39.461865      35.5422    26.786567 
   88800    228.47965   -455.31832       229892   -22632.511    1624.3148   -24256.825   -1226.5467    428.92555    39.462016    35.544062    26.785815 
   89000    233.94095   -325.82297       229892   -22600.887    1663.1405   -24264.028   -717.81517     428.5768    39.460348    35.541142    26.779661 
   89200    233.58975   -405.83197       229892   -22578.538    1660.6437   -24239.182   -1042.5058    430.18085    39.461297    35.539746    26.798384 
   89400     241.6533   -266.10921       229892   -22529.922    1717.9694   -24247.892   -498.98891    431.33176    39.461305     35.54084    26.804999 
   89600    229.23025   -344.10551       229892   -22637.121     1629.651   -24266.772   -817.93654    432.56183    39.458612    35.542035    26.803646 
   89800    233.59605    -370.9823       229892   -22505.722    1660.6885    -24166.41   -865.94754    432.62837    39.457874    35.545114    26.803292 
   90000    233.85054   -337.03179       229892   -22535.168    1662.4977   -24197.665   -745.03161    434.98098    39.455843    35.546253    26.804245 
   90200    234.91152   -315.21646       229892   -22583.579    1670.0405    -24253.62   -684.12176    435.46114    39.455327    35.548566    26.810422 
   90400    234.87084   -299.76067       229892   -22525.373    1669.7513   -24195.124   -574.74125    436.09333    39.455407    35.552063    26.781404 
   90600    240.64965   -208.65939       229892   -22551.267    1710.8342   -24262.102   -254.87677     438.2053    39.456405    35.553394    26.774674 
   90800    234.87803   -337.68622       229892    -22574.44    1669.8024   -24244.243   -771.78432    439.37654    39.457333    35.555599    26.761281 
   91000    232.55651   -432.34442       229892   -22615.704    1653.2981   -24269.002   -1146.1017    439.49952    39.457382    35.555572    26.764535 
   91200     228.9484   -346.26531       229892   -22729.258    1627.6473   -24356.905   -832.92524    440.50686    39.457838    35.554924     26.77242 
   91400    233.61769   -605.49278       229892   -22648.868    1660.8424    -24309.71   -1803.8337    439.14454    39.460166    35.556498    26.780526 
   91600    231.40728   -296.39708       229892   -22532.719     1645.128   -24177.847   -661.34364     439.3139    39.460068    35.557172    26.773184 
   91800    232.98823   -271.84946       229892   -22545.208    1656.3674   -24201.575   -519.19543    440.81122    39.460056    35.556517    26.807645 
   92000    237.83434   -377.90399       229892   -22524.353    1690.8195   -24215.172    -973.1048    442.76152    39.458817    35.557408    26.819044 
   92200    236.66542    -280.4685       229892   -22544.305    1682.5093   -24226.814   -567.41387    443.41809    39.461463    35.557489    26.821523 
   92400    234.15384   -462.63552       229892   -22550.208    1664.6539   -24214.862   -1261.6782    443.76861     39.46274    35.556959    26.816581 
   92600    238.11602   -186.62727       229892    -22494.97     1692.822   -24187.792   -165.51626    443.55342     39.46378    35.556898    26.819954 
   92800    231.61235   -457.92935       229892   -22575.935    1646.5859    -24222.52   -1254.7223    445.22419    39.465031    35.554866    26.812945 
   93000    234.94673   -338.64858       229892   -22593.025    1670.2908   -24263.316   -742.11056    447.78616    39.466247    35.555288    26.818507 
   93200    232.33248   -421.94413       229892   -22589.869    1651.7055   -24241.575    -1111.693     447.1025    39.465528    35.553506    26.814546 
   93400    225.73174   -452.43935       229892   -22689.888    1604.7793   -24294.667   -1218.9911    448.66092    39.465813    35.553222    26.806802 
   93600    237.38345   -343.18375       229892    -22647.08     1687.614   -24334.694   -798.92752    449.27483    39.466065    35.552262    26.797011 
   93800    230.79734   -281.20321       229892   -22672.127    1640.7918   -24312.918    -519.7931    449.78039    39.466724    35.556037    26.784323 
   94000    235.88493   -359.22967       229892   -22657.358    1676.9607   -24334.319   -876.24082    451.79245    39.468697    35.554359    26.795133 
   94200    238.64814   -407.55709       229892    -22532.17     1696.605   -24228.775   -1055.5573    452.79006    39.467408    35.555263    26.818114 
   94400    233.76583   -431.48915       229892   -22590.943    1661.8955   -24252.838   -1137.9971    452.82564    39.468783    35.555518    26.828966 
   94600    233.59354   -468.18735       229892   -22623.238    1660.6706   -24283.908   -1307.6384    453.44384    39.471152    35.556139    26.844372 
   94800    239.38422    -422.8893       229892   -22584.369     1701.838   -24286.207   -1136.7994    453.96956    39.471473    35.557471    26.866991 
   95000    234.14851   -444.19677       229892   -22646.102    1664.6161   -24310.719   -1208.3256    455.67155    39.471474    35.559897    26.865734 
   95200    235.39234   -175.84295       229892   -22632.062    1673.4588   -24305.521   -125.47038    456.02474    39.470825    35.562095    26.868314 
   95400    234.62584   -396.95887       229892   -22607.005    1668.0095   -24275.014   -1032.6253    457.00499    39.473097    35.564148    26.869964 
   95600    239.05124   -364.94079       229892   -22570.039    1699.4707    -24269.51   -889.93561    456.32838     39.47246    35.565455    26.875871 
   95800    236.73433    -406.6288       229892     -22549.3    1682.9993   -24232.299   -1066.2041    455.64321     39.47096    35.564132    26.868632 
   96000    238.34579   -369.40098       229892   -22549.409    1694.4555   -24243.864   -918.95562    454.80771    39.471958    35.562544    26.860335 
   96200    236.98374   -333.83179       229892    -22482.37    1684.7724   -24167.143   -763.06793    454.84626    39.470231    35.562052    26.865797 
   96400    234.60683   -417.47849       229892   -22562.452    1667.8744   -24230.326   -1079.0707    456.03473    39.470003    35.564561    26.866817 
   96600    235.71879   -321.77469       229892   -22582.349    1675.7796   -24258.129   -701.07054    457.55658    39.471625    35.566334    26.865873 
   96800    232.50477   -227.47742       229892   -22560.954    1652.9304   -24213.885   -352.93601    458.50112    39.471547    35.567809    26.865335 
   97000    232.31107   -321.69581       229892   -22602.763    1651.5533   -24254.317   -753.57566    459.00293    39.472652    35.568623     26.87469 
   97200    232.11073   -372.78085       229892   -22600.033    1650.1291   -24250.162   -907.73117    458.39492    39.473144    35.569964    26.870468 
   97400    237.39385   -481.39207       229892    -22569.53    1687.6879   -24257.218   -1356.7028    459.88701     39.47324    35.570635    26.875611 
   97600    238.21201   -252.15591       229892   -22544.224    1693.5044   -24237.728    -456.3479    461.69516    39.473449    35.569422    26.880833 
   97800    239.13124   -191.79145       229892   -22547.372    1700.0394   -24247.412   -199.17378    460.81647    39.474032    35.570406    26.895132 
   98000    228.54178   -302.42991       229892   -22612.139    1624.7565   -24236.896   -654.12203    460.97467    39.473097    35.571421    26.854125 
   98200    233.87069   -413.54148       229892   -22608.471     1662.641   -24271.112   -1107.3439    462.47034    39.472902    35.573049    26.851649 
   98400     233.4231   -479.08956       229892   -22527.274    1659.4589   -24186.733   -1371.7574    465.08168     39.47822    35.574345    26.860208 
   98600    231.54887   -388.97687       229892   -22550.199    1646.1346   -24196.334   -1004.9473    466.44005    39.478797    35.575955    26.866167 
   98800     230.6583   -443.71856       229892   -22511.981    1639.8034   -24151.784   -1217.3876    468.66364    39.483876    35.575624    26.869547 
   99000    234.02234   -420.46872       229892   -22550.713    1663.7191   -24214.433   -1106.9835    469.70601     39.48654     35.57547    26.869277 
   99200    233.38521   -480.39162       229892   -22524.247    1659.1896   -24183.437   -1304.8195    470.84589    39.488415    35.573526    26.851402 
   99400     242.2299   -384.16641       229892   -22530.312    1722.0685   -24252.381   -971.43825    472.59721    39.487498    35.570804    26.832386 
   99600    240.47728   -216.21813       229892   -22532.653    1709.6088   -24242.262   -274.53839    471.17482    39.486531    35.568679     26.82494 
   99800    235.70824   -255.15816       229892   -22535.699    1675.7045   -24211.404   -436.07439    472.23211    39.487486     35.56699    26.817616 
  100000    233.73771   -385.70786       229892   -22536.691    1661.6956   -24198.386   -965.91787    473.34709    39.485493    35.567125    26.808578 
  100200     228.0436   -255.48325       229892   -22553.665    1621.2148    -24174.88   -481.51739    473.98265    39.484029    35.567559    26.820591 
  100400    235.92727   -308.93783       229892   -22498.803    1677.2617   -24176.065    -634.9452    474.60627    39.481734    35.566657    26.817543 
  100600    235.18059   -532.72946       229892     -22517.1    1671.9534   -24189.053   -1581.0035    474.89821    39.480642    35.566442     26.80835 
  100800     238.0731    -363.9425       229892   -22549.043    1692.5169    -24241.56   -890.06623    474.02133    39.478376    35.568029    26.807457 
[...]
 3976000    221.71116   -489.40703       229892   -24591.557    1576.1961   -26167.753   -1370.8764    6498.8157      38.3178    35.960311    26.982347 
 3976200     223.8583   -330.47805       229892   -24592.249    1591.4606    -26183.71   -785.19623    6497.6123    38.318135    35.962265    26.984291 
 3976400    222.44145   -296.13006       229892   -24621.863    1581.3879    -26203.25   -618.42113    6496.6799     38.31864    35.965072    26.984057 
 3976600    220.94631    -414.4921       229892   -24610.523    1570.7586   -26181.282   -1122.8434    6499.5036    38.317381    35.966009     26.97338 
 3976800    225.08435    -522.0237       229892   -24544.269    1600.1768   -26144.446   -1503.6658    6497.7078    38.316064    35.966799    26.970622 
 3977000    222.80178   -443.05863       229892   -24652.097    1583.9495   -26236.047   -1191.3957    6499.3201    38.315749    35.969154    26.972486 
 3977200    223.91587   -365.71118       229892   -24558.882    1591.8699   -26150.752   -885.99341    6496.6226    38.315157    35.970804    26.973574 
 3977400    222.74814   -275.41608       229892   -24578.267    1583.5682   -26161.835   -547.88575     6497.574    38.315211    35.971463    26.975386 
 3977600    223.14175   -481.93047       229892   -24608.095    1586.3665   -26194.461   -1391.1426    6498.0756    38.313912    35.973339     26.98064 
 3977800    224.39299   -501.99435       229892   -24574.335    1595.2618   -26169.597   -1435.0702    6497.5962    38.313479    35.975311    26.981669 
 3978000    224.40917     -363.774       229892   -24620.246    1595.3768   -26215.623   -880.17242    6498.6652    38.313393     35.97636    26.979114 
 3978200    225.61523   -553.54198       229892   -24557.948     1603.951   -26161.899   -1620.9286    6499.7934    38.313877    35.978222    26.980252 
 3978400    222.31844   -541.23384       229892   -24595.413    1580.5134   -26175.926   -1538.7672    6499.8129    38.314857    35.978914     26.98842 
 3978600    222.27769   -369.15017       229892   -24587.065    1580.2237   -26167.289   -913.33362    6500.2785     38.31537    35.981651     26.98649 
 3978800    225.11993   -429.20651       229892   -24556.236    1600.4298   -26156.666   -1125.2057    6498.1919    38.316003    35.983828     26.98588 
 3979000    226.86868   -475.92417       229892   -24585.271    1612.8621   -26198.133   -1308.8576    6499.5123    38.317543    35.986342     26.99029 
 3979200    225.04027   -419.01045       229892   -24626.955    1599.8635   -26226.819   -1103.2102    6500.3837    38.318157    35.987598    26.991612 
 3979400    219.98254   -322.54557       229892   -24593.193    1563.9069     -26157.1   -742.48811    6500.6539    38.318289    35.989089    26.998753 
 3979600    224.28244   -331.93433       229892   -24605.702    1594.4759   -26200.178   -766.76103    6499.7198    38.317845    35.989893     27.00195 
 3979800    222.00978    -485.4351       229892   -24591.189     1578.319   -26169.508   -1367.0494    6498.2985    38.318684    35.990734    26.997915 
 3980000    220.68735   -511.28225       229892   -24596.515    1568.9175   -26165.433   -1481.4248    6499.9269    38.320107    35.991282     26.98614 
 3980200    224.44487   -508.68205       229892   -24586.494    1595.6306   -26182.124   -1460.9403    6499.9416    38.320151     35.99184     26.99148 
 3980400    222.86528   -474.42607       229892   -24581.264     1584.401   -26165.665   -1319.2707    6498.9899    38.319426    35.992125    26.991186 
 3980600    222.82376   -491.87173       229892   -24533.865    1584.1058   -26117.971   -1395.3594    6500.0663    38.318997    35.993402    26.987065 
 3980800    228.06876   -488.92068       229892   -24540.052    1621.3937   -26161.446   -1386.5421    6499.8904    38.318501    35.994997    26.995658 
 3981000    225.18585   -316.12651       229892   -24554.998    1600.8984   -26155.896   -708.25891    6498.3563     38.31667    35.995219    26.989259 
 3981200    225.28135    -433.2864       229892   -24550.905    1601.5774   -26152.482   -1184.8946    6498.9291    38.316411    35.996793     26.97684 
 3981400    220.64012   -359.82209       229892   -24540.019    1568.5818   -26108.601   -914.47525    6500.0786    38.315782    35.996947    26.967352 
 3981600    226.20606   -415.26751       229892   -24590.716    1608.1513   -26198.868   -1109.0808    6498.1548    38.316013    35.997174    26.972843 
 3981800    220.33763   -368.46801       229892   -24551.303    1566.4313   -26117.735   -934.84125    6500.1756    38.315362    35.996646    26.981383 
 3982000     222.1229   -422.99413       229892   -24586.111    1579.1232   -26165.234     -1156.66    6498.0003    38.314622    35.996288    26.990972 
 3982200    223.26327    -453.3253       229892   -24603.777    1587.2304   -26191.007   -1237.0297    6499.5525    38.313971    35.997474    26.980307 
 3982400    223.80692   -421.90326       229892    -24541.23    1591.0953   -26132.325   -1154.3724    6499.4149    38.313647    35.998105    26.978841 
 3982600    223.42258   -364.29683       229892   -24570.638     1588.363   -26159.001    -919.6959    6501.2497    38.313181    35.999675    26.975829 
 3982800    229.95514   -341.69107       229892   -24518.624    1634.8045   -26153.429   -803.07826     6500.371    38.312107    35.998982    26.965291 
 3983000    224.29177   -297.53887       229892   -24500.848    1594.5422    -26095.39   -649.28235    6500.7678    38.312694     35.99809     26.97737 
 3983200    226.97139   -338.71037       229892   -24537.672    1613.5922   -26151.265   -811.48001    6500.4602    38.313296    35.998346    26.983665 
 3983400    228.68854   -367.20222       229892   -24508.626    1625.7999   -26134.425   -888.75779    6501.2872    38.312707    35.997161    26.995998 
 3983600    221.47845   -311.98876       229892   -24562.254    1574.5417   -26136.796   -671.61422    6500.0688    38.312807    35.996717    26.998667 
 3983800    225.16434   -318.97681       229892   -24541.284    1600.7456    -26142.03   -717.05771    6501.9857    38.311675    35.996216    26.973886 
 3984000    223.40071   -379.57337       229892   -24573.429    1588.2075   -26161.637    -964.6081    6500.5202    38.310508    35.996291    26.980234 
 3984200    222.93678   -350.63942       229892   -24547.375    1584.9093   -26132.284   -839.06854    6500.8299     38.31025    35.996012    26.974561 
 3984400    223.31677   -379.56154       229892   -24566.302    1587.6107   -26153.913   -966.97866    6499.7503    38.310494    35.997339    26.971201 
 3984600    219.78183   -326.58089       229892   -24578.961      1562.48   -26141.441    -707.6333    6499.0579     38.31303    35.997279    26.972944 
 3984800     220.1009   -490.03944       229892   -24553.359    1564.7484   -26118.107   -1416.7397     6501.516    38.313365    35.998907    26.978693 
 3985000     230.2934   -430.92423       229892   -24577.473    1637.2092   -26214.682   -1127.8375    6501.3007    38.313058    35.999986    26.984909 
 3985200    225.34885   -307.73251       229892   -24554.074    1602.0572   -26156.132   -683.52205    6499.5914    38.313683    35.998986    26.988939 
 3985400    223.84494   -435.06414       229892   -24565.255    1591.3656    -26156.62   -1161.2246    6500.8816    38.314284    35.999616    26.991375 
 3985600    221.90119    -441.3604       229892   -24526.749     1577.547   -26104.296   -1218.2948    6500.6594     38.31429    36.000647    26.991276 
 3985800    225.56618   -382.70019       229892   -24554.981    1603.6023   -26158.583   -935.72032    6499.6236    38.313513    36.001425    26.988072 
 3986000    235.63265   -275.45972       229892   -24435.866    1675.1672   -26111.033   -537.51059    6500.5768    38.311988    36.000699    26.996293 
 3986200    231.84942   -359.11311       229892   -24462.128    1648.2713   -26110.399   -848.75808    6498.1339    38.311731    36.001028    27.006921 
 3986400    223.46892   -338.94303       229892   -24598.945    1588.6924   -26187.637   -819.16343    6500.8757    38.309697    36.001226     26.99856 
 3986600    222.29487   -337.67204       229892   -24568.515    1580.3458    -26148.86   -816.79875    6500.0445    38.308685    36.002331    27.002261 
 3986800     228.9635   -431.04827       229892   -24554.953    1627.7547   -26182.707   -1149.1478    6501.9957    38.306481    36.003019    26.995759 
 3987000    222.38862   -483.12128       229892    -24536.74    1581.0123   -26117.752   -1391.8574    6501.6085    38.304865    36.003417    26.984192 
 3987200    212.95543   -423.98767       229892   -24652.351    1513.9496   -26166.301   -1065.6955    6499.4025    38.304151    36.003294     26.98109 
 3987400    226.82698   -326.42803       229892   -24588.701    1612.5656   -26201.267    -735.4389    6499.5904    38.305356    36.003114    26.992906 
 3987600    228.10715   -397.29034       229892   -24526.519    1621.6667   -26148.186   -1020.3993    6500.1392    38.304553    36.001111    26.989327 
 3987800    224.14922   -490.04981       229892   -24565.678    1593.5288   -26159.207   -1373.1144    6501.2843    38.303984    36.001461    26.984374 
 3988000    228.17319   -441.64544       229892   -24524.153    1622.1362    -26146.29    -1191.002    6502.5434    38.303143    36.001653    26.987033 
 3988200    231.38155   -426.39049       229892   -24536.744    1644.9451   -26181.689   -1156.4576    6500.9644    38.303153    36.002375    26.992852 
 3988400    222.48597    -492.8412       229892   -24546.225    1581.7043    -26127.93   -1395.4377     6501.014    38.302131    36.001779     26.99371 
 3988600    222.43159   -408.57699       229892   -24586.898    1581.3178   -26168.216   -1085.0427    6501.7565    38.301808    36.003421    26.980816 
 3988800    227.47848   -358.37189       229892   -24569.299    1617.1973   -26186.496   -855.43273    6502.9798    38.299658    36.004059     26.98763 
 3989000     226.4912   -279.21354       229892   -24514.548    1610.1785   -26124.727   -576.54074    6501.7565    38.299353    36.004315     26.98831 
 3989200    219.68464   -356.47624       229892   -24567.394     1561.789   -26129.183   -852.35196    6501.4811    38.298038    36.005619    26.998993 
 3989400    224.28583   -349.42905       229892    -24591.74       1594.5    -26186.24    -879.1538    6501.3909     38.29747    36.005269    27.009342 
 3989600    231.34656   -259.73099       229892   -24481.054    1644.6964    -26125.75   -463.08517    6502.1823    38.297854    36.005262    27.010321 
 3989800     227.0077    -326.3637       229892   -24524.114    1613.8504   -26137.964    -745.1404    6502.0618     38.29848    36.006195    27.016298 
 3990000    222.44855   -509.88804       229892   -24561.867    1581.4383   -26143.305   -1434.3948    6503.4385    38.298907    36.006853    27.014491 
 3990200    222.93012    -439.7489       229892   -24580.227     1584.862   -26165.089   -1253.4327    6503.3866    38.299462    36.006754    27.013572 
 3990400    224.63655   -357.76754       229892   -24536.034    1596.9933   -26133.027   -826.53773     6500.275    38.299154    36.006657    27.013467 
 3990600    228.06098    -296.8156       229892   -24574.299    1621.3384   -26195.637    -621.7324    6503.4408     38.29878    36.006761    27.003153 
 3990800    224.38721   -473.08997       229892    -24514.06    1595.2207   -26109.281   -1319.9769       6502.6    38.298567    36.006043    27.006546 
 3991000    223.88999   -465.53404       229892    -24519.36    1591.6858   -26111.045   -1301.5996    6503.7446    38.298532    36.006003    26.999672 
 3991200    228.87617   -276.54368       229892   -24498.407    1627.1338   -26125.541   -538.09129    6499.4261    38.298037    36.006964    27.012764 
 3991400    227.18545   -389.06863       229892    -24494.15     1615.114   -26109.264   -1002.3202    6502.6807    38.297527    36.006965    27.017424 
 3991600    231.22199   -423.66225       229892   -24557.491    1643.8108   -26201.302   -1136.1365    6501.8425    38.296706    36.007516     27.02162 
 3991800    221.27981   -441.25916       229892   -24627.631    1573.1295    -26200.76   -1185.9881    6502.7908    38.296524    36.007624    27.022693 
 3992000    223.27212   -354.09663       229892   -24564.032    1587.2933   -26151.325   -872.66193    6501.6252    38.296025    36.007899     27.02061 
 3992200     227.5067   -281.25742       229892   -24564.135    1617.3979   -26181.533   -582.07415    6501.5823    38.295736    36.008326    27.009094 
 3992400    223.70307   -432.52384       229892   -24570.167     1590.357   -26160.524   -1161.0323    6502.2922    38.295339    36.007301    27.020534 
 3992600    231.08756   -402.99159       229892   -24554.819    1642.8551   -26197.674   -1068.1594    6503.0927    38.294672    36.005992     27.02434 
 3992800    227.76686   -275.05557       229892   -24555.037    1619.2475   -26174.284   -526.33158     6502.207    38.294732    36.004861    27.030403 
 3993000    217.83408   -425.40822       229892   -24665.632     1548.633   -26214.265   -1123.5578    6503.2083    38.294745    36.004788    27.017049 
 3993200    221.41992   -515.00264       229892   -24555.144    1574.1256    -26129.27   -1516.0176    6503.3608    38.295539    36.003757    27.017475 
 3993400    221.24229   -447.04869       229892   -24539.062    1572.8627   -26111.925   -1185.8002    6502.4156    38.294914     36.00435    27.015429 
 3993600    225.00743   -332.81882       229892   -24560.241      1599.63   -26159.871   -777.67151    6501.9051    38.295079    36.003786    27.017707 
 3993800    228.49764   -424.43959       229892   -24556.121    1624.4428   -26180.563   -1116.4276    6502.0093    38.296115    36.004507    27.017047 
 3994000    224.60558   -500.80217       229892   -24573.411    1596.7732   -26170.184   -1416.3666    6503.4794    38.296296    36.003938    27.009043 
 3994200    220.99681   -421.52769       229892   -24610.532    1571.1176    -26181.65   -1118.0823    6502.8535    38.296671    36.003765    27.013125 
 3994400    223.52713    -298.5205       229892   -24555.536    1589.1062   -26144.642   -660.21726    6504.4191    38.297217    36.003521    27.014731 
 3994600    223.98348   -255.02333       229892   -24611.698    1592.3505   -26204.048   -471.50815    6501.4843    38.296988    36.005409    27.023639 
 3994800    229.06457   -354.69135       229892   -24553.408    1628.4732   -26181.881    -832.8616    6503.4297    38.298903    36.005597    27.019884 
 3995000    229.86902   -532.99942       229892   -24514.143    1634.1922   -26148.335   -1535.5938    6503.5987    38.299656     36.00528    27.018117 
 3995200    217.52898   -435.98325       229892   -24613.149     1546.464   -26159.613   -1180.5063    6503.3855     38.30091    36.006501    27.014198 
 3995400    225.31613   -463.03913       229892   -24535.257    1601.8246   -26137.082   -1291.3351    6503.6117    38.302099    36.007217    27.029453 
 3995600    234.86093   -538.26237       229892   -24483.934    1669.6808   -26153.615    -1610.038    6502.4053    38.302945    36.006968    27.023385 
 3995800    231.65918   -505.91113       229892   -24499.738    1646.9189   -26146.657    -1408.124    6503.8292    38.303655    36.006667    27.006876 
 3996000    228.94703    -512.0885       229892   -24439.248    1627.6376   -26066.886   -1519.3407    6502.6074    38.303741    36.006416    27.006005 
 3996200    230.26155    -372.5957       229892   -24498.817    1636.9828     -26135.8   -916.68697    6500.6354    38.304549    36.006135    27.021956 
 3996400    217.20374   -355.52705       229892   -24580.032    1544.1518   -26124.184   -855.72258    6502.1108    38.304386    36.005053    27.029713 
 3996600     228.7544   -366.40703       229892   -24543.894    1626.2681   -26170.162   -929.29225    6502.1944    38.304394    36.005913    27.024006 
 3996800    222.39812   -353.19602       229892   -24586.117    1581.0799   -26167.197   -822.68179    6502.3781     38.30491    36.006726    27.020664 
 3997000    230.77626   -461.94632       229892   -24459.101     1640.642   -26099.743   -1264.0204    6501.8822    38.304288    36.007564    27.032265 
 3997200      223.969   -372.15512       229892   -24530.317    1592.2475   -26122.565   -931.60773    6502.1164    38.303924    36.008386    27.029595 
 3997400    221.70342    -402.5334       229892   -24571.356    1576.1411   -26147.497    -1018.485    6502.7668    38.302527    36.008849     27.02232 
 3997600    225.37681   -428.55579       229892   -24533.578     1602.256   -26135.834   -1154.7717    6504.1562    38.303128    36.009678     27.02308 
 3997800    220.03588    -410.4728       229892   -24645.146    1564.2861   -26209.432   -1062.0088    6503.4592    38.303103    36.010926    27.022227 
 3998000    229.13104   -322.85744       229892   -24545.905    1628.9457   -26174.851   -734.33681    6503.2571     38.30289    36.012123    27.019459 
 3998200    224.57469   -331.03702       229892    -24579.16    1596.5536   -26175.713   -757.83679    6504.2561    38.301812    36.012803     27.01446 
 3998400    232.37014   -478.26669       229892   -24467.528    1651.9732   -26119.501   -1318.3039    6503.8994    38.302074     36.01349    27.016477 
 3998600    226.35306    -506.3594       229892   -24574.996    1609.1964   -26184.192   -1458.1717    6503.0346    38.301905    36.014515    27.013955 
 3998800    230.53129   -376.15964       229892   -24533.119    1638.9004   -26172.019   -934.17958    6502.2005    38.301737    36.014496    27.020743 
 3999000    231.30623   -361.79443       229892   -24487.429    1644.4096   -26131.839   -884.68075    6502.2841    38.300353    36.015462    27.011444 
 3999200    226.66917   -329.50121       229892   -24559.679    1611.4437   -26171.123   -741.45313    6502.2734    38.301388    36.016355    27.008938 
 3999400    223.62538   -379.31002       229892   -24597.628    1589.8047   -26187.433   -965.65913    6502.1121    38.300675    36.016548    27.006745 
 3999600    217.81524   -473.92278       229892   -24596.318    1548.4991   -26144.817   -1363.4432    6502.6104    38.300568    36.016875    27.007758 
 3999800    224.72501   -447.60192       229892   -24517.809    1597.6222   -26115.432   -1252.0456    6503.1409    38.301297    36.017357    27.014399 
 4000000    234.81048   -425.77127       229892   -24475.029    1669.3221   -26144.352   -1128.8433     6503.566    38.301774    36.018201    27.021509 
Loop time of 7382.86 on 64 procs for 4000000 steps with 9010 atoms

Performance: 468.111 ns/day, 0.051 hours/ns, 541.796 timesteps/s
99.1% CPU use with 64 MPI tasks x no OpenMP threads

MPI task timing breakdown:
Section |  min time  |  avg time  |  max time  |%varavg| %total
---------------------------------------------------------------
Pair    | 0.49125    | 1877.1     | 5355.9     |4721.3 | 25.43
Neigh   | 1.1271     | 220.14     | 772.12     |1821.9 |  2.98
Comm    | 396.57     | 2907.3     | 5567.3     |3112.1 | 39.38
Output  | 198.38     | 198.66     | 199.09     |   1.2 |  2.69
Modify  | 194.49     | 2061.4     | 6706.3     |4935.3 | 27.92
Other   |            | 118.3      |            |       |  1.60

Nlocal:        140.781 ave         426 max           0 min
Histogram: 24 4 20 0 0 0 0 0 0 16
Nghost:        811.266 ave        1181 max          35 min
Histogram: 8 0 0 8 0 0 3 21 0 24
Neighs:         0.00000 ave           0 max           0 min
Histogram: 64 0 0 0 0 0 0 0 0 0
FullNghs:      13892.5 ave       51985 max           0 min
Histogram: 38 10 0 0 0 0 0 0 3 13

Total # of neighbors = 889120
Ave neighs/atom = 98.681465
Neighbor list builds = 435245
Dangerous builds = 0
write_data 		${DIR}/data.${NAME}_run
write_data 		run_2/data.${NAME}_run
write_data 		run_2/data.ibeam_cooling_2_run
System init for write_data ...
Total wall time: 2:03:21
