
# Set production fixes - Nose/Hoover
#
fix                 4 water temp/csvr ${START_TEMP} ${END_TEMP} 500.0 928347
fix                 4 water temp/csvr 240 ${END_TEMP} 500.0 928347
fix                 4 water temp/csvr 240 227 500.0 928347


## divide "droplet" into core and surface
#region		core_reg cylinder z 135 135 44.6 20 INF units box
#region		surface_reg cylinder z 135 135 44.6 20 INF units box side out
#group		core dynamic all region core_reg
#group		surface dynamic all region surface_reg

## compute pressure core
#compute        peratom_core core stress/atom NULL
#compute        p_core core reduce sum c_peratom_core[1] c_peratom_core[2] c_peratom_core[3]
#variable       press_core equal -(c_p_core[1]+c_p_core[2]+c_p_core[3])/(3*1249982.5)


## compute pressure surface
#compute        peratom_surf surface stress/atom NULL
#compute        p_surf surface reduce sum c_peratom_surf[1] c_peratom_surf[2] #c_peratom_surf[3]
#variable       press_surf equal -(c_p_surf[1]+c_p_surf[2]+c_p_surf[3])/(3*33365)

## compute total pressure of drop
compute        peratom water stress/atom NULL
compute        p water reduce sum c_peratom[1] c_peratom[2] c_peratom[3]
variable       press equal -(c_p[1]+c_p[2]+c_p[3])/(3*50320)


# compute order parameter
compute        3 all orientorder/atom nnn NULL cutoff 3.5

# compute center of mass of bridge
compute 	4 water com

# Run simulation
thermo_style        custom step c_2 press vol etotal ke pe v_press c_1[4] c_4[*]
thermo              200
dump		     1 water custom 400 ${DIR}/prod.${NAME}.dump id type x y z vx vy vz c_3[*] c_peratom[*]
dump		     1 water custom 400 run_3/prod.${NAME}.dump id type x y z vx vy vz c_3[*] c_peratom[*]
dump		     1 water custom 400 run_3/prod.ibeam_cooling_3.dump id type x y z vx vy vz c_3[*] c_peratom[*]
run                 ${STEPS}
run                 5200000
Neighbor list info ...
  update every 1 steps, delay 0 steps, check yes
  max neighbors/atom: 2000, page size: 100000
  master list distance cutoff = 6.67472
  ghost atom cutoff = 6.67472
  binsize = 3.33736, bins = 48 13 9
  2 neighbor lists, perpetual/occasional/extra = 1 1 0
  (1) pair sw, perpetual
      attributes: full, newton on
      pair build: full/bin/atomonly
      stencil: full/bin/3d
      bin: standard
  (2) compute orientorder/atom, occasional, copy from (1)
      attributes: full, newton on
      pair build: copy
      stencil: none
      bin: none
Per MPI rank memory allocation (min/avg/max) = 6.141 | 6.474 | 7.146 Mbytes
Step c_2 Press Volume TotEng KinEng PotEng v_press c_1[4] c_4[1] c_4[2] c_4[3] 
       0    254.04346   -242.69379    181563.75   -13325.183    1045.0123   -14370.195   -309.04916     33.16548    78.711835    25.131758    16.459504 
     200    240.40913   -491.73465    181563.75   -13345.414    988.92725   -14334.341   -1178.9957    34.167094    78.713167    25.134902    16.470358 
     400    238.70677   -378.55696    181563.75   -13324.046    981.92456   -14305.971   -789.92424    35.437807    78.715406    25.139353    16.498563 
     600    233.00103   -249.40923    181563.75   -13437.249    958.45389   -14395.702   -322.57321    37.460642     78.71573    25.138441    16.472068 
     800    226.75899    -399.5097    181563.75   -13430.298    932.77716   -14363.075   -866.27208    37.563808    78.713321    25.136201    16.480723 
    1000    235.92079   -275.64529    181563.75   -13314.343    970.46438   -14284.807   -424.95399    39.113993    78.710545    25.137656    16.488147 
    1200    232.33622     -318.576    181563.75   -13405.543    955.71918   -14361.262   -553.40475    39.911376    78.711601    25.141013    16.486493 
    1400    251.42527   -217.87672    181563.75   -13285.186    1034.2424   -14319.428   -198.66925    40.919652    78.712163     25.14307    16.469449 
    1600    243.65593   -459.90832    181563.75   -13279.087     1002.283    -14281.37   -1077.7528    43.373462     78.71162    25.148641    16.469862 
    1800    244.09573   -457.72311    181563.75   -13331.376    1004.0921   -14335.468   -1081.6992    44.783091    78.708576    25.149286    16.473786 
    2000    256.61956   -215.37872    181563.75   -13222.318    1055.6091   -14277.927   -182.27869    44.504841    78.708921    25.146207    16.483611 
    2200     240.2981   -374.99512    181563.75   -13239.624    988.47052   -14228.094   -730.46632    45.667066     78.71472    25.144988    16.465868 
    2400    245.84402   -472.70809    181563.75   -13281.632    1011.2838   -14292.916   -1091.7624     46.89304    78.717971    25.142802    16.466607 
    2600    236.77057    -347.7644    181563.75   -13319.209    973.95999   -14293.169   -693.35494    47.866348    78.720283    25.142467    16.435413 
    2800    246.21315   -429.73086    181563.75   -13283.351    1012.8022   -14296.153   -973.59829    48.912272    78.721298    25.144569    16.457316 
    3000     234.8002   -384.49365    181563.75   -13345.734    965.85481   -14311.589   -813.30727    49.536753    78.719994    25.145962    16.456515 
    3200    229.97493   -385.88854    181563.75   -13322.441      946.006   -14268.447   -833.52553     51.09886    78.721629    25.148349    16.471106 
    3400    242.43454   -480.18977    181563.75   -13267.438    997.25879   -14264.697   -1142.5516     52.21348    78.722937    25.146684    16.471871 
    3600    243.89676   -308.81248    181563.75   -13225.145    1003.2737   -14228.419   -509.81337    53.151799    78.719731    25.146734    16.456237 
    3800    233.71642   -408.80854    181563.75   -13274.034    961.39667   -14235.431   -862.36511    54.815831    78.719842    25.149125    16.443618 
    4000    233.36534   -275.95382    181563.75   -13314.275    959.95251   -14274.227   -423.58702    55.611921    78.717859    25.147844    16.428189 
    4200    250.04761   -145.88659    181563.75   -13254.985    1028.5753   -14283.561    55.767915    56.548487    78.715567    25.148759    16.405713 
    4400    243.56935   -617.87663    181563.75    -13238.81    1001.9269   -14240.736   -1626.4692    59.206001    78.712999    25.145675    16.411634 
    4600    242.74474   -307.68581    181563.75   -13304.694    998.53482   -14303.229   -512.69271     59.34502    78.716059    25.146161     16.39724 
    4800    244.79451    -385.7627    181563.75   -13256.822    1006.9666   -14263.789   -801.16972    60.409894    78.715402    25.145433    16.364377 
    5000    242.09911   -324.84279    181563.75   -13316.233    995.87902   -14312.112   -578.45033     61.40597    78.714874    25.148161    16.345731 
    5200    240.93514   -365.25918    181563.75   -13326.757      991.091   -14317.848    -727.8853    62.836193    78.709699    25.148197    16.367888 
    5400     239.6745   -472.96712    181563.75   -13281.155    985.90534    -14267.06   -1119.2947    63.925988    78.709539    25.150191    16.378244 
    5600    235.44944   -326.75445    181563.75   -13295.883    968.52546   -14264.409   -617.55408    64.841847    78.712614    25.144727    16.380083 
    5800    251.87777   -252.49358    181563.75   -13196.638    1036.1037   -14232.742   -361.06772     65.38588     78.71065    25.144961    16.384377 
    6000     232.1716   -500.39447    181563.75   -13343.033    955.04204   -14298.075   -1229.8188    66.909945    78.710796    25.147207    16.376799 
    6200    238.41021   -134.96883    181563.75   -13263.544    980.70467   -14244.249     98.17136    68.083027    78.712431    25.150804    16.357718 
    6400    240.87535     -297.973    181563.75   -13253.747    990.84504   -14244.592   -523.79853    69.626761    78.713622    25.154214    16.375422 
    6600    244.74786   -288.30047    181563.75   -13324.024    1006.7747   -14330.798    -421.3614    72.087687    78.715107     25.14997    16.381738 
    6800     243.7749   -210.64101    181563.75    -13301.44    1002.7724   -14304.213   -187.22377    72.299452    78.715737    25.147515    16.402659 
    7000    238.84545   -541.08891    181563.75   -13320.367    982.49504   -14302.862   -1340.1701     73.77541    78.719938    25.145671    16.357047 
    7200    237.34877   -312.48087    181563.75   -13267.908    976.33842   -14244.247    -523.9904     74.08927     78.72032      25.1472    16.343326 
    7400    233.32584   -236.23455    181563.75   -13343.447    959.79003   -14303.237   -235.12277    75.553743    78.722677    25.148277    16.342203 
    7600    232.55586    -439.0223    181563.75   -13348.198    956.62267   -14304.821    -971.4604    75.913176    78.727563     25.14654    16.334719 
    7800    237.10071   -330.98987    181563.75   -13255.271    975.31802   -14230.589   -595.86057    76.726878    78.731181    25.148552    16.340801 
    8000    231.47327   -328.65009    181563.75    -13257.63    952.16942   -14209.799   -602.17637    77.707878    78.731317    25.149961    16.349899 
    8200    234.85869   -227.38317    181563.75   -13300.442    966.09542   -14266.537   -234.08414    79.045065    78.730064    25.151999    16.361783 
    8400    239.50968    -260.6328    181563.75   -13301.493    985.22735    -14286.72   -330.85343    80.110385    78.727843    25.152245    16.323539 
    8600    238.82124   -399.27984    181563.75   -13224.695    982.39543   -14207.091    -816.6462    82.112639    78.721877    25.150642    16.317241 
    8800    242.28511    -296.3602    181563.75   -13247.559    996.64412   -14244.203   -477.47335    82.878894    78.722141    25.155872    16.305487 
    9000    241.99229   -254.46885    181563.75   -13237.494     995.4396   -14232.933   -314.15361     85.77273    78.720187    25.158522    16.310339 
    9200    236.62714     -377.997    181563.75   -13312.428    973.36996   -14285.798   -782.36658    87.739627    78.722202    25.159594    16.315648 
    9400     235.9132    -259.8548    181563.75   -13334.558    970.43317   -14304.991   -377.35656    88.219045    78.723771    25.158071    16.339032 
    9600    229.92367   -393.54481    181563.75   -13391.725    945.79514    -14337.52   -851.33241    89.945805    78.725076    25.158642    16.344091 
    9800    233.63819   -249.35899    181563.75   -13342.872    961.07486   -14303.947    -328.2067    91.413198    78.725107    25.157167    16.319432 
   10000    250.20192   -318.95972    181563.75   -13226.643    1029.2101   -14255.853   -582.82353    92.631046     78.72611    25.155518    16.325758 
   10200    240.49064   -389.79965    181563.75   -13254.993    989.26256   -14244.255   -828.18767    93.175607    78.726166    25.151325    16.338162 
   10400      236.757      -443.87    181563.75   -13242.687    973.90416   -14216.591   -989.09422    95.614183    78.727931     25.14841    16.343751 
   10600    244.83463   -355.39989    181563.75   -13231.207    1007.1316   -14238.338    -726.9102    95.903385     78.72734    25.146492    16.349048 
   10800    235.22142   -270.21036    181563.75   -13287.394    967.58752   -14254.981   -408.57481    96.648032    78.728062    25.147368    16.355407 
   11000    235.42518   -479.85303    181563.75   -13310.327    968.42566   -14278.753   -1127.5484    97.686846    78.729313    25.141793    16.390229 
   11200    237.56588   -301.84329    181563.75   -13318.002     977.2315   -14295.233   -533.74114    97.391094    78.732392     25.13904    16.399488 
   11400    241.19683     -284.226    181563.75    -13292.82    992.16749   -14284.987   -432.57422    97.996673    78.731349    25.140747    16.390005 
   11600    247.33391   -347.68613    181563.75   -13286.486    1017.4125   -14303.898   -687.59186    99.947566    78.731706     25.14636    16.402662 
   11800    243.80012   -327.81036    181563.75   -13287.788    1002.8762   -14290.664   -591.79204    101.16699    78.730709    25.151384    16.406281 
   12000    246.63579    -283.1949    181563.75   -13252.544    1014.5407   -14267.084   -435.56769    101.79972    78.733389    25.152854    16.412585 
   12200    237.38609    -275.3632    181563.75   -13243.294    976.49192   -14219.786   -423.47374    102.85993    78.735514     25.15081    16.416072 
   12400    250.57924   -295.93231    181563.75   -13228.394    1030.7622   -14259.156   -487.69308    104.79329    78.733353    25.151361    16.411707 
   12600    250.84635   -289.05758    181563.75   -13196.828    1031.8609   -14228.689   -476.14251    106.38339    78.733236    25.152595    16.408426 
   12800    235.75057   -305.98772    181563.75   -13282.248    969.76419   -14252.012   -525.73863    107.79517      78.7298    25.154105    16.389854 
   13000    227.91658   -414.38658    181563.75   -13303.079    937.53894   -14240.618   -907.00666    109.07848    78.729444    25.156095    16.394648 
   13200    238.71739   -320.10709    181563.75   -13244.317    981.96826   -14226.285   -547.36809    110.80203    78.727094     25.15633    16.364677 
   13400    243.90095   -400.70773    181563.75   -13225.775    1003.2909   -14229.066   -866.51644    114.00531    78.724669    25.151632    16.327618 
   13600    242.75178   -401.43216    181563.75   -13262.385    998.56378   -14260.949   -877.34071    114.04068    78.721649    25.154481    16.327488 
   13800    241.62863     -234.158    181563.75   -13321.199    993.94369   -14315.142    -238.1956      115.665    78.720452    25.157621    16.344498 
   14000    240.78115   -370.31287    181563.75   -13294.792    990.45756   -14285.249   -778.56675    116.58896    78.718848    25.163454    16.335606 
   14200    233.04388   -348.61204    181563.75   -13339.567    958.63017   -14298.197   -685.55575    118.91606    78.720373    25.166418    16.310819 
   14400    224.95445   -354.39722    181563.75   -13373.645    925.35414   -14298.999   -667.71931    119.21053    78.724032    25.166809    16.311534 
   14600    242.86324   -324.71837    181563.75   -13334.036    999.02227   -14333.059   -592.44889    120.62709    78.724492    25.165888    16.299824 
   14800    236.15381   -271.57002    181563.75   -13304.208    971.42292    -14275.63   -372.25729    122.08475    78.725529     25.16856     16.29817 
   15000     243.3295     -421.171    181563.75   -13322.233    1000.9402   -14323.173   -943.84444    122.87445    78.724027    25.168273    16.311299 
   15200     235.5836   -349.39006    181563.75   -13354.515    969.07736   -14323.592   -643.77641    123.92623    78.723516    25.167457    16.328804 
   15400    241.71766   -304.65441    181563.75   -13307.571     994.3099   -14301.881   -543.75604    124.49252    78.720944    25.164818    16.313353 
   15600    231.47394   -489.30117    181563.75   -13344.031    952.17219   -14296.204   -1159.6434    126.57881     78.72219    25.165126    16.300238 
   15800    236.09517   -172.26715    181563.75   -13249.522     971.1817   -14220.704   -71.732944    127.54174    78.723699    25.164534    16.278694 
   16000    239.30129   -490.95364    181563.75   -13294.802    984.37013   -14279.172   -1187.7648    129.75905    78.720593    25.162475    16.264447 
   16200    245.38814   -303.43636    181563.75   -13227.041    1009.4085   -14236.449   -533.17014    130.36409    78.720309    25.159528     16.29477 
   16400    239.71103   -345.12007    181563.75   -13215.713    986.05562   -14201.769   -648.34366    132.31088    78.720459    25.157372    16.286835 
   16600    234.25046   -430.72048    181563.75   -13245.896    963.59346    -14209.49   -993.22128    132.88229    78.718968    25.158145    16.289602 
   16800    237.40958   -393.73246    181563.75   -13249.519    976.58855   -14226.108   -828.27696    134.65679    78.717134    25.157404    16.281116 
   17000    244.83961   -228.62886    181563.75   -13273.702    1007.1521   -14280.854   -217.86218    136.33979    78.716407    25.155268    16.281366 
   17200     232.6115   -415.70729    181563.75   -13276.627    956.85156   -14233.478   -940.46583     137.8788    78.718511    25.156747    16.266937 
   17400    237.81267    -307.1744    181563.75   -13252.553    978.24666   -14230.799   -519.67973    138.29984    78.719308    25.158912    16.275276 
   17600    251.86058   -250.99877    181563.75   -13222.849     1036.033   -14258.882   -301.79576    139.26955    78.721494    25.159942    16.262713 
   17800    238.75308   -398.08907    181563.75   -13258.419    982.11506   -14240.534   -894.72923    141.24971    78.721988    25.164094    16.258153 
   18000    225.66512   -274.04429    181563.75    -13258.81    928.27751   -14187.088   -424.29573    142.28047     78.71917    25.167012    16.247634 
   18200    244.44919   -224.48206    181563.75   -13272.677    1005.5461   -14278.224   -172.33043    143.91494     78.71968    25.169775    16.257744 
   18400    240.90775   -400.53909    181563.75   -13271.494    990.97833   -14262.473   -874.03153    144.60506    78.719057    25.169267    16.253197 
   18600    255.99299   -349.63671    181563.75   -13235.951    1053.0317   -14288.982   -690.17711    146.03353    78.719139    25.170672    16.269999 
   18800    244.35294   -500.76836    181563.75    -13265.75    1005.1502     -14270.9   -1194.7051    147.04228    78.719661    25.168855    16.274774 
   19000    234.61144   -439.77527    181563.75   -13275.649    965.07834   -14240.727   -1012.3186    149.23381    78.722326    25.169798    16.291241 
   19200    244.45563    -149.5421    181563.75   -13242.662    1005.5726   -14248.234    41.799829    149.99958     78.72301     25.17089    16.314328 
   19400     238.3031   -356.24944    181563.75   -13239.262    980.26408   -14219.526   -724.21876    149.78137     78.72422    25.171781    16.320166 
   19600    243.81243    -388.7071    181563.75   -13316.095    1002.9268   -14319.022   -834.71665    152.59412    78.725459    25.172577    16.348198 
   19800    245.50369   -333.72837    181563.75   -13290.233    1009.8838   -14300.117   -606.44675    153.82093    78.726951    25.172904    16.333053 
   20000    234.28039   -263.94156    181563.75   -13325.549    963.71655   -14289.265    -345.9163    155.63986    78.721381    25.170031    16.330464 
   20200     235.2078   -316.14516    181563.75    -13318.51     967.5315   -14286.041   -579.87586    157.15066    78.721419    25.173272    16.325236 
   20400    230.69733    -675.8708    181563.75   -13346.068    948.97759   -14295.046   -1861.2257    159.01487    78.722196    25.174083    16.344979 
   20600    246.91476   -329.94338    181563.75   -13309.955    1015.6883   -14325.643   -632.12589    158.09763    78.724697    25.176692    16.354837 
   20800    241.32248   -298.66045    181563.75   -13322.116    992.68432     -14314.8   -498.66705    160.18029    78.728244    25.178853    16.360459 
   21000    247.92628   -419.12787    181563.75   -13289.837    1019.8492   -14309.687   -958.15899    162.52526     78.73394    25.179546    16.361278 
   21200    244.85023   -397.21635    181563.75   -13303.516    1007.1958   -14310.712   -835.05842    163.13349    78.737008    25.181547    16.355998 
   21400    244.67542   -285.18746    181563.75   -13347.449    1006.4767   -14353.925   -400.09189    162.81041    78.737869    25.179012    16.361381 
   21600     240.6579   -299.16635    181563.75   -13289.476    989.95057   -14279.427   -479.91811    165.28553    78.737603    25.178538    16.365743 
   21800    238.54498   -349.85016    181563.75   -13269.795    981.25903   -14251.054   -705.19853    169.47036    78.736784    25.177684    16.367478 
   22000    238.32287   -314.92026    181563.75   -13260.167    980.34539   -14240.513   -551.35573    171.97801    78.735554    25.172197    16.363173 
   22200    239.15549   -353.47396    181563.75   -13254.212    983.77039   -14237.982   -728.78214    172.61863    78.735067    25.169339    16.367841 
   22400    239.58297   -314.33198    181563.75   -13286.427    985.52882   -14271.955   -594.86717    173.45953    78.732856    25.169829    16.379387 
   22600    240.79567   -551.54683    181563.75   -13340.853    990.51729   -14331.371   -1409.3182    175.09175    78.736239    25.171696    16.369745 
   22800     244.2336    -419.1595    181563.75   -13316.343    1004.6593   -14321.002   -946.03898    177.04162    78.737831    25.169243    16.387097 
   23000    235.15958   -482.80417    181563.75   -13345.997    967.33313    -14313.33   -1187.3082    179.52327    78.739349    25.168249    16.390045 
   23200    237.25367   -319.38148    181563.75   -13331.741     975.9472   -14307.688    -581.1431    180.23743    78.740771    25.174013    16.349198 
   23400    238.20133   -236.37942    181563.75   -13280.937    979.84543   -14260.782   -253.03318    183.38546    78.743729       25.173    16.352618 
   23600    240.43464   -402.43662    181563.75   -13346.094    989.03217   -14335.126   -893.34665    181.61182    78.744174    25.169388    16.340733 
   23800    231.26088   -350.80949    181563.75   -13390.701    951.29577   -14341.996   -686.26488    182.50367    78.747434    25.167582    16.342648 
   24000    238.56136   -450.34876    181563.75   -13313.156    981.32643   -14294.483   -1077.8571    183.59056    78.743074    25.168087    16.337874 
   24200     241.7287   -350.39602    181563.75   -13305.288    994.35533   -14299.643   -710.95705     183.6145    78.742693    25.166881    16.316054 
   24400    243.95161   -464.93336    181563.75   -13286.187    1003.4993   -14289.686   -1121.0079    185.69779     78.74463    25.166048    16.313951 
   24600    234.57133   -302.04886    181563.75   -13316.316    964.91338   -14281.229   -519.66913    187.61568    78.744357    25.166022    16.317349 
   24800    247.30565   -270.52598    181563.75    -13299.46    1017.2962   -14316.756   -407.99761    190.49222    78.740451    25.165312    16.294567 
   25000    232.88698   -211.31117    181563.75   -13298.967    957.98475   -14256.952    -212.2268    190.44603      78.7411    25.165982    16.299859 
   25200    238.74066   -330.18149    181563.75   -13260.816    982.06397    -14242.88   -591.89602    190.90709    78.741531    25.170589    16.301152 
   25400    237.21687   -397.44664    181563.75    -13305.98    975.79584   -14281.776    -839.8846    193.58586    78.741089    25.171766    16.299069 
   25600    242.36617   -478.55987    181563.75   -13284.327    996.97758   -14281.305   -1136.0185    195.02406    78.740461    25.171458     16.26918 
   25800    234.25545   -238.04086    181563.75   -13325.391    963.61398   -14289.005   -272.42795    194.67299    78.737771    25.172573    16.254715 
   26000    237.56649    -351.7669    181563.75   -13356.308    977.23399   -14333.542   -665.94724    195.40581    78.737576    25.173738    16.268846 
   26200    243.10552   -507.92315    181563.75   -13321.014    1000.0189   -14321.033   -1220.0313    195.84407    78.733682    25.172709    16.251703 
   26400    231.91598   -301.87949    181563.75   -13350.746    953.99053   -14304.736   -491.78204    197.12446    78.733869    25.170308    16.279732 
   26600    234.39126   -476.15292    181563.75   -13332.063    964.17263   -14296.236   -1174.2784    198.56444    78.731268    25.167012    16.290863 
   26800    237.64556   -402.05379    181563.75   -13276.242    977.55928   -14253.801   -850.01738    198.80646    78.729607    25.171753    16.301318 
   27000    234.78372   -457.16317    181563.75   -13326.165    965.78703   -14291.952   -1041.6332    201.37722    78.729671    25.175493     16.29688 
   27200     245.1556   -420.52624    181563.75   -13276.906    1008.4519   -14285.358   -889.38831    204.17563    78.727524    25.175774    16.320275 
   27400    241.85146   -356.49636    181563.75   -13284.737    994.86031   -14279.597   -660.96965    206.86829    78.728511    25.171248    16.331106 
   27600     238.7502    -190.2793    181563.75   -13301.672     982.1032   -14283.776   -116.90317     208.5786    78.730657    25.168183    16.367718 
   27800    224.48243   -285.45591    181563.75   -13397.013    923.41247   -14320.425    -486.8745    208.37968    78.729775    25.163665    16.347006 
   28000    238.58243   -320.70089    181563.75    -13357.46    981.41308   -14338.873   -574.84116    207.35799    78.727832    25.161381    16.326424 
   28200    242.79419   -361.48916    181563.75    -13302.76    998.73826   -14301.498    -761.1767    205.94142    78.729462    25.163809    16.329321 
   28400    240.04652   -295.31044    181563.75   -13306.705    987.43566   -14294.141   -499.97353     206.1561    78.731455    25.164835    16.304838 
   28600      235.258   -443.43166    181563.75   -13312.929    967.73801   -14280.667   -1025.1329    207.41028    78.733566    25.167692    16.278488 
   28800    232.77664    -314.2267    181563.75    -13374.03    957.53086   -14331.561   -535.53079    209.00478    78.736854    25.166546    16.293032 
   29000     237.7718   -507.84507    181563.75   -13341.689    978.07856   -14319.767   -1246.6287    211.35016    78.735675    25.164803    16.277996 
   29200    250.69998   -361.13103    181563.75   -13356.162    1031.2588   -14387.421   -713.98565    212.80388    78.732496    25.164286    16.282504 
   29400    238.15576   -415.31036    181563.75   -13380.169    979.65798   -14359.827   -960.16062     212.6187     78.72994    25.162577    16.274969 
   29600    234.28684   -377.00106    181563.75   -13396.542    963.74311   -14360.285    -827.6119    213.16249    78.731581    25.165844    16.279031 
   29800    240.18903    -335.9046    181563.75   -13347.119    988.02186   -14335.141   -622.36396    215.94899    78.733907    25.166214    16.259326 
   30000    234.34909   -327.37462    181563.75   -13330.274    963.99917   -14294.273   -564.60421    218.03892    78.733527    25.162502    16.278146 
   30200    238.56213   -268.49048    181563.75   -13354.375    981.32959   -14335.705   -355.80704    218.12338    78.736751    25.162481    16.266058 
   30400    241.48427   -319.90801    181563.75   -13387.092    993.34988   -14380.442   -553.54709     220.1582    78.733814    25.157821     16.27378 
   30600    236.21827   -421.45331    181563.75   -13368.004    971.68808   -14339.692   -907.84901    221.23506    78.734874     25.15376    16.263079 
   30800    235.57864   -276.92558    181563.75   -13341.543    969.05693     -14310.6   -457.78006    222.19043    78.738082    25.150929    16.281104 
   31000    238.97844   -278.59775    181563.75   -13341.186    983.04209   -14324.228   -390.00298    223.67995    78.737637    25.147285    16.277295 
   31200    243.12962   -308.74193    181563.75   -13285.332     1000.118    -14285.45   -501.18825    221.61835    78.738139    25.145071    16.278646 
   31400    240.06924   -501.58675    181563.75   -13288.966    987.52913   -14276.495   -1185.5256    221.31336    78.741821    25.144916    16.281155 
   31600    242.94711   -257.09936    181563.75    -13240.15    999.36729   -14239.517   -356.51858    222.40883    78.743949    25.141596    16.291766 
   31800    236.16619   -243.63216    181563.75   -13261.099    971.47384   -14232.573   -304.92908    225.74736    78.740749    25.137109    16.288502 
   32000    235.37856   -428.54883    181563.75   -13254.519    968.23392   -14222.752   -943.48689    227.18899    78.741644    25.137908    16.282435 
   32200    239.00215   -341.12514    181563.75   -13318.928     983.1396   -14302.068   -634.06944    228.21599     78.73891    25.142953    16.266063 
   32400    234.75622   -204.11121    181563.75   -13296.183    965.67389   -14261.857   -159.15869    228.82779    78.734955    25.146034    16.283337 
   32600    237.71853   -485.69605    181563.75   -13239.243    977.85944   -14217.102   -1139.1457    231.97063    78.732124    25.148815    16.269626 
   32800    234.44888   -281.89772    181563.75   -13292.224    964.40965   -14256.633   -414.72105     234.2706    78.731417    25.152679    16.281191 
   33000    239.99852   -398.69001    181563.75   -13246.584    987.23822   -14233.822   -847.51547    237.82938    78.733187    25.156327     16.30222 
   33200    237.70718   -285.14234    181563.75    -13250.33    977.81273   -14228.143   -446.20137    236.34472    78.733985    25.156483    16.316877 
   33400    236.23107   -387.61799    181563.75   -13277.489    971.74075    -14249.23   -797.79366    236.78729    78.737709    25.155479    16.319164 
   33600    237.26573   -452.82726    181563.75   -13317.275    975.99681   -14293.271    -1033.568    236.90018    78.738968    25.152079    16.312185 
   33800    241.63131   -362.58164    181563.75   -13283.855    993.95472   -14277.809     -720.358    235.84585    78.740327    25.152222    16.333158 
   34000    233.88678   -349.05138    181563.75    -13301.43    962.09746   -14263.528   -694.79201    236.94205    78.740887    25.151883    16.333846 
   34200     234.7834   -235.04219    181563.75   -13372.038    965.78573   -14337.823   -249.16519     238.6684     78.74148    25.152167    16.333766 
   34400    232.72044   -314.48248    181563.75   -13359.116    957.29969   -14316.415   -532.44347    244.33377    78.742041    25.154831    16.314465 
   34600    240.94887   -367.49275    181563.75   -13322.487    991.14749   -14313.634   -743.89966    245.53845    78.744019     25.15312    16.319161 
   34800    229.96072   -486.29454    181563.75   -13294.864    945.94752   -14240.811     -1158.34    246.03616    78.739727    25.152766    16.338149 
   35000    241.50514   -400.40932    181563.75   -13278.371    993.43572   -14271.807   -826.70561    246.96011    78.739201    25.148708    16.331479 
   35200    244.04276   -306.32296    181563.75    -13264.24    1003.8742   -14268.115   -538.58554    250.37499    78.739737    25.145937    16.320255 
   35400    238.29513    -322.7948    181563.75   -13240.931    980.23128   -14221.162   -565.39619    252.27413    78.743354    25.144716    16.303106 
   35600    227.65591   -342.59116    181563.75   -13297.084    936.46664   -14233.551   -645.35874    252.26486    78.744676    25.142173    16.324198 
   35800    235.10279   -329.78013    181563.75   -13250.059    967.09954   -14217.158   -640.25239     252.3068     78.74716    25.140073    16.303936 
   36000    237.07792   -460.45255    181563.75   -13316.727    975.22424   -14291.952    -1052.492    253.69548    78.742422    25.140601    16.303848 
   36200    233.53191   -342.31566    181563.75    -13324.59    960.63767   -14285.227   -608.28428    253.16035    78.744836    25.144973    16.310753 
   36400    240.49242   -419.08543    181563.75   -13290.649    989.26986   -14279.919   -955.53006    254.26894    78.739072    25.145496    16.324722 
   36600    241.03081   -341.06656    181563.75   -13313.781    991.48453   -14305.266   -686.96046    254.71502    78.735846    25.147791    16.317696 
   36800    235.70979   -434.42567    181563.75   -13329.233    969.59643    -14298.83   -991.09316    255.94332    78.739398    25.147466    16.331751 
   37000    233.27099   -347.10536    181563.75   -13291.218    959.56438   -14250.783   -659.85393    255.23008    78.742369    25.145646    16.338991 
   37200    235.21976   -302.85536    181563.75   -13333.115    967.58068   -14300.696   -515.43434     255.8441    78.739642    25.146349    16.319253 
   37400     241.6102   -352.53802    181563.75    -13280.83    993.86789   -14274.697   -726.39573    257.41051    78.736266    25.144816    16.323686 
   37600    247.22972   -342.17855    181563.75   -13253.851    1016.9839   -14270.835   -660.78376    256.76503    78.738203    25.140089    16.349253 
   37800    232.16912   -439.97024    181563.75   -13294.178    955.03183    -14249.21   -1014.2899    258.61329    78.737761    25.136613    16.373927 
   38000    239.42526   -513.20519    181563.75   -13292.435    984.88009   -14277.315   -1286.5708    257.94431    78.738475     25.13456    16.377472 
   38200    241.11279   -401.38071    181563.75   -13245.509    991.82175   -14237.331   -889.28498    258.00252    78.738039    25.133964    16.364834 
   38400    241.83328   -361.46661    181563.75   -13242.862    994.78551   -14237.647   -732.99621    258.21358    78.736365    25.129495    16.362231 
   38600    243.90259   -308.47735    181563.75   -13283.306    1003.2976   -14286.603   -530.45959    260.14561    78.735013    25.128911    16.337691 
   38800    240.24423   -336.02977    181563.75   -13284.297    988.24894   -14272.546   -629.34146    260.06825    78.733531    25.126249    16.305105 
   39000    245.65464   -349.68265    181563.75   -13269.605    1010.5047   -14280.109   -718.10362    259.41448     78.73051    25.121777    16.307763 
   39200    234.82033   -288.32268    181563.75   -13363.299    965.93762   -14329.237   -512.22678     260.9352    78.730005    25.124224    16.300838 
   39400    241.12028   -250.50289    181563.75   -13288.597    991.85259    -14280.45   -354.79934    262.98818    78.730926    25.124936    16.299621 
   39600    241.77769   -414.62962    181563.75   -13326.877    994.55684   -14321.434   -938.27975    263.19839    78.734739    25.123315    16.308126 
   39800    242.31822   -405.31569    181563.75   -13224.631    996.78032   -14221.411   -841.87222     263.2209    78.737471    25.124867    16.287631 
   40000    239.54942   -505.79481    181563.75   -13316.696    985.39083   -14302.087   -1221.9902    264.13978    78.737084    25.127739    16.289675 
   40200    232.76388   -336.47831    181563.75   -13367.431    957.47836   -14324.909   -640.16259     264.4153    78.736343    25.129305    16.280564 
   40400    244.49287   -411.11841    181563.75    -13264.85    1005.7258   -14270.576   -890.64052    269.44827    78.738186    25.128626    16.277404 
   40600    226.63016    -406.3169    181563.75   -13387.265     932.2472   -14319.512    -914.1869    268.48035    78.736738    25.127818    16.283139 
   40800    240.39553    -374.6307    181563.75   -13307.875    988.87129   -14296.746   -749.08828    267.52779    78.736723    25.126041    16.285099 
   41000    239.57572   -276.07449    181563.75   -13277.668    985.49902   -14263.167   -411.35525    268.58178    78.737659    25.127818    16.261944 
   41200    242.41402   -314.23879    181563.75   -13281.039    997.17441   -14278.213   -535.25832    269.71761    78.738323    25.128165    16.276418 
   41400    244.43659   -297.90279    181563.75   -13274.002    1005.4943   -14279.496   -483.42684    269.63808     78.73566    25.128773    16.285411 
   41600    237.54056   -227.55966    181563.75   -13241.239    977.12735   -14218.366   -236.20404    270.18586    78.737203    25.128544     16.28594 
   41800    233.90852   -381.87779    181563.75   -13272.708    962.18688   -14234.895   -796.79977    270.86343    78.738868    25.129801    16.302299 
   42000    235.77716   -234.57507    181563.75   -13296.113    969.87355   -14265.987   -308.38462    271.45409    78.738162    25.128711    16.319421 
   42200    240.68652   -241.10312    181563.75   -13295.049     990.0683   -14285.118   -291.34701    270.32381    78.737448    25.128241    16.316286 
   42400    235.86887   -463.05676    181563.75   -13299.016    970.25082   -14269.267   -1070.7726    271.16435    78.738419     25.12685    16.302707 
   42600    239.81235   -444.37771    181563.75   -13267.203     986.4724   -14253.676   -1000.5899    269.95652    78.740945    25.127575    16.320149 
   42800    243.24526   -230.14916    181563.75   -13242.798    1000.5937   -14243.391   -259.49527     271.4594    78.740376    25.127103    16.314747 
   43000     256.2603   -416.12708    181563.75    -13256.14    1054.1313   -14310.271   -917.05207    272.52366    78.741777       25.125     16.33106 
   43200    238.06536   -157.45149    181563.75   -13300.101     979.2861   -14279.387    -18.96255    271.33593     78.74312    25.124641    16.329983 
   43400    243.75043   -391.38254    181563.75   -13306.038    1002.6717    -14308.71   -834.45232    273.71176    78.743307    25.124829    16.318719 
   43600    234.83706   -459.32533    181563.75   -13338.972    966.00643   -14304.978   -1080.8787    273.71154    78.743325     25.12583    16.337281 
   43800    245.18219   -402.58395    181563.75   -13293.813    1008.5613   -14302.375   -868.05825     275.9825    78.744658    25.127049    16.324261 
   44000    230.42736   -353.53091    181563.75   -13343.732    947.86707   -14291.599   -683.12725    277.61763    78.747881    25.128711    16.323326 
   44200    246.21151   -566.60603    181563.75   -13291.422    1012.7955   -14304.218   -1453.1178    280.04147    78.747214    25.127889     16.32172 
   44400     246.1027   -282.14102    181563.75    -13240.32    1012.3479   -14252.668   -466.18613    281.59865    78.749204    25.123567    16.314405 
   44600    238.03116   -246.59419    181563.75   -13301.753    979.14544   -14280.899   -315.94268    280.96041    78.748786    25.123967    16.316141 
   44800     237.9581   -474.76373    181563.75   -13288.012     978.8449   -14266.857   -1102.8321    282.53124    78.747189    25.122065    16.333556 
   45000    250.29697   -188.87001    181563.75   -13286.235    1029.6011   -14315.836   -99.121499    281.86696    78.744776    25.124514    16.333459 
   45200    243.88079   -374.27205    181563.75   -13219.479     1003.208   -14222.687   -722.81899    284.34752    78.744539     25.12684    16.336859 
   45400     252.8633   -251.94038    181563.75   -13209.576    1040.1577   -14249.734   -333.25669    283.64744    78.747075    25.130159     16.31623 
   45600    244.58293   -462.10773    181563.75   -13225.818    1006.0963   -14231.914   -1090.5149    286.62491     78.74594    25.131465     16.28247 
   45800    234.93074   -390.40624    181563.75   -13287.557     966.3918   -14253.949   -847.67485     286.3464     78.74709    25.129849    16.305624 
   46000    241.32456   -362.74939    181563.75   -13275.818    992.69291   -14268.511   -724.66926    285.46433    78.746043    25.133068    16.284695 
   46200    242.26981    -413.3081    181563.75    -13265.95     996.5812   -14262.531   -899.97666    284.77606    78.744738     25.13042    16.279018 
   46400    244.93042    -342.3215    181563.75   -13251.928    1007.5257   -14259.454   -657.36835    285.33029    78.746478    25.129792     16.29974 
   46600    237.48389   -392.02365    181563.75    -13286.12    976.89423   -14263.014   -808.36931    285.90322     78.74637    25.130464    16.327794 
   46800    238.94536   -266.60092    181563.75    -13238.33    982.90601   -14221.236   -356.13038    289.02735    78.750562    25.130908    16.333808 
   47000    242.58082   -299.53251    181563.75    -13218.18    997.86052   -14216.041   -487.76077    289.63467    78.748303    25.129524    16.356926 
   47200    242.97949   -381.23343    181563.75   -13299.428    999.50047   -14298.929   -748.53061    291.32809    78.748732    25.132376    16.354764 
   47400     241.4216   -334.39655    181563.75   -13286.365    993.09207   -14279.457   -613.44398    291.12961    78.749252    25.137774    16.340306 
   47600    241.29229   -470.47171    181563.75   -13291.487    992.56015   -14284.047   -1082.7698    293.36375     78.74915    25.137766    16.376438 
   47800    239.12337   -437.99469    181563.75   -13291.608    983.63827   -14275.246    -961.3248    293.43491    78.747433    25.140074     16.39262 
   48000     244.4358   -346.04428    181563.75   -13308.653    1005.4911   -14314.144   -686.11312    293.75576    78.743512     25.14061    16.376792 
   48200    234.96773   -433.13115    181563.75   -13285.313    966.54396   -14251.857   -964.08948    297.10838    78.741817    25.143135    16.346328 
   48400     244.8556   -379.83736    181563.75   -13292.231    1007.2179   -14299.449   -753.22645    296.57715    78.741266     25.14376     16.35105 
   48600    238.04399    -443.8865    181563.75   -13271.979    979.19819   -14251.177   -1004.2775    297.65028    78.741364    25.143531    16.341499 
   48800    236.56802   -326.79884    181563.75   -13299.306    973.12679   -14272.432   -592.86063    298.21061    78.739599    25.144151    16.331454 
   49000    241.63445   -280.84966    181563.75    -13261.78    993.96761   -14255.748   -446.43847    298.16288    78.732843    25.145198    16.339066 
   49200    237.03604   -418.89486    181563.75   -13262.271    975.05198   -14237.323   -906.47614    299.35715    78.730339    25.146714    16.341748 
   49400    243.29739   -303.78886    181563.75       -13250    1000.8082   -14250.808   -532.84401     299.7268    78.732084    25.141735     16.33595 
   49600    237.60678   -533.99563    181563.75   -13278.566    977.39974   -14255.966   -1355.4105    302.82375    78.733291    25.140886     16.34842 
   49800    232.99573   -301.89458    181563.75   -13301.875    958.43209   -14260.307   -477.70368    300.15259    78.734946    25.142899    16.377752 
   50000    232.07133    -413.1422    181563.75   -13312.626    954.62955   -14267.255   -908.96595    300.32953    78.736201    25.141039     16.39885 
   50200      245.721   -387.53012    181563.75    -13242.11    1010.7777   -14252.888   -870.82965    300.96427    78.732971    25.137696    16.372906 
   50400     237.9296   -351.88268    181563.75   -13274.628    978.72765   -14253.356   -711.74893    299.27492    78.736172    25.141171    16.379791 
   50600    227.55014   -360.98852    181563.75    -13333.85    936.03155   -14269.882   -733.92758    299.23049    78.736742    25.138051    16.379459 
   50800    237.25278   -287.97329    181563.75   -13320.263    975.94354   -14296.206   -455.39973    299.48947    78.738809    25.136231    16.360852 
   51000    243.82741   -276.84248    181563.75   -13225.741    1002.9884   -14228.729   -429.14031    300.90418    78.739204    25.133443    16.356022 
   51200    238.00059   -353.59691    181563.75   -13287.608    979.01969   -14266.627   -691.65889    303.14338    78.738162    25.134804    16.384222 
   51400    244.25551   -279.68035    181563.75   -13242.934    1004.7494   -14247.684   -412.94652    304.35686    78.739743    25.140707    16.361523 
   51600    238.22558   -295.66297    181563.75   -13237.056    979.94518   -14217.001   -532.61488    305.71269    78.740688    25.144149    16.351642 
   51800    242.93639   -361.11982    181563.75   -13215.202    999.32318   -14214.525   -747.80804    307.53536    78.738425    25.142212    16.386117 
   52000    239.09985   -328.35571    181563.75    -13238.62    983.54153   -14222.162   -604.40306    309.84912     78.73681    25.141965    16.398979 
   52200    238.87911   -525.66413    181563.75   -13236.604    982.63347   -14219.238   -1365.6964    310.94228    78.737213    25.142138    16.417052 
   52400    247.39241   -479.26141    181563.75   -13229.808    1017.6531   -14247.461   -1113.8897    311.83697    78.735548    25.142683    16.405114 
   52600    241.00172   -353.63922    181563.75   -13259.655    991.36486    -14251.02   -668.43486     314.1338    78.731745    25.141065    16.393758 
   52800    230.97225   -196.52946    181563.75   -13360.052    950.10848    -14310.16   -137.49392    312.19174    78.727696     25.13722    16.403868 
   53000    234.73981   -287.32714    181563.75   -13365.873    965.60642    -14331.48   -434.63773    312.56588    78.725877    25.135954    16.382961 
   53200    238.98795   -353.42188    181563.75   -13351.802     983.0812   -14334.883   -694.24467    314.46133    78.727978    25.139949    16.386185 
   53400    237.03481   -344.22429    181563.75   -13314.326    975.04693   -14289.373    -720.5218    312.59445     78.72681    25.143098    16.358961 
   53600    239.39046   -469.46183    181563.75   -13285.938    984.73693   -14270.675   -1088.0298    312.33973     78.72856    25.146357    16.350701 
   53800    241.35786   -354.21259    181563.75   -13293.684    992.82987   -14286.514   -700.58862    311.69726    78.727826    25.146031    16.354592 
   54000    241.44857   -410.69321    181563.75   -13215.714    993.20301   -14208.917   -930.67846    312.80122    78.728262      25.1495    16.354018 
   54200    238.00669   -371.68026    181563.75   -13321.446    979.04476   -14300.491   -788.56671    313.93335    78.729402    25.156304    16.342687 
   54400     240.0763   -450.36974    181563.75   -13308.966    987.55817   -14296.524   -1017.0537    313.71485    78.731223    25.154758    16.359177 
   54600    243.76023   -380.39275    181563.75   -13272.868     1002.712    -14275.58   -773.23549    316.05263     78.72559    25.159007    16.341461 
   54800    240.40463   -318.72981    181563.75   -13212.533    988.90872   -14201.442   -584.69876    315.05118    78.721738    25.160336    16.355698 
   55000    242.30547    -380.0311    181563.75   -13281.336    996.72788   -14278.064   -812.45813    315.68098    78.722932    25.163174    16.365309 
   55200    236.41411   -333.55649    181563.75    -13288.66    972.49365   -14261.153   -599.77055    318.59206    78.724052    25.165714    16.377322 
   55400    242.89665   -504.67135    181563.75   -13257.567    999.15972   -14256.726   -1271.4608    322.88404    78.727262    25.172211    16.362913 
   55600    240.20933   -411.52174    181563.75    -13274.41    988.10538   -14262.515   -897.53791    322.35592    78.731796    25.169806     16.37011 
   55800     237.2192   -311.72105    181563.75    -13314.76    975.80543   -14290.566   -552.26102    322.79081    78.731441    25.171946    16.386029 
   56000    236.60243   -381.45067    181563.75   -13325.146    973.26834   -14298.415   -752.08151    325.06223    78.734167    25.174376    16.430095 
   56200    245.29201   -384.14915    181563.75   -13255.497    1009.0131    -14264.51   -819.26995    325.06193    78.731831    25.175783    16.401075 
   56400    242.17436   -432.88741    181563.75   -13274.504    996.18854   -14270.693   -918.13257    325.13381    78.733612    25.179934     16.40513 
   56600    230.73929   -473.93289    181563.75   -13334.937     949.1502   -14284.087    -1133.046    326.54488    78.727801    25.181132    16.430664 
   56800    228.75479   -251.14875    181563.75   -13359.222     940.9869   -14300.208   -339.66277     327.3122    78.725847    25.180684    16.436037 
   57000    231.98242   -332.01799    181563.75   -13351.333    954.26385   -14305.597   -595.18864    326.45717    78.726288    25.183149    16.444933 
   57200    243.51474   -431.31989    181563.75   -13347.899    1001.7022   -14349.601   -957.70775    327.69479      78.7284    25.182056    16.434913 
   57400    233.56969   -319.27449    181563.75   -13315.821     960.7931   -14276.614   -585.85313    330.88613    78.728413    25.180181    16.414417 
   57600    248.34034   -422.66212    181563.75   -13229.467    1021.5524    -14251.02   -926.41098    332.19738    78.729666    25.178202    16.426491 
   57800    242.80111   -300.39259    181563.75   -13267.323     998.7667    -14266.09   -456.06368      334.154    78.731753    25.182533    16.418965 
   58000    247.18731    -311.0919    181563.75   -13242.537    1016.8094   -14259.346   -587.82839    333.17141    78.731061    25.183708    16.409741 
   58200    235.66017    -426.1694    181563.75   -13291.591    969.39233   -14260.983   -944.31219     333.5117    78.729408    25.187348    16.414954 
   58400    239.96296   -344.01876    181563.75   -13307.863    987.09193   -14294.955   -639.32254    335.56183    78.728232    25.186542    16.392128 
   58600    242.59357   -392.11043    181563.75    -13297.01    997.91299   -14294.923   -865.39206    335.78809    78.728867    25.190093    16.384591 
   58800    239.45532   -256.36494    181563.75   -13306.842    985.00373   -14291.846   -350.65694    336.48136    78.727814    25.193928    16.373857 
   59000    231.51059   -193.35523    181563.75   -13310.332    952.32297   -14262.655   -129.32276    337.88862     78.72799    25.196396    16.384258 
   59200    238.27599   -292.11339    181563.75    -13285.66    980.15254   -14265.812   -513.60409     338.2985    78.727661    25.195996    16.386974 
   59400     239.2748   -415.19349    181563.75   -13308.152    984.26118   -14292.413   -930.90193    337.33945     78.72732    25.196928    16.383374 
   59600    251.80969   -389.41142    181563.75   -13271.492    1035.8237   -14307.316    -843.3312    337.38539    78.724786    25.195584    16.362206 
   59800    244.98143   -297.35103    181563.75   -13284.414    1007.7355    -14292.15    -490.0396    339.30483    78.726302    25.197532    16.358575 
   60000    238.70967   -431.47113    181563.75   -13292.364    981.93649     -14274.3   -963.26382    338.98888    78.726394    25.202839    16.376605 
   60200    246.72552   -382.64649    181563.75    -13240.28    1014.9098    -14255.19   -743.25574    340.94422      78.7274    25.203571    16.347226 
   60400    233.00177   -419.67659    181563.75   -13323.384    958.45694   -14281.841   -906.31371    339.73565    78.727121    25.205805    16.344308 
   60600    237.93842   -449.15534    181563.75   -13313.343    978.76395   -14292.107   -998.50259     340.3536    78.727163    25.209289    16.341389 
   60800    234.58467   -362.62736    181563.75   -13335.924    964.96823   -14300.893   -705.19623    341.77707    78.731446      25.2099    16.332546 
   61000    234.20253   -484.97378    181563.75   -13381.191    963.39629   -14344.587   -1159.3699    342.75074    78.733227    25.209191     16.31329 
   61200    236.60593   -389.45343    181563.75    -13356.32    973.28274   -14329.603   -803.70788    341.84422    78.731001    25.211967    16.336102 
   61400    238.85491   -333.71425    181563.75   -13346.787    982.53395   -14329.321   -666.68696    341.54783    78.734505    25.215586    16.293359 
   61600    245.94149   -322.91098    181563.75   -13329.243    1011.6847   -14340.928   -578.90884    342.31088    78.736611    25.214312    16.285654 
   61800    239.49042   -374.93046    181563.75   -13295.204    985.14812   -14280.352   -785.70067    342.91481    78.738564    25.209564    16.323875 
   62000    240.32527   -362.45059    181563.75   -13277.175     988.5823   -14265.758   -686.57913    344.33678    78.741452    25.208499    16.333266 
   62200    241.89627   -484.74006    181563.75    -13225.36    995.04461   -14220.405   -1148.3245    346.21857    78.742827    25.209794    16.354436 
   62400    249.57606   -347.16465    181563.75   -13221.779    1026.6356   -14248.415   -641.64899    344.20296    78.740758    25.210496    16.359381 
   62600    238.14543    -278.3689    181563.75   -13295.806    979.61548   -14275.421    -452.4721    346.12951    78.741304    25.207245    16.368576 
   62800    235.34527   -408.81648    181563.75   -13291.219    968.09695   -14259.316   -891.49354    350.04386    78.742421     25.20971    16.365955 
   63000    239.15874    -307.9024    181563.75   -13258.253    983.78375   -14242.037   -535.15498    350.98027    78.744347    25.208146     16.38192 
   63200    238.93218   -426.44473    181563.75   -13311.331    982.85179   -14294.182   -951.36026    353.21258    78.742341    25.209863      16.4067 
   63400    243.20177   -183.95803    181563.75   -13266.849    1000.4148   -14267.264   -65.395366    352.65856    78.743424    25.209029    16.411234 
   63600    247.15206   -393.92425    181563.75   -13236.004    1016.6644   -14252.669   -811.06457    354.96137     78.74297    25.209213    16.403382 
   63800    238.85262   -417.39185    181563.75   -13263.779     982.5245   -14246.303   -909.35057    353.75309    78.744701    25.208041     16.38696 
   64000    234.78042   -283.07354    181563.75   -13299.216    965.77347   -14264.989   -458.43133    355.19759    78.746617    25.203747    16.377474 
   64200    239.01759    -424.5335    181563.75   -13274.814    983.20313   -14258.017   -916.02115    358.93909    78.744984    25.204313    16.385977 
   64400    252.08903   -243.00954    181563.75   -13290.281    1036.9727   -14327.254   -337.97117    359.01868    78.739753    25.204381    16.381882 
   64600    240.06217   -439.77085    181563.75   -13265.456    987.50001   -14252.956   -1023.1252    361.75016    78.737419    25.209287    16.382121 
   64800    241.01491   -464.29126    181563.75   -13268.823    991.41915   -14260.242   -1038.1073    364.23372     78.73716    25.207542    16.372438 
   65000    236.73545   -121.91257    181563.75   -13344.703     973.8155   -14318.518    129.60153     364.4091    78.734512    25.210328    16.361635 
   65200    240.70982   -452.95371    181563.75   -13327.562    990.16414   -14317.727   -1064.6475    364.73843    78.733202    25.207936    16.354243 
   65400    242.38471    -188.7395    181563.75   -13171.126    997.05384    -14168.18   -74.160062    364.22862    78.730133    25.207648     16.38312 
   65600    245.07312   -338.62767    181563.75   -13237.906    1008.1127   -14246.018   -630.90525    366.28691    78.723757    25.209471    16.375272 
   65800    251.62753   -367.00792    181563.75   -13220.516    1035.0743    -14255.59   -763.44278    367.43184    78.721958      25.2065    16.356264 
   66000    241.10095   -321.29692    181563.75   -13294.424    991.77305   -14286.197   -560.70488     368.0162    78.723113    25.204146    16.343459 
   66200    247.47279   -199.79784    181563.75   -13296.242    1017.9838   -14314.226   -126.66549    369.41689    78.726676     25.20026    16.343164 
   66400    230.08613   -333.79284    181563.75   -13352.755    946.46341   -14299.218    -654.5071    369.62554    78.728861    25.198412    16.336283 
   66600    236.96878   -405.47158    181563.75   -13309.782    974.77532   -14284.557   -853.85321    372.83535    78.735401    25.199331    16.311191 
   66800    239.31272   -313.48874    181563.75   -13325.569    984.41716   -14309.986   -550.72024    371.24554    78.736756    25.194714    16.324536 
   67000    229.20435   -353.79802    181563.75   -13365.901    942.83617   -14308.737   -740.35334    374.13945    78.738206    25.189881    16.328896 
   67200     237.2575   -273.91553    181563.75   -13381.717    975.96295    -14357.68   -369.87114    376.21333    78.739791    25.187729    16.346329 
   67400     247.6314   -243.01289    181563.75   -13326.088    1018.6362   -14344.724   -290.93502    380.16284    78.743775      25.1844    16.346083 
   67600    239.17547   -395.71864    181563.75   -13344.533    983.85256   -14328.386   -856.72647    380.07231    78.744553    25.184283    16.355174 
   67800    246.32681   -247.23073    181563.75   -13306.955    1013.2698   -14320.225   -344.82213    382.25008    78.748344    25.183245    16.314532 
   68000    236.10071   -324.48965    181563.75    -13312.07    971.20447   -14283.275   -577.03357    379.93273    78.753009     25.18747    16.299032 
   68200    244.37322   -231.33766    181563.75   -13318.263    1005.2336   -14323.496   -289.00903    378.64057    78.751036    25.187104    16.270954 
   68400    244.81936   -216.74358    181563.75   -13271.135    1007.0688   -14278.204   -148.75105     379.2972    78.749608    25.192635     16.26457 
   68600    236.85137   -414.09904    181563.75   -13335.216    974.29235   -14309.508    -875.6189    381.88227    78.752325    25.194939    16.263567 
   68800    247.76479   -422.40366    181563.75   -13286.612    1019.1849   -14305.796   -986.44825    380.35082    78.752307    25.196257    16.263025 
   69000    250.28938   -475.88452    181563.75   -13278.681    1029.5698    -14308.25   -1151.8132    380.64249    78.753009    25.197798    16.278895 
   69200    242.06544   -356.60139    181563.75   -13285.006    995.74052   -14280.747   -713.79923    378.28746    78.753643    25.203881    16.283517 
   69400    233.15211   -405.60827    181563.75   -13363.359    959.07536   -14322.435   -885.68424    382.91876    78.751587     25.20308    16.249387 
   69600    242.18873   -321.81293    181563.75   -13318.811    996.24766   -14315.059   -593.90985    384.09721    78.752442    25.202416    16.250063 
   69800     236.4509    -327.9863    181563.75   -13350.946    972.64499   -14323.591   -581.81562    384.26801    78.749802    25.201535    16.259822 
   70000    238.11563     -409.315    181563.75   -13371.785    979.49291   -14351.278   -922.98494    383.40484    78.744854    25.199187    16.291892 
   70200    248.03976   -331.31553    181563.75   -13342.935     1020.316   -14363.251   -594.85947    382.06743    78.739697    25.202432    16.313416 
   70400    236.55546   -285.47725    181563.75   -13312.953    973.07511   -14286.029   -410.69844    385.44823    78.744393      25.2018    16.329322 
   70600    240.09138   -287.18969    181563.75   -13304.966     987.6202   -14292.586   -494.89575    386.68694    78.747192    25.199362    16.345046 
   70800    239.82409   -489.53324    181563.75   -13337.165    986.52069   -14323.685   -1167.5573    392.12501    78.750604    25.196085    16.320815 
   71000     244.6814   -317.81661    181563.75   -13291.457    1006.5013   -14297.959    -580.2523    390.93799    78.753767    25.192948    16.316327 
   71200    251.18664   -377.41239    181563.75   -13205.265    1033.2607   -14238.525    -830.5978    391.08241    78.754569    25.192754    16.292031 
   71400    241.29004    -342.5711    181563.75    -13294.08    992.55089   -14286.631    -694.2447    392.87772    78.754616    25.195647    16.260406 
   71600    238.21439   -460.89374    181563.75   -13324.266    979.89916   -14304.165   -1071.3991    395.51618    78.754298    25.196522    16.252249 
   71800    237.60975   -372.70711    181563.75   -13313.469    977.41197   -14290.881    -729.7907    397.49954    78.753992    25.193366     16.23518 
   72000    243.34627   -288.92081    181563.75     -13260.1    1001.0092   -14261.109   -461.87149    397.23397    78.760801    25.192412    16.213513 
   72200    242.18224   -341.50615    181563.75   -13270.697    996.22098   -14266.918   -591.71544     396.8459    78.761644    25.194329    16.223611 
   72400    240.71154     -292.912    181563.75   -13287.844    990.17122   -14278.015   -510.11903    396.46045    78.759717    25.195004    16.224346 
   72600    245.57424   -129.17974    181563.75   -13285.989     1010.174   -14296.163    119.20971    395.35512      78.7625    25.194127    16.233584 
   72800    234.05771   -455.30681    181563.75   -13368.108    962.80056   -14330.909   -1019.9152    397.51148       78.762    25.197006    16.209615 
   73000    240.77903   -423.08151    181563.75   -13332.614    990.44884   -14323.063   -932.29615    397.80045    78.760987    25.197626    16.218384 
   73200    243.48258   -398.02951    181563.75   -13270.528    1001.5699   -14272.098   -885.93689    400.29934     78.76031    25.196658    16.229921 
   73400    235.38726    -414.9945    181563.75    -13311.11    968.26971    -14279.38    -882.9383    400.75608    78.758364    25.195688     16.24508 
   73600    243.31815   -299.63619    181563.75   -13279.016    1000.8936    -14279.91   -525.99849    401.62813    78.756634    25.199156    16.228043 
   73800    247.15272   -465.95858    181563.75   -13213.413    1016.6671   -14230.081   -1088.2157    401.61857    78.753573    25.200954    16.233064 
   74000    244.47648   -262.12235    181563.75   -13221.767    1005.6583   -14227.426   -413.63552    402.85923    78.751492    25.204412    16.216549 
   74200    241.58499   -344.99638    181563.75   -13221.292    993.76418   -14215.056   -655.38499    402.87508    78.752273     25.20465    16.248102 
   74400    235.94103   -354.79072    181563.75   -13282.536    970.54763   -14253.083   -719.83309    403.46753    78.750143    25.204799    16.262566 
   74600     236.6163   -380.38616    181563.75   -13316.666    973.32538   -14289.991   -783.83952    407.39027    78.750086    25.204204    16.260517 
   74800     237.7685   -384.70465    181563.75    -13298.56    978.06497   -14276.625   -800.40789    409.15627    78.752263    25.197486    16.234252 
   75000    243.13838   -307.26611    181563.75   -13319.794    1000.1541   -14319.948   -541.82098    409.04464    78.750356    25.196247    16.226901 
   75200    236.99919   -366.52977    181563.75     -13327.4    974.90042     -14302.3   -810.17795    408.38183    78.746684    25.197449    16.209743 
   75400    246.54437   -326.31286    181563.75   -13272.753    1014.1647   -14286.918   -611.41611    409.78383    78.744369    25.202237    16.207015 
   75600    237.79641   -474.89272    181563.75   -13312.178    978.17979   -14290.358    -1128.139    409.25989    78.743613    25.205972    16.205915 
   75800     236.5156   -325.08591    181563.75   -13292.311    972.91114   -14265.222   -632.98993    408.41058    78.745952    25.207829    16.239731 
   76000    243.96761   -166.40131    181563.75    -13301.48    1003.5651   -14305.045   -41.191304    409.36553    78.744353     25.20918    16.234835 
   76200    227.60934   -447.17745    181563.75   -13329.715     936.2751    -14265.99   -1035.1156    415.21452    78.743718    25.207333    16.208704 
   76400    237.08851   -401.82571    181563.75   -13335.299    975.26782   -14310.567   -885.84164    415.40602    78.744714    25.205795    16.217125 
   76600    241.02393   -299.00439    181563.75   -13315.767    991.45622   -14307.223   -489.61911     414.6445    78.746826    25.209303    16.259142 
   76800    248.23101   -453.80088    181563.75   -13257.447    1021.1027   -14278.549   -1033.1525    416.08506    78.748166    25.214442    16.278356 
   77000    234.54454   -332.19941    181563.75   -13311.805    964.80316   -14276.608   -603.18898    415.25964    78.749355     25.21656    16.302154 
   77200    245.59196   -218.32262    181563.75   -13292.619    1010.2469   -14302.866   -166.49044    415.05906    78.750249    25.216324    16.304308 
   77400    245.38162   -258.61094    181563.75    -13283.14    1009.3817   -14292.522   -324.89323    415.84425    78.748802    25.218008     16.29474 
   77600    244.33086   -226.17877    181563.75   -13323.489    1005.0594   -14328.549   -232.06933    416.33255    78.748658    25.219647    16.282144 
   77800    245.77887   -342.45941    181563.75   -13316.636    1011.0158   -14327.652    -678.0269    417.27026    78.747363    25.220533    16.294745 
   78000    238.76313   -293.96961    181563.75   -13390.842    982.15639   -14372.998   -482.17411    417.43762    78.747923    25.221136    16.312317 
   78200    240.20517   -328.59076    181563.75   -13320.721    988.08826    -14308.81   -607.21193    421.46032    78.748317    25.220858    16.334065 
   78400    240.59777   -350.50358    181563.75   -13334.326    989.70324   -14324.029   -720.22561    420.90328    78.750245    25.223556    16.307473 
   78600     228.9548   -389.39766    181563.75   -13401.368    941.80965   -14343.178   -828.89461    421.29747    78.752981    25.225554    16.278649 
   78800    243.22283   -427.13048    181563.75   -13379.301    1000.5015   -14379.803   -961.18285     420.8873    78.754399    25.225727    16.272815 
   79000    241.22335   -275.44783    181563.75   -13332.779    992.27655   -14325.055   -391.17569    420.53421    78.756882    25.220494    16.248843 
   79200    248.12176   -424.93925    181563.75   -13279.909    1020.6533   -14300.562   -918.64963    421.84838     78.75782     25.22422    16.251429 
   79400     238.6428   -311.58328    181563.75   -13333.362    981.66143   -14315.023    -567.5591    422.35962    78.758339    25.224412    16.242416 
   79600    236.61068   -302.84688    181563.75   -13317.478    973.30224    -14290.78   -526.80707    421.15852    78.759711    25.224523    16.255653 
   79800    240.76843   -416.77834    181563.75    -13330.02    990.40525   -14320.425   -921.36085    422.30177    78.764131    25.221496    16.232302 
   80000    240.16738   -217.61481    181563.75   -13313.947    987.93282   -14301.879   -201.79936      424.769    78.763306    25.216285    16.222536 
   80200    248.03361   -495.79136    181563.75    -13267.67    1020.2907   -14287.961   -1167.8626    426.68946    78.761505    25.218089    16.247868 
   80400    240.28979   -443.56799    181563.75   -13288.032    988.43635   -14276.468   -996.56942    428.21667    78.760557    25.219813     16.25072 
   80600    242.76429   -356.64108    181563.75   -13242.526    998.61523   -14241.141   -710.11758    429.68219    78.761573    25.221947    16.272352 
   80800     239.1655   -369.51951    181563.75   -13340.933    983.81156   -14324.744   -713.31036    432.01118    78.760408      25.2232    16.271537 
   81000    242.21505   -376.70332    181563.75    -13274.21    996.35594   -14270.566   -781.84874    433.49211    78.761341    25.228374    16.280548 
   81200    244.52256   -359.31743    181563.75   -13317.717    1005.8479   -14323.565   -681.09529    431.05611    78.759414    25.232271    16.306703 
   81400    237.09923   -223.71243    181563.75   -13356.447    975.31191   -14331.759   -231.74745    430.79779    78.758715    25.234781    16.323487 
   81600    244.21945   -442.47601    181563.75   -13331.364    1004.6011   -14335.965   -977.58949     429.9782    78.761141    25.232948    16.322105 
   81800    242.75763   -363.48337    181563.75   -13325.208    998.58787   -14323.796   -740.78808    429.32898    78.761902    25.231399    16.331442 
   82000    231.80504   -435.32058    181563.75   -13285.985    953.53416   -14239.519   -1009.9802    429.25108    78.760948    25.227947    16.337545 
   82200    236.24682   -464.25403    181563.75   -13311.971    971.80553   -14283.777   -1111.4848    431.86599    78.760543     25.22854     16.33707 
   82400    233.57112    -227.6473    181563.75   -13343.973    960.79896   -14304.772   -254.93703    431.39943    78.762823    25.229935    16.347256 
   82600    239.81557   -270.79362    181563.75   -13368.723    986.48564   -14355.208   -430.46529    434.56351    78.761304    25.229995    16.341455 
   82800    240.72218   -549.27097    181563.75   -13327.534    990.21501   -14317.749   -1391.8155    438.97512    78.762549    25.228839    16.331417 
   83000    244.88005   -218.54472    181563.75   -13312.265    1007.3185   -14319.584   -219.37438    438.82121    78.760989    25.226396     16.34223 
   83200     242.8829   -326.95767    181563.75   -13318.062    999.10316   -14317.165   -622.61015    439.08999    78.762542    25.228005    16.354777 
   83400    236.34735   -366.43294    181563.75   -13322.319    972.21903   -14294.538   -772.53466    439.81798    78.764833    25.227106    16.369664 
   83600    238.44079   -471.24103    181563.75   -13282.751    980.83045   -14263.581   -1100.6489    439.31663    78.767609    25.225737    16.398283 
   83800    235.26269    -341.8213    181563.75   -13371.738    967.75729   -14339.495    -650.9446    443.42807    78.767597    25.232925    16.406537 
   84000    234.36446   -353.54171    181563.75    -13382.56    964.06241   -14346.623   -713.51606    442.66496    78.767517    25.237586    16.393212 
   84200    232.51456   -539.53652    181563.75   -13378.343    956.45279   -14334.796   -1369.8375    444.31031    78.764756    25.239477    16.372136 
   84400    234.98154   -382.15738    181563.75   -13324.029    966.60076    -14290.63   -784.69157    445.15367    78.764707    25.244235    16.397641 
   84600    242.42736    -298.3712    181563.75   -13303.421    997.22927   -14300.651   -487.34614    443.86725    78.764374    25.246643     16.39944 
   84800    238.00987   -420.67213    181563.75   -13315.082    979.05787    -14294.14   -943.22803    445.68976    78.761017    25.243768    16.381118 
   85000    232.63365   -393.83732    181563.75   -13326.203    956.94266   -14283.145   -829.22411    446.39869    78.757819    25.239507    16.379381 
   85200    251.69729   -404.64006    181563.75    -13217.26    1035.3613   -14252.621    -872.0011    446.59443    78.752971    25.238461     16.37966 
   85400    238.81514   -615.32994    181563.75   -13284.444    982.37033   -14266.815   -1595.1742     448.7507    78.748876    25.239771     16.36954 
   85600    243.18837   -299.25378    181563.75   -13311.654    1000.3597   -14312.014   -463.72293     448.7445    78.750198    25.240093    16.374384 
   85800    243.96495   -332.72896    181563.75   -13263.311    1003.5542   -14266.865   -603.92888    450.93463    78.755097    25.240808    16.373232 
   86000    248.32846   -331.11253    181563.75   -13287.904    1021.5035   -14309.408   -563.22641    451.00605    78.757694    25.240019    16.362675 
   86200    238.10693   -337.10381    181563.75   -13335.565    979.45711   -14315.022   -594.42372    448.17778    78.755366    25.238666    16.373199 
   86400    239.63408   -380.61628    181563.75   -13367.989    985.73909   -14353.728   -747.00334    450.69697    78.756893    25.236762    16.387946 
   86600     234.0553   -411.66225    181563.75   -13329.998    962.79068   -14292.789   -872.05126    455.28945    78.756804    25.237037    16.374789 
   86800    229.01002   -240.54919    181563.75   -13306.282    942.03682   -14248.318   -304.24696    455.59161    78.756793    25.239725    16.354697 
   87000    235.42356   -395.30653    181563.75   -13317.867    968.41903   -14286.286   -825.34954     454.9882    78.755583    25.233778    16.308357 
   87200    235.83188   -485.53584    181563.75   -13282.937    970.09865   -14253.035   -1148.4587    457.70429    78.755351    25.230113    16.305248 
   87400    240.50931   -274.23392    181563.75   -13274.062    989.33933   -14263.401   -418.65949    460.21003    78.752598    25.231205    16.311371 
   87600    241.23172   -313.36571    181563.75    -13239.47    992.31101   -14231.781   -582.54495    465.01378    78.751086    25.229982    16.300825 
   87800     232.9575   -332.70917    181563.75   -13284.369    958.27486   -14242.644   -622.93446    464.94629    78.750674    25.232633    16.325779 
   88000    250.45858   -278.09853    181563.75   -13208.879    1030.2658   -14239.145   -421.95245    464.63704     78.75162    25.233014    16.341192 
   88200    248.76946   -304.75638    181563.75   -13214.548    1023.3176   -14237.866   -557.29007    466.54687    78.750851    25.233584    16.318478 
   88400    234.12223     -351.972    181563.75   -13247.293    963.06599   -14210.359   -697.17627    467.26906    78.754133    25.237443    16.355817 
   88600    240.23771   -200.81147    181563.75   -13310.563     988.2221   -14298.785   -154.54826    469.23303    78.752932    25.241045       16.356 
   88800    237.68937   -417.80224    181563.75   -13336.119    977.73948   -14313.859   -881.57794    474.21711    78.752458    25.243651    16.345539 
   89000    236.50764   -311.58649    181563.75   -13389.948    972.87839   -14362.826   -521.79951    474.43574    78.749807    25.242468    16.346946 
   89200    233.17904   -370.62824    181563.75   -13362.926    959.18615   -14322.112    -745.0394    475.26128    78.749906    25.241463    16.349637 
   89400    245.89144   -371.36726    181563.75   -13323.429    1011.4788   -14334.908    -774.5154    478.64787    78.747571    25.238611    16.325004 
   89600    233.77963   -382.73827    181563.75   -13389.823     961.6567    -14351.48    -818.4477    477.63182    78.747323    25.241143    16.330184 
   89800    239.97364   -189.06836    181563.75   -13283.873    987.13584   -14271.009   -137.39147    476.46212    78.746487    25.240171    16.304842 
   90000     247.2995   -287.63951    181563.75   -13246.468    1017.2709   -14263.739   -486.46753    477.29975    78.742073    25.239754    16.316351 
   90200    233.85377   -357.24519    181563.75   -13336.934    961.96164   -14298.896   -707.52948    477.08924    78.742969    25.235823    16.306275 
   90400    229.66198   -417.63113    181563.75   -13358.671    944.71865    -14303.39   -922.92477    478.72836    78.741219    25.232498    16.279915 
   90600    243.82328   -450.30224    181563.75   -13261.293    1002.9714   -14264.264   -1038.9392    478.64158    78.740827     25.22918    16.316712 
   90800     248.3331   -380.08727    181563.75   -13246.777    1021.5226     -14268.3   -772.96522    476.56944     78.74107    25.226063    16.344909 
   91000    241.15451   -282.82622    181563.75   -13311.915    991.99337   -14303.909   -425.44612     477.5768    78.742737    25.228498    16.371706 
   91200     239.9901   -204.97182    181563.75   -13326.201    987.20355   -14313.405   -170.61174    476.52714     78.74462    25.229064     16.41115 
   91400    235.20971   -354.88443    181563.75   -13378.896    967.53935   -14346.435   -698.17306    477.08419    78.745683    25.231624    16.388545 
   91600    241.02916    -396.8881    181563.75   -13289.271    991.47775   -14280.749   -829.78686    481.04684    78.748337    25.230655    16.356096 
   91800    235.22716   -259.28253    181563.75   -13324.408    967.61114   -14292.019   -408.84476    481.48733    78.749231    25.228254     16.35136 
   92000    240.49453   -462.81931    181563.75   -13280.052    989.27854   -14269.331   -1075.9359    481.68584     78.74736    25.228176    16.357686 
   92200    248.67794   -319.60521    181563.75   -13286.515    1022.9411   -14309.456   -567.18844     482.0951    78.745824    25.225936     16.36454 
   92400    248.81104   -390.42672    181563.75   -13222.128    1023.4886   -14245.616   -823.83416    482.01031    78.748679    25.228444    16.350885 
   92600    240.59958   -387.08119    181563.75   -13288.626    989.71068   -14278.337   -846.46085    482.90987    78.752399     25.23283    16.345943 
   92800    236.26742   -392.81804    181563.75   -13306.889    971.89025   -14278.779   -855.23827    485.16107    78.752389    25.233864     16.32153 
   93000    238.03597   -365.89299    181563.75   -13334.304    979.16521    -14313.47   -715.16021    488.15792    78.754122    25.231273    16.282159 
   93200    229.68648   -345.42785    181563.75   -13284.401    944.81946   -14229.221    -688.9198    486.83282    78.752261    25.228654     16.28075 
   93400     239.0438   -97.513932    181563.75   -13317.323    983.31095   -14300.634    178.77339    487.17458     78.75548    25.228426    16.246294 
   93600    244.61291   -392.52837    181563.75   -13275.612    1006.2196   -14281.832   -865.26193    488.45445    78.753584    25.228077    16.249311 
   93800    245.57203   -292.63866    181563.75   -13212.517    1010.1649   -14222.682   -503.55473    485.83011    78.751848    25.229404    16.253321 
   94000    234.83555   -207.81019    181563.75   -13296.172    966.00022   -14262.172   -165.21736    486.72792    78.753162    25.230999    16.251095 
   94200    243.99065   -358.94339    181563.75   -13244.732    1003.6599   -14248.392   -709.66543    486.73473    78.754198     25.23325    16.225585 
   94400    243.39238   -303.51264    181563.75    -13220.41    1001.1989   -14221.609   -536.52429    488.51343    78.753447    25.235251    16.230033 
   94600    246.41728   -376.94454    181563.75   -13224.796    1013.6419   -14238.438   -795.53171    489.46643    78.753805    25.237102    16.231754 
   94800    249.28686   -395.60495    181563.75   -13180.711     1025.446   -14206.157   -852.01159     488.1672    78.754898    25.238143    16.221202 
   95000    239.25423   -289.43063    181563.75   -13282.447    984.17655   -14266.624   -488.75575      488.584    78.756818    25.242847    16.251453 
   95200    238.46811   -303.34201    181563.75   -13266.419    980.94285   -14247.362    -492.2995    488.90343    78.757593    25.244523    16.247008 
   95400    240.22869   -296.04859    181563.75   -13277.132    988.18503   -14265.317   -509.98186     490.1564    78.760191    25.242921    16.247343 
   95600    240.37476   -429.57711    181563.75   -13293.398    988.78588   -14282.184   -915.00026    492.06894    78.761561    25.242976    16.270416 
   95800     240.4221   -349.43832    181563.75    -13294.41     988.9806   -14283.391   -739.14915    493.41657    78.763775    25.246887    16.303671 
   96000    237.09384   -246.31371    181563.75   -13301.857    975.28973   -14277.147   -297.76563    492.67804    78.762348    25.245983    16.349835 
   96200    236.71271   -501.58028    181563.75   -13311.599    973.72196   -14285.321   -1195.6024    495.88015    78.767369    25.250705    16.330589 
   96400    238.68903    -376.6457    181563.75    -13291.59    981.85159   -14273.442   -752.16019    493.33152    78.765676      25.2511    16.329107 
   96600    231.96343   -203.63689    181563.75   -13346.822    954.18571   -14301.008   -175.60874    493.05478    78.761283    25.252152     16.34203 
   96800     242.1458   -298.75733    181563.75   -13263.745    996.07108   -14259.816    -472.9423    495.83387    78.756795    25.255704    16.345376 
   97000    242.53392   -307.75207    181563.75   -13270.361     997.6676   -14268.028   -476.75741    497.26717    78.757794     25.25495    16.352959 
   97200    252.48998   -240.29132    181563.75    -13236.72    1038.6221   -14275.342   -282.53187    496.75437     78.75482    25.257045    16.370419 
   97400    240.28671   -424.28801    181563.75   -13351.826    988.42368    -14340.25   -942.73261    497.99016    78.753655    25.258073    16.369906 
   97600    239.47565   -376.49644    181563.75   -13311.239    985.08738   -14296.327   -785.39669    497.10535    78.751174    25.260087    16.360949 
   97800    235.82085   -389.43031    181563.75   -13319.528    970.05326   -14289.581   -848.95048    501.14024    78.755063    25.259046    16.378156 
   98000    230.20317   -244.93466    181563.75   -13352.156    946.94484   -14299.101   -311.74668    501.78569    78.754147     25.25877     16.37019 
   98200    241.35039   -303.85787    181563.75   -13329.489    992.79913   -14322.288   -484.74978    502.65598    78.752159    25.262312    16.357122 
   98400    234.43962   -502.89802    181563.75   -13294.225    964.37158   -14258.596   -1211.4907    504.46817    78.753297    25.263386    16.344775 
   98600    237.00653   -389.83304    181563.75   -13267.849    974.93058   -14242.779    -779.9805    505.48555    78.752836    25.261055    16.343535 
   98800    255.04988   -284.43252    181563.75   -13159.115    1049.1523   -14208.267   -395.53415    507.91316    78.753083    25.258184    16.338486 
   99000    240.64902   -417.69839    181563.75   -13223.527    989.91404   -14213.441   -900.75272     513.4327    78.752083    25.254981    16.319908 
   99200    238.16932   -395.43983    181563.75   -13251.853    979.71377   -14231.567   -834.00932    512.07305    78.750811    25.256998    16.304565 
   99400    242.98218   -320.25924    181563.75   -13233.804    999.51153   -14233.315   -620.55577    511.75711       78.753    25.257092    16.313789 
   99600    248.55932   -460.64632    181563.75   -13243.723    1022.4532   -14266.176   -1073.6971    514.08248     78.75259    25.255409    16.300444 
   99800    245.44515   -312.85884    181563.75   -13217.363     1009.643   -14227.006   -563.73002    514.30479    78.750236    25.259398    16.287689 
  100000    240.13929   -326.46604    181563.75   -13240.998    987.81725   -14228.815   -592.48441    516.31822    78.748777    25.260002     16.29326 
  100200    242.77597    -344.7853    181563.75   -13180.842    998.66327   -14179.505   -681.62538    516.57402    78.745164    25.260649    16.285909 
  100400    240.65102   -319.73622    181563.75   -13249.031    989.92226   -14238.953   -542.98723    517.73475    78.742759    25.266755    16.302554 
  100600    238.13755   -389.15454    181563.75   -13307.131    979.58309   -14286.714   -838.01583    521.79076    78.746515    25.266726    16.318469 
  100800    240.53926   -333.20088    181563.75   -13238.167    989.46254   -14227.629    -620.2034    521.62894    78.746702    25.264756     16.30346 
[...]
 5175800    224.02878   -104.94771    181563.75   -14683.889    921.54639   -15605.436    222.41557    6487.2942    79.141113    24.362561     16.30416 
 5176000    227.32245    18.321408    181563.75   -14644.587    935.09498   -15579.682    695.21304    6486.4639    79.141221    24.361546    16.299557 
 5176200    226.04064    24.009312    181563.75   -14661.064    929.82222   -15590.887    692.77363    6482.6217    79.142976    24.361588    16.304054 
 5176400     226.5158   -73.692591    181563.75   -14702.731    931.77681   -15634.508    338.53787    6484.4604    79.144079    24.361211    16.299152 
 5176600    228.74612   -185.58371    181563.75   -14652.937    940.95123   -15593.888    -83.12655    6488.2129    79.144111    24.362421    16.295073 
 5176800     226.4798    10.157691    181563.75   -14676.522    931.62872    -15608.15    653.02205    6485.6719    79.144802    24.363355    16.301231 
 5177000    229.40668   -45.786127    181563.75   -14686.046    943.66847   -15629.715    420.11196    6484.6869    79.146962    24.363915    16.297253 
 5177200    232.47049   -44.125189    181563.75   -14641.648    956.27153   -15597.919     482.1439     6487.704    79.148558    24.363865    16.297293 
 5177400    223.70162    19.202014    181563.75   -14667.729    920.20061   -15587.929    705.44607    6485.0429    79.148726    24.364677    16.302321 
 5177600    232.85899    4.2081638    181563.75    -14673.35    957.86961    -15631.22    611.75986    6484.6432    79.149408    24.365237    16.299556 
 5177800    217.27442   -73.048079    181563.75   -14688.614    893.76221   -15582.376     337.1117    6486.5837    79.150812    24.363432    16.301018 
 5178000    227.70659     -110.625    181563.75   -14674.008    936.67515   -15610.683    195.75081    6487.1337    79.151206    24.364053    16.303232 
 5178200    228.92125   -17.297103    181563.75   -14694.409    941.67167   -15636.081    517.70299    6483.7377    79.152452    24.363047    16.301561 
 5178400    227.97768   0.36811957    181563.75   -14666.943    937.79025   -15604.733    614.69884    6484.4265    79.153718    24.363981    16.301686 
 5178600    229.27416   -127.01294    181563.75    -14657.28    943.12336   -15600.403    188.13378    6488.4176    79.154456    24.362376    16.302154 
 5178800    227.31905  -0.41533577    181563.75   -14623.331    935.08098   -15558.412    645.62814    6484.6161     79.15497    24.363969    16.300509 
 5179000    226.32587    85.524079    181563.75   -14620.313    930.99552   -15551.309     943.7347    6482.2381    79.156039     24.36413    16.303208 
 5179200    222.40882   -74.572968    181563.75   -14657.985    914.88266   -15572.868    336.68604    6486.7097    79.156081     24.36449    16.294062 
 5179400     221.8197   -151.07332    181563.75   -14660.348    912.45932   -15572.807    61.173835    6487.7729      79.1573    24.364671    16.310997 
 5179600    225.89267    24.858128    181563.75    -14686.33    929.21353   -15615.543    711.33751    6485.4907    79.156965    24.365178    16.310873 
 5179800    229.07369    48.020134    181563.75   -14641.519    942.29874   -15583.817    775.01772    6484.8507    79.158284    24.365508    16.303139 
 5180000    224.08838   -121.09782    181563.75   -14672.708    921.79158     -15594.5    159.84636    6487.3147    79.158596    24.367323    16.307052 
 5180200    226.66697   -49.682014    181563.75    -14659.44    932.39865   -15591.839    466.71224    6487.8717    79.159824    24.367764    16.301172 
 5180400    229.55257    39.432463    181563.75   -14645.253    944.26859   -15589.521    719.38277    6485.0054     79.16094     24.36749    16.301245 
 5180600    219.74536   -2.6502634    181563.75   -14701.373    903.92647     -15605.3    642.85711    6485.8993    79.162162    24.367965    16.299237 
 5180800     224.7022   -159.68702    181563.75   -14670.882    924.31652   -15595.199    9.7768175     6487.998    79.162714    24.368632    16.303087 
 5181000    222.94959   -36.245165    181563.75   -14676.461    917.10713   -15593.568    463.78811    6485.5247    79.164349    24.366922    16.297178 
 5181200    227.39377    64.915983    181563.75   -14653.932    935.38835   -15589.321    854.47761    6483.9113    79.165103    24.366348    16.306102 
 5181400    226.73933   -54.266283    181563.75    -14641.94    932.69628   -15574.636    416.92549    6485.6987    79.165719    24.366527    16.300615 
 5181600    224.44804   -184.37451    181563.75   -14644.284    923.27102   -15567.555   -61.696154     6488.528    79.166802    24.364535     16.31065 
 5181800    230.20205   -11.219908    181563.75   -14614.996    946.94024   -15561.937    567.44964     6483.412    79.168109     24.36558    16.306079 
 5182000    228.08021    7.4995174    181563.75   -14691.914    938.21203   -15630.126    585.59878    6482.4474    79.168884    24.366887    16.314651 
 5182200    218.79267    -119.8167    181563.75   -14757.124    900.00757   -15657.132     167.8752    6486.2585    79.169052    24.367051    16.314022 
 5182400    226.62803   -161.79278    181563.75   -14657.894    932.23843   -15590.132    41.171521     6486.878    79.169108    24.367262    16.304977 
 5182600    240.75726    32.614012    181563.75    -14632.17    990.35928   -15622.529    746.31548     6483.504    79.168435    24.367261     16.30837 
 5182800    221.25127   -69.452345    181563.75   -14657.947    910.12107   -15568.068    344.40686    6484.1796    79.169706    24.367911    16.307919 
 5183000    227.79369   -134.60786    181563.75   -14649.714     937.0334   -15586.748    135.52496    6488.6574    79.170314    24.368119    16.311249 
 5183200    223.10138   -75.793008    181563.75   -14622.357    917.73151   -15540.089    331.41194     6485.077    79.170788    24.368897    16.308195 
 5183400    224.69083    67.063512    181563.75   -14676.089    924.26973   -15600.359    887.03928    6482.5484    79.172019    24.368779    16.308558 
 5183600    227.06007   -25.851183    181563.75   -14657.765    934.01565   -15591.781     549.9752    6486.9039    79.172894    24.368945    16.311496 
 5183800    220.03229    -190.3613    181563.75     -14697.7    905.10674   -15602.806   -42.798959    6486.9803    79.170742    24.368455    16.311191 
 5184000    230.79053   -17.725741    181563.75   -14684.653    949.36098   -15634.014     519.4171    6484.6152    79.171732    24.369396    16.306701 
 5184200    221.77052    26.260351    181563.75   -14664.782      912.257   -15577.039     693.0967    6482.6094    79.171524    24.369197    16.314465 
 5184400    223.09681   -56.573655    181563.75   -14672.031    917.71272   -15589.743    420.70209    6486.5448    79.170638    24.369996    16.315325 
 5184600    232.30595   -150.30802    181563.75   -14646.662    955.59469   -15602.257    136.48675    6486.9504    79.170796    24.368573     16.31404 
 5184800    237.03516    47.555848    181563.75   -14602.876    975.04837   -15577.925    833.02086    6485.0128    79.169539    24.369725    16.310775 
 5185000     230.7477   -25.936813    181563.75    -14598.32    949.18479   -15547.505    497.93574    6484.8961    79.168624    24.369523    16.309381 
 5185200    229.13466   -190.64496    181563.75   -14646.091    942.54953    -15588.64   -78.540581    6486.8409     79.16959    24.369526    16.310758 
 5185400    223.33372   -181.94053    181563.75   -14660.664    918.68723   -15579.351   -58.019907    6485.3502    79.169405    24.370124    16.306799 
 5185600    224.37268    70.161315    181563.75   -14710.674    922.96103   -15633.635    837.38721    6480.1696    79.170738     24.37105    16.306267 
 5185800    227.69492    17.824231    181563.75   -14654.575     936.6271   -15591.202    667.04718    6480.9069    79.170987    24.370748     16.31124 
 5186000    227.74048   -166.43465    181563.75   -14619.469    936.81452   -15556.284    68.615782    6488.1141    79.170093    24.370125    16.311644 
 5186200    231.66881    -66.70816    181563.75   -14609.435    952.97381   -15562.409    413.22456    6485.1923    79.168967    24.369135    16.306979 
 5186400    220.17549    26.642876    181563.75   -14674.197     905.6958   -15579.893    678.56488    6482.3262    79.168226    24.369099    16.303355 
 5186600    228.13714   -97.879194    181563.75   -14662.354    938.44619     -15600.8    217.09768    6482.7016    79.167139    24.368613    16.312612 
 5186800     233.0806   -133.36671    181563.75   -14617.191    958.78122   -15575.972    143.26281    6488.6348    79.165868    24.368137    16.311228 
 5187000     217.3154   -6.6047942    181563.75   -14660.398    893.93076   -15554.329    619.66364    6485.8743    79.165722    24.369814    16.310442 
 5187200    228.59328   -22.254637    181563.75   -14641.258    940.32253   -15581.581    522.96272    6482.8893    79.163838    24.370233    16.314563 
 5187400     224.6974    -103.6854    181563.75   -14685.964    924.29678   -15610.261    223.23287    6486.3743    79.164225    24.370639    16.312446 
 5187600    225.93862   -141.66638    181563.75   -14667.319    929.40256   -15596.722    103.11357    6488.1036    79.165337    24.371911    16.316418 
 5187800    226.64042    -48.86402    181563.75   -14641.448    932.28941   -15573.737    426.28366    6483.8201    79.166648    24.371844    16.309501 
 5188000    229.59931   -18.700769    181563.75    -14662.48    944.46085   -15606.941     538.5616    6480.8648    79.168209    24.371883    16.322587 
 5188200    219.43968   -124.31248    181563.75   -14633.608    902.66903   -15536.277    188.78662    6489.3026    79.168607    24.371285    16.318046 
 5188400    227.39022   -58.458538    181563.75   -14658.573    935.37372   -15593.947    395.86351    6484.7647    79.168329    24.370795    16.303214 
 5188600    223.36785    43.209151    181563.75   -14679.304    918.82766   -15598.132    774.64277    6483.5346    79.167647    24.370903    16.312301 
 5188800     232.2397   -148.78105    181563.75   -14632.077    955.32217     -15587.4    61.286524    6485.1424    79.167643    24.369738    16.321251 
 5189000    229.83957   -203.54384    181563.75   -14655.778    945.44918   -15601.227     -102.212    6486.9965    79.165937    24.368603    16.315146 
 5189200    232.15692    15.459967    181563.75   -14640.023    954.98165   -15595.005    714.70635    6483.6644     79.16654    24.368432    16.318025 
 5189400    223.87423    111.73579    181563.75   -14656.847    920.91066   -15577.758     1036.053    6481.6728    79.164874    24.368639    16.311689 
 5189600     225.8529   -79.188055    181563.75   -14664.998    929.04994   -15594.048    325.56213     6487.718    79.162353    24.367637    16.312864 
 5189800    224.08095   -173.72151    181563.75   -14676.875    921.76101   -15598.636   -21.934834    6487.1159    79.162141    24.366778    16.310232 
 5190000    225.53958   -27.217358    181563.75   -14661.291    927.76107   -15589.052    504.24108    6482.0192    79.162011    24.366498    16.308659 
 5190200    220.62533    20.098669    181563.75   -14687.435    907.54622   -15594.982    682.68506    6484.2339    79.162006    24.366333     16.31467 
 5190400    230.57591   -152.55065    181563.75   -14648.922    948.47812     -15597.4    145.45886    6488.4707    79.163168    24.365358    16.309879 
 5190600    231.37985   -45.990594    181563.75   -14640.279    951.78514   -15592.064    427.68594    6485.3496    79.161325    24.362931    16.310541 
 5190800    228.80348    64.596184    181563.75   -14666.891     941.1872   -15608.078    794.24832    6484.3098    79.161724     24.36189    16.320527 
 5191000    215.10985   -89.555919    181563.75   -14697.414    884.85823   -15582.272     292.7427    6486.0573    79.161907    24.361775    16.315976 
 5191200    223.25441   -154.30157    181563.75   -14680.171    918.36099   -15598.532    67.160483    6487.1466    79.160341    24.361675    16.314705 
 5191400    223.92415    53.967559    181563.75   -14669.394    921.11597    -15590.51    818.54822    6483.5983    79.159311    24.361599    16.313875 
 5191600    218.52576    67.963494    181563.75   -14663.357     898.9096   -15562.266    883.96122    6482.9972      79.1579    24.361498    16.308624 
 5191800    225.20367   -122.73797    181563.75   -14679.038    926.37932   -15605.418    178.22622    6487.1837    79.156568    24.362219    16.311869 
 5192000    227.10797    -162.6117    181563.75   -14646.079    934.21271   -15580.291    -12.75365    6487.0218    79.157419    24.360789    16.312177 
 5192200    230.72252    25.799959    181563.75   -14584.483    949.08119   -15533.564    717.81592    6483.9874    79.156972    24.360116    16.310395 
 5192400    234.11887    8.9803429    181563.75   -14577.436    963.05215   -15540.488    615.09458    6485.5985    79.157336    24.359717    16.309332 
 5192600    226.54417   -87.361781    181563.75   -14655.289    931.89347   -15587.182     320.7797    6485.4861    79.155957    24.361692     16.31178 
 5192800     227.8021   -126.24094    181563.75   -14686.766    937.06802   -15623.834    145.94903    6486.0068    79.155254    24.360828    16.314721 
 5193000    222.60329   -13.489946    181563.75    -14665.73    915.68263   -15581.412    557.65177    6484.5476      79.1533    24.359572    16.313449 
 5193200    229.80871    12.376706    181563.75   -14652.456    945.32222   -15597.778    665.27743    6482.5578    79.151992    24.360293    16.313287 
 5193400    224.73922   -71.987233    181563.75   -14719.671    924.46879   -15644.139     370.5988    6484.8401    79.150276    24.359224    16.316059 
 5193600    226.03778    -111.9237    181563.75    -14660.63    929.81046    -15590.44    216.99607     6485.707     79.15123    24.359376    16.313339 
 5193800    223.41256   -5.7426557    181563.75   -14690.161    919.01154   -15609.173    586.69225    6484.2918    79.152448    24.357469    16.310285 
 5194000    229.44792    2.8452639    181563.75   -14643.862    943.83811     -15587.7    632.10791    6482.8072    79.152416    24.355558    16.310108 
 5194200     221.5514   -38.124402    181563.75   -14661.068    911.35566   -15572.424    522.29625    6485.6953    79.152244    24.354777     16.31387 
 5194400    233.06694   -45.255641    181563.75   -14628.658    958.72502   -15587.383    480.66419    6484.8139      79.1526    24.353838    16.319746 
 5194600    218.09944   -7.1492211    181563.75   -14678.102    897.15594   -15575.258    563.96141    6483.6291     79.15188    24.353522      16.3107 
 5194800    226.85074    64.942432    181563.75    -14640.26    933.15457   -15573.415    879.82942    6482.9216    79.150785    24.352718    16.308573 
 5195000     226.1813   -64.575533    181563.75    -14646.39    930.40083   -15576.791    416.15679    6486.3351    79.149807    24.350465    16.311988 
 5195200     226.8836   -119.92549    181563.75    -14700.18    933.28975    -15633.47    160.29471     6486.327    79.149017    24.350164    16.311383 
 5195400    225.04191   -21.218815    181563.75   -14669.318    925.71394   -15595.032    534.85508    6483.2167    79.150011    24.347941    16.313197 
 5195600    220.42684   -38.431579    181563.75   -14668.418    906.72974   -15575.148    486.10549    6484.6029     79.14895    24.347414    16.311085 
 5195800    224.67391   -19.353235    181563.75   -14670.513    924.20014   -15594.713    571.75648    6485.6777    79.148837    24.346294    16.314288 
 5196000    238.77626    -29.48483    181563.75   -14626.824    982.21042   -15609.035    501.00366    6482.6633    79.148895    24.346077    16.310258 
 5196200     225.0661   -2.4345181    181563.75   -14655.038    925.81343   -15580.851    603.11471    6483.2162    79.147899    24.346632    16.308632 
 5196400    232.50111   -34.953871    181563.75    -14610.83    956.39748   -15567.228    493.94042    6484.8927    79.147746     24.34859    16.312235 
 5196600    219.78734   -73.842566    181563.75   -14691.639    904.09914   -15595.738    354.77595    6483.4898    79.147277    24.348335    16.308438 
 5196800    228.99228   -79.327879    181563.75   -14673.134    941.96383   -15615.098    302.86672    6482.9451    79.145181    24.348973      16.3109 
 5197000    223.43187   -64.102869    181563.75   -14646.475    919.09097   -15565.566    395.14429    6484.1744    79.144608    24.351229    16.316701 
 5197200    228.04465   -67.194299    181563.75   -14657.497    938.06574   -15595.563    370.40856    6483.4238    79.145245    24.352048    16.314721 
 5197400    237.69642   -97.969829    181563.75   -14593.002    977.76847    -15570.77    288.69685    6486.0355    79.145088    24.352149    16.317154 
 5197600    236.96451   -81.657039    181563.75   -14630.269    974.75775   -15605.027    315.23838    6485.3056     79.14507    24.351797    16.314938 
 5197800    225.14013   -15.247429    181563.75   -14634.585    926.11796   -15560.703     547.3999    6484.5026     79.14483    24.352223    16.316318 
 5198000    232.02217   -44.140276    181563.75   -14606.728    954.42735   -15561.156     475.8954     6486.344    79.143938    24.350675    16.317517 
 5198200    224.02231   -103.98858    181563.75   -14637.292    921.51978   -15558.811    246.27302    6486.5066    79.145317     24.34941    16.316686 
 5198400    222.39461   -41.697081    181563.75   -14663.305    914.82422    -15578.13    442.90729    6486.5792    79.145436    24.348901    16.321504 
 5198600    222.87196     13.65724    181563.75   -14645.743    916.78779   -15562.531    628.21147    6486.7582    79.146463    24.347928    16.315128 
 5198800    221.38376   -12.565012    181563.75   -14685.718    910.66606   -15596.384    535.45566    6484.5704    79.145331    24.347372    16.319325 
 5199000      223.635   -44.128363    181563.75   -14655.267    919.92656   -15575.194    472.70208    6485.9421     79.14588    24.345013    16.318398 
 5199200    224.05984   -70.020274    181563.75   -14651.223    921.67417   -15572.897    403.40198    6487.3887    79.146803    24.345298    16.307141 
 5199400    223.36212   -49.796796    181563.75   -14682.299    918.80408   -15601.103    444.00039    6485.6745    79.146166    24.344381    16.319599 
 5199600    219.71599   -43.300104    181563.75   -14686.427    903.80566   -15590.232     465.9394    6486.9363     79.14519    24.345336    16.314981 
 5199800    223.80324   -65.931545    181563.75   -14636.223    920.61861   -15556.842    383.49772    6487.1851    79.146001    24.344732    16.309392 
 5200000    229.03041    -81.40887    181563.75    -14643.36    942.12069    -15585.48    282.74033    6488.0658    79.145418    24.344789    16.313441 
Loop time of 7042.05 on 126 procs for 5200000 steps with 9253 atoms

Performance: 637.996 ns/day, 0.038 hours/ns, 738.421 timesteps/s
97.8% CPU use with 126 MPI tasks x no OpenMP threads

MPI task timing breakdown:
Section |  min time  |  avg time  |  max time  |%varavg| %total
---------------------------------------------------------------
Pair    | 0.38263    | 1689.8     | 5700.1     |4975.6 | 24.00
Neigh   | 3.3149     | 113.05     | 361.54     |1190.9 |  1.61
Comm    | 97.481     | 1467.8     | 4931.1     |4105.7 | 20.84
Output  | 89.814     | 89.889     | 91.699     |   1.7 |  1.28
Modify  | 174.83     | 3614.6     | 6793.3     |4868.8 | 51.33
Other   |            | 66.94      |            |       |  0.95

Nlocal:    73.4365 ave 210 max 0 min
Histogram: 51 19 14 0 0 0 0 0 28 14
Nghost:    651.524 ave 943 max 498 min
Histogram: 48 6 18 9 3 4 16 10 8 4
Neighs:    0 ave 0 max 0 min
Histogram: 126 0 0 0 0 0 0 0 0 0
FullNghs:  7905.81 ave 25576 max 0 min
Histogram: 73 11 0 0 0 0 0 7 27 8

Total # of neighbors = 996132
Ave neighs/atom = 107.655
Neighbor list builds = 522052
Dangerous builds = 0
write_data 		${DIR}/data.${NAME}_run
write_data 		run_3/data.${NAME}_run
write_data 		run_3/data.ibeam_cooling_3_run
Total wall time: 1:57:37
