

### IMPORT ATOMS ###
read_data ../Box_Setup/data.Ibeam_240K
  orthogonal box = (0 0 0) to (157.504 42.9242 26.8557)
  14 by 3 by 3 MPI processor grid
  reading atoms ...
  9253 atoms
  reading velocities ...
  9253 velocities
group water type 2
1381 atoms in group water
group graphite type 1
7872 atoms in group graphite


# Define potential
#
pair_style          sw
pair_coeff * * MLC_e.sw C mW

# Add velocity/set timestep
#

fix		1 graphite setforce 0.0 0.0 0.0
velocity 	graphite set 0.0 0.0 0.0
velocity            water create ${START_TEMP} ${SEED} rot yes dist gaussian
velocity            water create 240 ${SEED} rot yes dist gaussian
velocity            water create 240 4199 rot yes dist gaussian
timestep            5.0

# Define output
#
compute 1 water msd
compute 2 water temp


thermo	            100
thermo_style custom step c_2 press vol etotal ke pe c_1[4] density

# Neighbor lists
#
neigh_modify        delay 0 every 1 check yes


# Set fixes
#
fix                 2 water momentum 10 linear 1 1 1 rescale
fix                 3 all nve
fix                 4 water temp/csvr ${START_TEMP} ${START_TEMP} 500.0 928347
fix                 4 water temp/csvr 240 ${START_TEMP} 500.0 928347
fix                 4 water temp/csvr 240 240 500.0 928347

# Run 0.05 ns equilibration
#
dump                1 all custom 100 ${DIR}/eq.${NAME}.dump id type x y z vx vy vz
dump                1 all custom 100 run_3/eq.${NAME}.dump id type x y z vx vy vz
dump                1 all custom 100 run_3/eq.ibeam_cooling_3.dump id type x y z vx vy vz
run                 10000
Neighbor list info ...
  update every 1 steps, delay 0 steps, check yes
  max neighbors/atom: 2000, page size: 100000
  master list distance cutoff = 6.67472
  ghost atom cutoff = 6.67472
  binsize = 3.33736, bins = 48 13 9
  1 neighbor lists, perpetual/occasional/extra = 1 0 0
  (1) pair sw, perpetual
      attributes: full, newton on
      pair build: full/bin/atomonly
      stencil: full/bin/3d
      bin: standard
Per MPI rank memory allocation (min/avg/max) = 3.369 | 4.112 | 4.742 Mbytes
Step c_2 Press Volume TotEng KinEng PotEng c_1[4] Density 
       0          240   -344.39513    181563.75    -13284.54    987.24429   -14271.784            0    1.0922001 
     100    247.39961   -327.75891    181563.75   -13248.348    1017.6827   -14266.031   0.85664366    1.0922001 
     200    237.75866   -321.16595    181563.75   -13285.247    978.02451   -14263.272    1.3786759    1.0922001 
     300    241.81616   -156.60846    181563.75   -13276.351    994.71511   -14271.066    1.7594448    1.0922001 
     400    231.02185   -317.25412    181563.75    -13289.26    950.31251   -14239.572    2.1095453    1.0922001 
     500    240.81369    -442.3953    181563.75   -13286.072    990.59142   -14276.663    2.5068975    1.0922001 
     600    227.52991   -446.64423    181563.75    -13362.63    935.94835   -14298.578    2.9053501    1.0922001 
     700    240.91449   -360.02907    181563.75   -13342.495    991.00607   -14333.501    3.1258141    1.0922001 
     800    235.62449   -371.85204    181563.75   -13391.398    969.24557   -14360.643     3.579836    1.0922001 
     900    234.81014    -238.2868    181563.75   -13350.762    965.89569   -14316.657    3.9847255    1.0922001 
    1000    241.71672   -205.89989    181563.75   -13303.799    994.30603   -14298.105    4.4802801    1.0922001 
    1100    234.96466   -213.83526    181563.75   -13319.871    966.53131   -14286.403    4.9818496    1.0922001 
    1200     229.3041   -407.68726    181563.75   -13361.208    943.24652   -14304.455    5.3787809    1.0922001 
    1300    229.77467   -434.73581    181563.75   -13316.264    945.18221   -14261.446    6.1187609    1.0922001 
    1400    246.62594   -291.57083    181563.75    -13258.93    1014.5002   -14273.431    6.5882386    1.0922001 
    1500    245.19735   -415.98671    181563.75   -13264.747    1008.6237    -14273.37    6.9994167    1.0922001 
    1600    250.04397   -271.41098    181563.75   -13243.168    1028.5603   -14271.729    7.2778046    1.0922001 
    1700    235.45648   -317.73898    181563.75   -13261.466    968.55446    -14230.02    7.6161368    1.0922001 
    1800    237.48892   -287.78751    181563.75   -13270.376    976.91492   -14247.291    7.9651357    1.0922001 
    1900    249.70528    -450.1881    181563.75    -13198.52    1027.1671   -14225.687    8.2464981    1.0922001 
    2000    249.96709   -347.06606    181563.75   -13168.652    1028.2441   -14196.896    8.6231819    1.0922001 
    2100    242.99694     -386.786    181563.75   -13178.969    999.57227   -14178.541    8.8681065    1.0922001 
    2200    250.16157   -453.84732    181563.75   -13180.631    1029.0441   -14209.675    9.0836762    1.0922001 
    2300    240.10735   -314.04399    181563.75   -13219.623    987.68588   -14207.309    9.7195471    1.0922001 
    2400    248.43384   -336.72888    181563.75    -13225.82     1021.937   -14247.757     10.12828    1.0922001 
    2500    244.60241   -247.83197    181563.75    -13226.11    1006.1764   -14232.287    10.414899    1.0922001 
    2600    243.63971   -361.94688    181563.75   -13264.227    1002.2163   -14266.444    10.983276    1.0922001 
    2700    244.50405   -513.01011    181563.75   -13236.838    1005.7718    -14242.61    11.601037    1.0922001 
    2800    243.19574   -362.22436    181563.75   -13235.277      1000.39   -14235.667    11.887203    1.0922001 
    2900     243.1454   -347.44486    181563.75   -13290.384    1000.1829   -14290.567    12.016251    1.0922001 
    3000    237.16531   -401.49741    181563.75    -13305.86    975.58373   -14281.444    12.428525    1.0922001 
    3100    232.85228   -278.17631    181563.75   -13303.141    957.84203   -14260.983    12.686397    1.0922001 
    3200    236.19279   -226.07304    181563.75   -13325.506    971.58327   -14297.089    12.973522    1.0922001 
    3300    243.46327   -268.32943    181563.75   -13298.909    1001.4905     -14300.4    13.007541    1.0922001 
    3400    242.97524   -189.62942    181563.75   -13315.616    999.48298   -14315.099    13.395427    1.0922001 
    3500    244.79906   -430.82694    181563.75   -13313.206    1006.9853   -14320.191    13.641126    1.0922001 
    3600    246.82774   -375.53454    181563.75   -13292.431    1015.3303   -14307.762    14.034294    1.0922001 
    3700     222.3921   -582.87892    181563.75   -13315.544    914.81388   -14230.358    14.163999    1.0922001 
    3800    241.45774   -400.02269    181563.75   -13304.229    993.24073    -14297.47    14.394164    1.0922001 
    3900    233.09851   -53.212199    181563.75   -13321.616    958.85489   -14280.471    14.525956    1.0922001 
    4000    243.98872   -281.27445    181563.75   -13338.387    1003.6519   -14342.039    14.879151    1.0922001 
    4100    245.70173   -270.46783    181563.75   -13308.396    1010.6985   -14319.094    15.269739    1.0922001 
    4200    238.94075    -470.5871    181563.75     -13275.1    982.88705   -14257.987    15.242705    1.0922001 
    4300    247.22916   -324.78284    181563.75   -13205.272    1016.9816   -14222.254    15.653601    1.0922001 
    4400    243.04592   -289.02971    181563.75    -13217.73    999.77372   -14217.503    15.931587    1.0922001 
    4500     239.1437   -483.14511    181563.75   -13269.357    983.72188   -14253.079    16.193257    1.0922001 
    4600    238.14295   -491.97849    181563.75   -13275.347    979.60529   -14254.952    16.673115    1.0922001 
    4700     247.8638   -317.21494    181563.75   -13268.859    1019.5922   -14288.451     16.96855    1.0922001 
    4800    236.52541   -343.84222    181563.75     -13248.1     972.9515   -14221.052    17.263465    1.0922001 
    4900    247.27807    -398.3976    181563.75   -13274.532    1017.1828   -14291.715    17.545319    1.0922001 
    5000    241.95041    -325.0733    181563.75   -13290.762    995.26732    -14286.03    17.976837    1.0922001 
    5100    239.35005   -372.63505    181563.75   -13295.593    984.57071   -14280.164    18.336162    1.0922001 
    5200    244.35427   -455.98868    181563.75    -13287.31    1005.1557   -14292.466    18.616569    1.0922001 
    5300    236.60289   -360.75412    181563.75   -13325.289    973.27023    -14298.56    18.842707    1.0922001 
    5400    237.30596   -226.25902    181563.75   -13277.071    976.16229   -14253.233    19.332432    1.0922001 
    5500    235.23169   -464.66924    181563.75   -13306.429    967.62975   -14274.059    19.564211    1.0922001 
    5600    242.21343   -342.78552    181563.75   -13337.003    996.34925   -14333.352    19.633673    1.0922001 
    5700    236.62359   -294.83123    181563.75   -13314.424    973.35536   -14287.779    19.959146    1.0922001 
    5800    246.62145   -379.28066    181563.75    -13249.52    1014.4817   -14264.002    20.268083    1.0922001 
    5900    241.76755   -362.40816    181563.75    -13282.63    994.51514   -14277.145    20.710888    1.0922001 
    6000    239.29815   -398.61661    181563.75   -13342.752     984.3572   -14327.109    20.836593    1.0922001 
    6100    235.61491   -286.75204    181563.75   -13333.511    969.20614   -14302.718    21.252374    1.0922001 
    6200    240.06519    -264.4834    181563.75   -13310.153    987.51245   -14297.665    21.771701    1.0922001 
    6300    246.99308   -290.60505    181563.75   -13292.984    1016.0105   -14308.994    22.168705    1.0922001 
    6400    234.24557   -475.55542    181563.75   -13280.393    963.57333   -14243.966    22.458894    1.0922001 
    6500    234.43844   -313.00261    181563.75   -13289.831    964.36669   -14254.198    22.991407    1.0922001 
    6600    236.34679   -300.58608    181563.75   -13329.295    972.21674   -14301.512    23.267001    1.0922001 
    6700    239.37372   -305.86973    181563.75   -13352.244    984.66807   -14336.913    23.523623    1.0922001 
    6800    234.75328   -292.79814    181563.75   -13335.448    965.66182   -14301.109    24.083376    1.0922001 
    6900    230.14578   -393.64815    181563.75   -13374.501    946.70879   -14321.209    24.314064    1.0922001 
    7000    236.98152   -424.43367    181563.75   -13370.031    974.82771   -14344.859    24.635748    1.0922001 
    7100    243.75573   -465.03573    181563.75   -13293.284    1002.6935   -14295.977    24.799924    1.0922001 
    7200    247.03297    -303.1805    181563.75   -13314.566    1016.1745    -14330.74    25.058203    1.0922001 
    7300    231.05419   -371.58417    181563.75   -13376.309    950.44555   -14326.755    25.607701    1.0922001 
    7400    228.63068   -285.94252    181563.75   -13382.812     940.4764   -14323.289    25.810481    1.0922001 
    7500    230.61641   -324.52522    181563.75   -13389.962    948.64472   -14338.607    26.051143    1.0922001 
    7600    229.57895    -274.3651    181563.75   -13405.278     944.3771   -14349.655    26.602939    1.0922001 
    7700    237.79747   -364.95224    181563.75   -13393.561    978.18414   -14371.745    27.046308    1.0922001 
    7800    244.28964   -238.23285    181563.75   -13364.312    1004.8898   -14369.202     27.46814    1.0922001 
    7900      240.324   -362.74888    181563.75   -13364.713    988.57708   -14353.291    28.157882    1.0922001 
    8000    237.70078   -426.45539    181563.75   -13356.915    977.78642   -14334.702    28.451228    1.0922001 
    8100    236.11062   -343.63075    181563.75   -13368.927    971.24526   -14340.172    29.142846    1.0922001 
    8200    239.22025   -440.40586    181563.75   -13398.508    984.03676   -14382.544    28.893994    1.0922001 
    8300    240.88046    -273.5852    181563.75   -13411.214    990.86608    -14402.08    29.032367    1.0922001 
    8400    230.31628   -429.87746    181563.75   -13408.607    947.41013   -14356.017    29.718593    1.0922001 
    8500    241.88237   -433.55583    181563.75   -13392.982    994.98746   -14387.969    30.260434    1.0922001 
    8600      241.732    -353.9285    181563.75   -13368.319    994.36891   -14362.688    30.400299    1.0922001 
    8700    237.28789   -381.15008    181563.75   -13424.233    976.08797   -14400.321    30.416179    1.0922001 
    8800    243.15544   -433.72933    181563.75    -13379.78    1000.2242   -14380.004    30.474345    1.0922001 
    8900    240.70625   -289.95652    181563.75   -13399.745    990.14947   -14389.894    30.548087    1.0922001 
    9000    239.07449    -434.7786    181563.75   -13364.717     983.4372   -14348.154    30.911031    1.0922001 
    9100    237.40374   -374.57977    181563.75   -13361.616    976.56451    -14338.18    31.182925    1.0922001 
    9200    231.91656   -388.12412    181563.75   -13403.351     953.9929   -14357.344    30.852508    1.0922001 
    9300    243.89322   -457.72289    181563.75   -13414.777    1003.2591   -14418.036    31.402921    1.0922001 
    9400    231.28433   -416.83455    181563.75   -13419.185    951.39221   -14370.577    31.310042    1.0922001 
    9500    243.35997   -304.78491    181563.75   -13408.615    1001.0656    -14409.68    31.363954    1.0922001 
    9600    227.25926   -355.80058    181563.75   -13459.054    934.83501   -14393.889     31.67849    1.0922001 
    9700    243.55894   -224.92166    181563.75    -13409.02    1001.8841   -14410.904    31.882141    1.0922001 
    9800    236.56227   -330.64021    181563.75    -13429.74    973.10311   -14402.843    32.499849    1.0922001 
    9900    237.83917   -449.18967    181563.75   -13369.866    978.35566   -14348.221    32.892511    1.0922001 
   10000    254.04346   -242.69379    181563.75   -13325.183    1045.0123   -14370.195     33.16548    1.0922001 
Loop time of 15.4887 on 126 procs for 10000 steps with 9253 atoms

Performance: 278.913 ns/day, 0.086 hours/ns, 645.632 timesteps/s
97.7% CPU use with 126 MPI tasks x no OpenMP threads

MPI task timing breakdown:
Section |  min time  |  avg time  |  max time  |%varavg| %total
---------------------------------------------------------------
Pair    | 0.00072026 | 3.4868     | 13.249     | 238.4 | 22.51
Neigh   | 0.0035548  | 0.12134    | 0.38836    |  38.6 |  0.78
Comm    | 0.17253    | 3.4228     | 12.355     | 212.1 | 22.10
Output  | 0.15508    | 0.15524    | 0.16185    |   0.2 |  1.00
Modify  | 0.25604    | 8.1851     | 15.037     | 230.0 | 52.85
Other   |            | 0.1174     |            |       |  0.76

Nlocal:    73.4365 ave 210 max 0 min
Histogram: 55 7 22 0 0 0 0 0 28 14
Nghost:    649.786 ave 934 max 497 min
Histogram: 48 6 13 15 2 4 10 16 6 6
Neighs:    0 ave 0 max 0 min
Histogram: 126 0 0 0 0 0 0 0 0 0
FullNghs:  7939.38 ave 25653 max 0 min
Histogram: 64 20 0 0 0 0 0 7 27 8

Total # of neighbors = 1000362
Ave neighs/atom = 108.112
Neighbor list builds = 555
Dangerous builds = 0
write_data 	    ${DIR}/data.${NAME}_eq
write_data 	    run_3/data.${NAME}_eq
write_data 	    run_3/data.ibeam_cooling_3_eq

undump              1
unfix               4



################################################
#######         Run Simulation         #########
################################################

reset_timestep      0
timestep	    10.0
log                 ${DIR}/log.run_${NAME}
log                 run_3/log.run_${NAME}
log                 run_3/log.run_ibeam_cooling_3
