

### IMPORT ATOMS ###
read_data ../Box_Setup/data.Ibeam_240K
  orthogonal box = (0 0 0) to (157.504 42.9242 26.8557)
  14 by 3 by 3 MPI processor grid
  reading atoms ...
  9253 atoms
  reading velocities ...
  9253 velocities
group water type 2
1381 atoms in group water
group graphite type 1
7872 atoms in group graphite


# Define potential
#
pair_style          sw
pair_coeff * * MLC_e.sw C mW

# Add velocity/set timestep
#

fix		1 graphite setforce 0.0 0.0 0.0
velocity 	graphite set 0.0 0.0 0.0
velocity            water create ${START_TEMP} ${SEED} rot yes dist gaussian
velocity            water create 240 ${SEED} rot yes dist gaussian
velocity            water create 240 15753 rot yes dist gaussian
timestep            5.0

# Define output
#
compute 1 water msd
compute 2 water temp


thermo	            100
thermo_style custom step c_2 press vol etotal ke pe c_1[4] density

# Neighbor lists
#
neigh_modify        delay 0 every 1 check yes


# Set fixes
#
fix                 2 water momentum 10 linear 1 1 1 rescale
fix                 3 all nve
fix                 4 water temp/csvr ${START_TEMP} ${START_TEMP} 500.0 928347
fix                 4 water temp/csvr 240 ${START_TEMP} 500.0 928347
fix                 4 water temp/csvr 240 240 500.0 928347

# Run 0.05 ns equilibration
#
dump                1 all custom 100 ${DIR}/eq.${NAME}.dump id type x y z vx vy vz
dump                1 all custom 100 run_2/eq.${NAME}.dump id type x y z vx vy vz
dump                1 all custom 100 run_2/eq.ibeam_cooling_2.dump id type x y z vx vy vz
run                 10000
Neighbor list info ...
  update every 1 steps, delay 0 steps, check yes
  max neighbors/atom: 2000, page size: 100000
  master list distance cutoff = 6.67472
  ghost atom cutoff = 6.67472
  binsize = 3.33736, bins = 48 13 9
  1 neighbor lists, perpetual/occasional/extra = 1 0 0
  (1) pair sw, perpetual
      attributes: full, newton on
      pair build: full/bin/atomonly
      stencil: full/bin/3d
      bin: standard
Per MPI rank memory allocation (min/avg/max) = 3.369 | 4.112 | 4.742 Mbytes
Step c_2 Press Volume TotEng KinEng PotEng c_1[4] Density 
       0          240   -344.39513    181563.75    -13284.54    987.24429   -14271.784            0    1.0922001 
     100    241.61025   -376.41384    181563.75   -13249.718    993.86808   -14243.586   0.87301287    1.0922001 
     200    239.33515   -330.43709    181563.75   -13282.426    984.50943   -14266.936    1.3734808    1.0922001 
     300    244.95997   -250.28759    181563.75   -13275.411    1007.6472   -14283.058    1.7060964    1.0922001 
     400    236.58658   -242.63009    181563.75   -13286.357    973.20313   -14259.561     2.120569    1.0922001 
     500    232.20272   -384.49521    181563.75   -13295.955    955.17004   -14251.125    2.6455461    1.0922001 
     600    233.18282   -450.95284    181563.75   -13361.321    959.20171   -14320.522    3.0612962    1.0922001 
     700    236.65901   -393.36552    181563.75   -13353.338    973.50107   -14326.839    3.5777175    1.0922001 
     800    232.28381    -350.6401    181563.75   -13388.552    955.50362   -14344.056    4.1261347    1.0922001 
     900    237.54932   -182.78379    181563.75   -13360.149    977.16335   -14337.312    4.5658852    1.0922001 
    1000    247.44746   -235.33551    181563.75   -13316.178    1017.8796   -14334.058    4.9651431    1.0922001 
    1100    228.74012   -398.17542    181563.75   -13329.696    940.92657   -14270.622    5.3906163    1.0922001 
    1200    235.34915   -319.98852    181563.75   -13357.803    968.11293   -14325.915    5.8830656    1.0922001 
    1300    240.81406   -417.58989    181563.75   -13319.478    990.59295   -14310.071     6.196045    1.0922001 
    1400    250.56107   -323.75548    181563.75   -13277.112    1030.6874     -14307.8     6.397436    1.0922001 
    1500    237.50046   -186.33284    181563.75    -13290.26    976.96237   -14267.222    6.6570435    1.0922001 
    1600    245.10411   -179.15198    181563.75   -13278.274    1008.2401   -14286.514    6.9914465    1.0922001 
    1700     242.5673   -334.54788    181563.75   -13296.544    997.80493   -14294.349    7.2867941    1.0922001 
    1800    238.02728   -372.94694    181563.75   -13304.892    979.12948   -14284.021    7.5079883    1.0922001 
    1900    247.82832   -242.65495    181563.75   -13245.167    1019.4462   -14264.614    8.0781046    1.0922001 
    2000    250.10001   -521.23422    181563.75   -13222.619    1028.7909    -14251.41    8.5650882    1.0922001 
    2100      249.781   -339.56604    181563.75   -13237.593    1027.4786   -14265.072    8.9702865    1.0922001 
    2200    245.82026   -408.10183    181563.75   -13232.719     1011.186   -14243.905    9.4443142    1.0922001 
    2300    245.96948   -268.56072    181563.75    -13267.78    1011.7998   -14279.579    9.7338439    1.0922001 
    2400    236.61644   -163.11404    181563.75   -13262.117    973.32597   -14235.443    9.9941415    1.0922001 
    2500    251.43014   -259.91854    181563.75   -13264.518    1034.2624    -14298.78    10.210367    1.0922001 
    2600    234.89939   -248.21667    181563.75   -13300.813    966.26283   -14267.076    10.407311    1.0922001 
    2700    246.51347   -408.73111    181563.75   -13287.239    1014.0376   -14301.277    10.743221    1.0922001 
    2800    240.32248   -372.13335    181563.75   -13294.509    988.57082    -14283.08    11.082553    1.0922001 
    2900    238.49904   -251.05828    181563.75   -13335.801    981.07008   -14316.871    11.493425    1.0922001 
    3000    240.69251   -317.69014    181563.75   -13353.561    990.09294   -14343.654    11.660145    1.0922001 
    3100    241.58141   -468.72953    181563.75    -13353.15    993.74945   -14346.899    12.080475    1.0922001 
    3200    231.38949   -449.76767    181563.75   -13370.353    951.82481   -14322.178    12.403292    1.0922001 
    3300    240.42572    -433.8714    181563.75   -13333.017    988.99551   -14322.012    13.095522    1.0922001 
    3400    237.24782   -413.62719    181563.75   -13357.454    975.92316   -14333.377    13.361775    1.0922001 
    3500    234.02201   -412.73271    181563.75   -13354.464    962.65373   -14317.118    14.139886    1.0922001 
    3600    241.82519   -473.62302    181563.75   -13329.944    994.75222   -14324.696    14.675438    1.0922001 
    3700     232.4084   -339.26166    181563.75   -13344.851    956.01612   -14300.867    15.026674    1.0922001 
    3800    243.73143   -428.90973    181563.75   -13321.163    1002.5936   -14323.757    15.099289    1.0922001 
    3900    244.19802   -418.64438    181563.75   -13331.461    1004.5129   -14335.974    15.512008    1.0922001 
    4000    238.87051   -323.90542    181563.75   -13344.939    982.59812   -14327.537    15.885075    1.0922001 
    4100    246.35006   -249.58024    181563.75   -13320.885    1013.3654    -14334.25    16.316025    1.0922001 
    4200    236.47524   -374.12896    181563.75   -13286.319    972.74514   -14259.064    16.720614    1.0922001 
    4300    245.16252   -371.09695    181563.75   -13220.866    1008.4804   -14229.347    17.199224    1.0922001 
    4400    252.78263   -368.46444    181563.75   -13242.156    1039.8259   -14281.982    17.795027    1.0922001 
    4500    237.13471   -206.30842    181563.75   -13299.363    975.45786   -14274.821    18.118781    1.0922001 
    4600    243.84339     -514.136    181563.75   -13321.696    1003.0542    -14324.75    18.098496    1.0922001 
    4700    245.65479   -270.21446    181563.75   -13326.263    1010.5054   -14336.769    18.401427    1.0922001 
    4800    249.38211    -233.4064    181563.75   -13305.047    1025.8378   -14330.884     18.56742    1.0922001 
    4900    236.71743    -359.6842    181563.75    -13325.09    973.74137   -14298.831      18.9253    1.0922001 
    5000    238.52093   -310.63329    181563.75   -13340.011     981.1601   -14321.171    19.356096    1.0922001 
    5100    235.78941    -237.5086    181563.75   -13346.936    969.92396    -14316.86    19.728165    1.0922001 
    5200    233.51164   -581.07264    181563.75   -13341.025    960.55429    -14301.58     20.00885    1.0922001 
    5300    233.23792   -291.44448    181563.75   -13373.675    959.42833   -14333.104    20.553278    1.0922001 
    5400    233.52095   -364.53031    181563.75   -13341.317    960.59261   -14301.909    20.556917    1.0922001 
    5500    234.26131   -356.52467    181563.75   -13360.611    963.63807   -14324.249    20.660332    1.0922001 
    5600    228.82379   -273.88182    181563.75   -13372.375    941.27073   -14313.646    21.291633    1.0922001 
    5700    245.20119   -250.01771    181563.75   -13345.249    1008.6395   -14353.889    21.787263    1.0922001 
    5800    254.63437   -339.09245    181563.75   -13285.613     1047.443   -14333.056    21.933964    1.0922001 
    5900    236.83467   -199.56498    181563.75   -13332.514    974.22364   -14306.738    22.343456    1.0922001 
    6000    237.09624   -236.76596    181563.75   -13397.075    975.29961   -14372.374    22.446937    1.0922001 
    6100    234.69956   -381.94206    181563.75   -13379.356    965.44082   -14344.797    22.465972    1.0922001 
    6200    233.05617   -407.05242    181563.75   -13356.492    958.68074   -14315.173    22.793312    1.0922001 
    6300    236.91224   -438.77979    181563.75   -13323.453    974.54275   -14297.996    23.002495    1.0922001 
    6400    244.31004   -319.23289    181563.75   -13324.247    1004.9737   -14329.221    23.659244    1.0922001 
    6500    232.81425   -257.85097    181563.75   -13345.367    957.68557   -14303.053    24.042002    1.0922001 
    6600    229.61547   -402.08462    181563.75   -13386.209    944.52736   -14330.736    24.500001    1.0922001 
    6700    233.43033   -290.18322    181563.75   -13398.511    960.21984   -14358.731    24.429632    1.0922001 
    6800    239.92799   -301.92175    181563.75   -13371.918    986.94809   -14358.866    24.599161    1.0922001 
    6900    237.58782   -384.93313    181563.75   -13401.609    977.32174    -14378.93    25.124923    1.0922001 
    7000    225.59827   -332.12881    181563.75   -13395.406    928.00252   -14323.408    25.251727    1.0922001 
    7100     238.1585   -367.83029    181563.75   -13314.339    979.66925   -14294.008     25.52242    1.0922001 
    7200    236.96574   -402.80207    181563.75   -13322.854    974.76279   -14297.617    25.561161    1.0922001 
    7300    242.72018   -458.06811    181563.75   -13383.821    998.43379   -14382.255    25.830242    1.0922001 
    7400    238.90383   -217.76529    181563.75   -13398.181    982.73515   -14380.916    26.239569    1.0922001 
    7500    231.97735   -166.70445    181563.75   -13412.307    954.24296    -14366.55    26.782852    1.0922001 
    7600     232.9086   -361.83524    181563.75   -13415.608     958.0737   -14373.682    27.144837    1.0922001 
    7700    239.27398   -430.46915    181563.75   -13402.443    984.25779   -14386.701    27.334665    1.0922001 
    7800    236.74436     -324.768    181563.75   -13359.332    973.85215   -14333.184    28.052496    1.0922001 
    7900    235.72448   -293.71466    181563.75   -13353.178    969.65688   -14322.835    28.298564    1.0922001 
    8000    233.72021    -402.8557    181563.75   -13345.814    961.41228   -14307.226    28.501187    1.0922001 
    8100    244.59839   -332.38536    181563.75   -13360.986    1006.1598   -14367.146    28.760576    1.0922001 
    8200    235.56516   -275.43229    181563.75     -13375.8     969.0015   -14344.802    29.112311    1.0922001 
    8300    230.88352   -239.79332    181563.75   -13382.207    949.74347    -14331.95    29.261907    1.0922001 
    8400    239.44108   -305.08997    181563.75   -13377.471    984.94518   -14362.416     29.30646    1.0922001 
    8500    246.00556   -312.17264    181563.75   -13376.734    1011.9483   -14388.682    29.271263    1.0922001 
    8600    236.82412   -460.41403    181563.75   -13354.544    974.18024   -14328.724    29.876785    1.0922001 
    8700    232.02737    -235.2319    181563.75   -13411.194    954.44872   -14365.642    30.163107    1.0922001 
    8800     241.5479   -359.17551    181563.75   -13362.759     993.6116   -14356.371    30.795731    1.0922001 
    8900    240.85983   -362.65726    181563.75   -13381.635    990.78121   -14372.417    30.640651    1.0922001 
    9000    236.56784    -428.7179    181563.75    -13351.13    973.12604   -14324.256    30.599826    1.0922001 
    9100    246.47046   -273.25595    181563.75   -13347.718    1013.8606   -14361.579    30.876205    1.0922001 
    9200    242.49774    -207.1436    181563.75   -13384.223    997.51877   -14381.741    30.887302    1.0922001 
    9300    243.01752   -263.52872    181563.75   -13413.591    999.65692   -14413.248    30.720228    1.0922001 
    9400    237.74066   -223.32002    181563.75    -13426.93    977.95047    -14404.88    30.946328    1.0922001 
    9500    235.49409   -410.06006    181563.75   -13411.112    968.70917   -14379.821    31.459881    1.0922001 
    9600    226.69308   -597.90458    181563.75   -13461.705    932.50604   -14394.211     31.54516    1.0922001 
    9700    237.05728   -396.80118    181563.75    -13392.66    975.13938   -14367.799    32.001075    1.0922001 
    9800    233.63197   -175.21664    181563.75   -13407.549     961.0493   -14368.598    31.867552    1.0922001 
    9900    241.15015   -345.47556    181563.75   -13365.958    991.97544   -14357.934    31.810952    1.0922001 
   10000    245.49567   -299.71766    181563.75   -13315.886    1009.8508   -14325.737    32.097865    1.0922001 
Loop time of 15.4038 on 126 procs for 10000 steps with 9253 atoms

Performance: 280.450 ns/day, 0.086 hours/ns, 649.191 timesteps/s
97.6% CPU use with 126 MPI tasks x no OpenMP threads

MPI task timing breakdown:
Section |  min time  |  avg time  |  max time  |%varavg| %total
---------------------------------------------------------------
Pair    | 0.00073242 | 3.4626     | 12.677     | 236.9 | 22.48
Neigh   | 0.0034947  | 0.12072    | 0.38647    |  38.4 |  0.78
Comm    | 0.16997    | 3.4017     | 11.556     | 210.0 | 22.08
Output  | 0.15409    | 0.15429    | 0.16104    |   0.2 |  1.00
Modify  | 0.35452    | 8.1389     | 14.957     | 229.4 | 52.84
Other   |            | 0.1255     |            |       |  0.81

Nlocal:    73.4365 ave 210 max 0 min
Histogram: 56 4 24 0 0 0 0 0 28 14
Nghost:    650.452 ave 935 max 496 min
Histogram: 36 18 13 13 4 4 13 13 7 5
Neighs:    0 ave 0 max 0 min
Histogram: 126 0 0 0 0 0 0 0 0 0
FullNghs:  7929.37 ave 25631 max 0 min
Histogram: 64 20 0 0 0 0 0 7 27 8

Total # of neighbors = 999100
Ave neighs/atom = 107.976
Neighbor list builds = 553
Dangerous builds = 0
write_data 	    ${DIR}/data.${NAME}_eq
write_data 	    run_2/data.${NAME}_eq
write_data 	    run_2/data.ibeam_cooling_2_eq

undump              1
unfix               4



################################################
#######         Run Simulation         #########
################################################

reset_timestep      0
timestep	    10.0
log                 ${DIR}/log.run_${NAME}
log                 run_2/log.run_${NAME}
log                 run_2/log.run_ibeam_cooling_2
