
### Dimensions ###


### IMPORT ATOMS ###
read_data ../Box_Setup/data.Ibeam_240K
  orthogonal box = (0 0 0) to (157.504 36.4877 39.8503)
  10 by 2 by 3 MPI processor grid
  reading atoms ...
  8943 atoms
  reading velocities ...
  8943 velocities
group water type 2
2223 atoms in group water
group graphite type 1
6720 atoms in group graphite


# Define potential
#
pair_style          sw
pair_coeff * * MLC_e.sw C mW

# Add velocity/set timestep
#

fix		1 graphite setforce 0.0 0.0 0.0
velocity 	graphite set 0.0 0.0 0.0
velocity            water create ${START_TEMP} ${SEED} rot yes dist gaussian
velocity            water create 235 ${SEED} rot yes dist gaussian
velocity            water create 235 17085 rot yes dist gaussian
timestep            5.0

# Define output
#
compute 1 water msd
compute 2 water temp


thermo	            100
thermo_style custom step c_2 press vol etotal ke pe c_1[4] density

# Neighbor lists
#
neigh_modify        delay 0 every 1 check yes


# Set fixes
#
fix                 2 water momentum 10 linear 1 1 1 rescale
fix                 3 all nve
fix                 4 water temp/csvr ${START_TEMP} ${START_TEMP} 500.0 928347
fix                 4 water temp/csvr 235 ${START_TEMP} 500.0 928347
fix                 4 water temp/csvr 235 235 500.0 928347

# Run 0.05 ns equilibration
#
dump                1 all custom 100 ${DIR}/eq.${NAME}.dump id type x y z vx vy vz
dump                1 all custom 100 run_3/eq.${NAME}.dump id type x y z vx vy vz
dump                1 all custom 100 run_3/eq.ibeam_cooling_3.dump id type x y z vx vy vz
run                 10000
Neighbor list info ...
  update every 1 steps, delay 0 steps, check yes
  max neighbors/atom: 2000, page size: 100000
  master list distance cutoff = 6.67472
  ghost atom cutoff = 6.67472
  binsize = 3.33736, bins = 48 11 12
  1 neighbor lists, perpetual/occasional/extra = 1 0 0
  (1) pair sw, perpetual
      attributes: full, newton on
      pair build: full/bin/atomonly
      stencil: full/bin/3d
      bin: standard
Per MPI rank memory allocation (min/avg/max) = 3.374 | 4.219 | 4.781 Mbytes
Step c_2 Press Volume TotEng KinEng PotEng c_1[4] Density 
       0          235    -169.9624    229018.04   -21244.698    1556.4896   -22801.188            0   0.87555383 
     100    236.79392   -336.57617    229018.04   -21226.353    1568.3714   -22794.724   0.84512028   0.87555383 
     200     235.5725   -237.16614    229018.04   -21284.693    1560.2815   -22844.975    1.2455996   0.87555383 
     300    239.84649   -328.50798    229018.04   -21281.036    1588.5896   -22869.626    1.5886471   0.87555383 
     400    241.28392   -307.14147    229018.04   -21296.432    1598.1102   -22894.542    1.9398252   0.87555383 
     500    233.61447   -265.38894    229018.04   -21291.448    1547.3127   -22838.761    2.2734912   0.87555383 
     600    224.62015   -415.69301    229018.04   -21392.775    1487.7401   -22880.515    2.6225439   0.87555383 
     700    227.79497   -129.40252    229018.04   -21365.416    1508.7681   -22874.184    2.8956382   0.87555383 
     800    231.88865   -286.83537    229018.04   -21409.516     1535.882   -22945.398      3.13622   0.87555383 
     900    235.26188   -169.68146    229018.04   -21354.418    1558.2241   -22912.642    3.3485019   0.87555383 
    1000    233.75323   -42.576946    229018.04   -21296.751    1548.2318   -22844.983    3.6879963   0.87555383 
    1100    237.41479   -293.59364    229018.04   -21316.222    1572.4836   -22888.705    4.1338462   0.87555383 
    1200    232.68972   -388.77902    229018.04   -21363.372    1541.1878    -22904.56    4.5098287   0.87555383 
    1300    236.90606   -376.21383    229018.04   -21329.737    1569.1141   -22898.851    4.7077568   0.87555383 
    1400    237.16909   -367.49226    229018.04   -21272.698    1570.8562   -22843.554    5.1177379   0.87555383 
    1500    242.73514   -205.53984    229018.04   -21287.516    1607.7222   -22895.238    5.4206474   0.87555383 
    1600    242.41671   -249.00824    229018.04    -21278.78    1605.6131   -22884.393    5.7301593   0.87555383 
    1700    237.38084   -132.65117    229018.04   -21299.427    1572.2587   -22871.686    6.0984209   0.87555383 
    1800    243.05543   -346.64944    229018.04   -21323.331    1609.8436   -22933.175    6.2894439   0.87555383 
    1900    242.15747   -502.64393    229018.04   -21243.613    1603.8961   -22847.509    6.4957548   0.87555383 
    2000    241.33808   -224.35162    229018.04   -21225.426     1598.469   -22823.895    6.8980704   0.87555383 
    2100      239.233    -199.0779    229018.04   -21251.624    1584.5263   -22836.151    7.1537515   0.87555383 
    2200    241.01782   -206.02931    229018.04   -21240.056    1596.3478   -22836.403    7.4202992   0.87555383 
    2300    238.50431   -241.53007    229018.04   -21275.353    1579.6999   -22855.053     7.641126   0.87555383 
    2400    236.79286   -294.44206    229018.04   -21272.483    1568.3643   -22840.847    8.0407781   0.87555383 
    2500    237.66943   -209.31247    229018.04   -21258.719    1574.1702   -22832.889    8.3671261   0.87555383 
    2600    230.82263   -504.66585    229018.04   -21305.318    1528.8214   -22834.139    8.8404676   0.87555383 
    2700    234.86329   -232.51615    229018.04   -21288.016    1555.5841     -22843.6    8.9501058   0.87555383 
    2800    235.68122   -233.04702    229018.04   -21297.178    1561.0016    -22858.18    9.1578163   0.87555383 
    2900    232.95927   -273.56975    229018.04   -21361.529    1542.9731   -22904.502    9.4919536   0.87555383 
    3000    232.59223   -259.38388    229018.04   -21377.561     1540.542   -22918.103     9.823361   0.87555383 
    3100    226.23482    -375.0686    229018.04   -21345.218    1498.4346   -22843.652    10.236057   0.87555383 
    3200    227.91215   -361.22392    229018.04   -21357.555    1509.5442     -22867.1    10.578959   0.87555383 
    3300    233.74597   -246.76816    229018.04   -21322.558    1548.1837   -22870.742     10.73879   0.87555383 
    3400    238.41425   -96.754193    229018.04   -21327.178    1579.1034   -22906.281    10.966561   0.87555383 
    3500    231.34293    -315.5301    229018.04   -21324.541    1532.2675   -22856.808     11.33257   0.87555383 
    3600     231.3448   -445.67893    229018.04   -21310.452    1532.2799   -22842.732    11.675443   0.87555383 
    3700    233.72373   -347.30007    229018.04   -21322.287    1548.0364   -22870.323    12.005171   0.87555383 
    3800    238.28537   -237.58288    229018.04   -21315.993    1578.2498   -22894.243    12.272811   0.87555383 
    3900    236.21993   -313.23416    229018.04   -21321.264    1564.5696   -22885.833    12.776759   0.87555383 
    4000    234.33114   -429.66009    229018.04   -21351.107    1552.0595   -22903.166    13.295329   0.87555383 
    4100    237.28757    -235.2302    229018.04   -21306.383     1571.641   -22878.024    13.511214   0.87555383 
    4200    234.06857   -360.51235    229018.04    -21275.47    1550.3204    -22825.79    13.948031   0.87555383 
    4300    237.44962   -222.21326    229018.04   -21187.901    1572.7143   -22760.615    14.216838   0.87555383 
    4400    240.56365   -409.41153    229018.04   -21190.474    1593.3396   -22783.814    14.604522   0.87555383 
    4500    244.89116   -326.60994    229018.04   -21223.121    1622.0023   -22845.123    14.843529   0.87555383 
    4600    237.05405   -192.59376    229018.04   -21249.266    1570.0943    -22819.36    15.143743   0.87555383 
    4700    239.35076   -123.81149    229018.04   -21285.837    1585.3063   -22871.143    15.497227   0.87555383 
    4800    232.76638   -365.45723    229018.04   -21252.987    1541.6955   -22794.682    15.719547   0.87555383 
    4900    233.83554    -211.3963    229018.04   -21262.589     1548.777   -22811.366     16.43293   0.87555383 
    5000    231.42112   -242.74954    229018.04   -21295.193    1532.7854   -22827.978    16.624604   0.87555383 
    5100    233.20143   -309.16934    229018.04   -21296.324     1544.577   -22840.901    16.957016   0.87555383 
    5200    232.31181   -364.29279    229018.04    -21253.78    1538.6847   -22792.465    17.226082   0.87555383 
    5300    237.81299   -126.89694    229018.04    -21302.46     1575.121   -22877.581    17.617542   0.87555383 
    5400    230.69505   -369.58223    229018.04   -21268.903    1527.9763   -22796.879    17.688118   0.87555383 
    5500    232.11593   -252.06007    229018.04   -21304.397    1537.3874   -22841.785    17.959277   0.87555383 
    5600    226.68113   -200.17189    229018.04    -21327.57    1501.3907   -22828.961    18.316121   0.87555383 
    5700    232.57812   -309.36799    229018.04   -21285.738    1540.4486   -22826.187    18.519974   0.87555383 
    5800    242.92981   -337.40589    229018.04    -21215.48    1609.0116   -22824.491    18.722095   0.87555383 
    5900    234.82007   -369.45992    229018.04   -21239.576    1555.2978   -22794.874    19.160018   0.87555383 
    6000    231.63776   -305.01251    229018.04   -21326.813    1534.2203   -22861.033    19.304178   0.87555383 
    6100    230.45684   -219.33427    229018.04   -21317.328    1526.3986   -22843.727    19.544452   0.87555383 
    6200    229.66366   -193.82607    229018.04   -21299.837    1521.1451   -22820.982    19.898119   0.87555383 
    6300    234.12043   -224.33216    229018.04   -21257.388    1550.6639   -22808.052    20.672396   0.87555383 
    6400    231.21954   -294.95859    229018.04   -21243.074    1531.4502   -22774.525    20.512264   0.87555383 
    6500    231.83665   -328.89953    229018.04   -21256.372    1535.5376    -22791.91    20.677572   0.87555383 
    6600    234.88033   -255.31096    229018.04   -21293.195     1555.697   -22848.892     20.84994   0.87555383 
    6700    227.36975   -301.70013    229018.04   -21338.008    1505.9517    -22843.96    21.192373   0.87555383 
    6800    234.19506   -482.61978    229018.04   -21291.939    1551.1582   -22843.097    21.410372   0.87555383 
    6900    233.96393    -487.0768    229018.04   -21324.618    1549.6273   -22874.245    21.796933   0.87555383 
    7000    232.74352   -297.52724    229018.04   -21348.286    1541.5441   -22889.831    21.740625   0.87555383 
    7100    242.70042   -121.19813    229018.04   -21279.605    1607.4923   -22887.097    22.108875   0.87555383 
    7200    239.02151   -143.45826    229018.04   -21285.997    1583.1255   -22869.122    22.666299   0.87555383 
    7300    228.19635   -269.92313    229018.04   -21358.817    1511.4266   -22870.244    23.232493   0.87555383 
    7400    232.44255    -313.5259    229018.04   -21370.199    1539.5507   -22909.749    23.491298   0.87555383 
    7500     226.6443   -182.45204    229018.04    -21395.16    1501.1468   -22896.306    23.663871   0.87555383 
    7600    225.20752   -313.80396    229018.04   -21402.215    1491.6304   -22893.845    24.116024   0.87555383 
    7700    231.25054   -262.95822    229018.04   -21354.229    1531.6556   -22885.885    24.566779   0.87555383 
    7800    230.79752   -320.39147    229018.04   -21303.473    1528.6551   -22832.128    24.910445   0.87555383 
    7900    240.44789   -218.34886    229018.04   -21273.212    1592.5729   -22865.785    25.354447   0.87555383 
    8000    238.78532   -262.55018    229018.04   -21274.392    1581.5611   -22855.954    25.711354   0.87555383 
    8100    232.98129   -93.763039    229018.04   -21300.043     1543.119   -22843.162    26.002114   0.87555383 
    8200    225.49256   -197.23305    229018.04   -21327.691    1493.5184   -22821.209    26.290898   0.87555383 
    8300    228.42374   -192.00868    229018.04   -21334.595    1512.9327   -22847.528    26.467981   0.87555383 
    8400    225.39428   -319.23518    229018.04   -21335.239    1492.8675   -22828.106    26.906207   0.87555383 
    8500    226.79382    -375.3151    229018.04   -21324.564    1502.1371   -22826.701    27.463043   0.87555383 
    8600    233.55735   -210.96866    229018.04   -21268.306    1546.9344   -22815.241    27.708307   0.87555383 
    8700    232.80202   -202.70089    229018.04   -21330.575    1541.9316   -22872.506    27.848817   0.87555383 
    8800    229.53235   -322.27495    229018.04   -21275.003    1520.2754   -22795.278    27.969353   0.87555383 
    8900    235.60117   -263.34747    229018.04   -21288.293    1560.4714   -22848.764    28.376181   0.87555383 
    9000    233.85254   -176.46392    229018.04   -21245.882    1548.8896   -22794.772     28.73295   0.87555383 
    9100    240.24274   -244.26148    229018.04   -21229.018    1591.2141   -22820.232    28.762151   0.87555383 
    9200    236.35041   -262.02793    229018.04   -21284.672    1565.4339   -22850.105    29.246901   0.87555383 
    9300    232.11529   -267.51133    229018.04   -21324.576    1537.3831   -22861.959    29.603823   0.87555383 
    9400     233.5707    -274.5206    229018.04   -21351.695    1547.0228   -22898.718    30.070455   0.87555383 
    9500    231.29803   -298.43203    229018.04   -21310.615    1531.9701   -22842.585    30.264878   0.87555383 
    9600    225.39924   -161.48172    229018.04    -21363.29    1492.9003    -22856.19    30.592996   0.87555383 
    9700    229.25643   -236.13769    229018.04    -21309.28    1518.4479   -22827.728    31.146544   0.87555383 
    9800    232.56196    -326.2198    229018.04   -21321.315    1540.3415   -22861.656    30.990902   0.87555383 
    9900    235.87018   -136.41425    229018.04   -21272.109    1562.2531   -22834.362    31.115893   0.87555383 
   10000    239.10923    -354.1378    229018.04   -21207.257    1583.7065   -22790.963    31.423411   0.87555383 
Loop time of 54.832 on 60 procs for 10000 steps with 8943 atoms

Performance: 78.786 ns/day, 0.305 hours/ns, 182.375 timesteps/s
95.6% CPU use with 60 MPI tasks x no OpenMP threads

MPI task timing breakdown:
Section |  min time  |  avg time  |  max time  |%varavg| %total
---------------------------------------------------------------
Pair    | 0.00070119 | 8.2096     | 26.894     | 360.0 | 14.97
Neigh   | 0.002938   | 0.2549     | 0.79039    |  53.4 |  0.46
Comm    | 0.19705    | 12.166     | 29.203     | 311.1 | 22.19
Output  | 0.34468    | 0.34498    | 0.35188    |   0.2 |  0.63
Modify  | 2.1509     | 33.539     | 53.972     | 310.8 | 61.17
Other   |            | 0.3179     |            |       |  0.58

Nlocal:    149.05 ave 379 max 0 min
Histogram: 24 0 6 10 0 0 0 0 7 13
Nghost:    816.85 ave 1294 max 360 min
Histogram: 9 3 0 4 21 3 4 4 4 8
Neighs:    0 ave 0 max 0 min
Histogram: 60 0 0 0 0 0 0 0 0 0
FullNghs:  15014.3 ave 45228 max 0 min
Histogram: 27 13 0 0 0 0 0 2 10 8

Total # of neighbors = 900856
Ave neighs/atom = 100.733
Neighbor list builds = 564
Dangerous builds = 0
write_data 	    ${DIR}/data.${NAME}_eq
write_data 	    run_3/data.${NAME}_eq
write_data 	    run_3/data.ibeam_cooling_3_eq

undump              1
unfix               4



################################################
#######         Run Simulation         #########
################################################

reset_timestep      0
timestep	    10.0
log                 ${DIR}/log.run_${NAME}
log                 run_3/log.run_${NAME}
log                 run_3/log.run_ibeam_cooling_3
