
# Set production fixes - Nose/Hoover
#
fix                 4 water temp/csvr ${START_TEMP} ${END_TEMP} 500.0 928347
fix                 4 water temp/csvr 240 ${END_TEMP} 500.0 928347
fix                 4 water temp/csvr 240 227 500.0 928347


## divide "droplet" into core and surface
#region		core_reg cylinder z 135 135 44.6 20 INF units box
#region		surface_reg cylinder z 135 135 44.6 20 INF units box side out
#group		core dynamic all region core_reg
#group		surface dynamic all region surface_reg

## compute pressure core
#compute        peratom_core core stress/atom NULL
#compute        p_core core reduce sum c_peratom_core[1] c_peratom_core[2] c_peratom_core[3]
#variable       press_core equal -(c_p_core[1]+c_p_core[2]+c_p_core[3])/(3*1249982.5)


## compute pressure surface
#compute        peratom_surf surface stress/atom NULL
#compute        p_surf surface reduce sum c_peratom_surf[1] c_peratom_surf[2] #c_peratom_surf[3]
#variable       press_surf equal -(c_p_surf[1]+c_p_surf[2]+c_p_surf[3])/(3*42395)

## compute total pressure of drop
compute        peratom water stress/atom NULL
compute        p water reduce sum c_peratom[1] c_peratom[2] c_peratom[3]
variable       press equal -(c_p[1]+c_p[2]+c_p[3])/(3*50320)


# compute order parameter
compute        3 all orientorder/atom nnn NULL cutoff 3.5

# compute center of mass of bridge
compute 	4 water com

# Run simulation
thermo_style        custom step c_2 press vol etotal ke pe v_press c_1[4] c_4[*]
thermo              200
dump		     1 water custom 400 ${DIR}/prod.${NAME}.dump id type x y z vx vy vz c_3[*] c_peratom[*]
dump		     1 water custom 400 run_4/prod.${NAME}.dump id type x y z vx vy vz c_3[*] c_peratom[*]
dump		     1 water custom 400 run_4/prod.ibeam_cooling_4.dump id type x y z vx vy vz c_3[*] c_peratom[*]
run                 ${STEPS}
run                 5200000
Neighbor list info ...
  update every 1 steps, delay 0 steps, check yes
  max neighbors/atom: 2000, page size: 100000
  master list distance cutoff = 6.67472
  ghost atom cutoff = 6.67472
  binsize = 3.33736, bins = 48 13 11
  2 neighbor lists, perpetual/occasional/extra = 1 1 0
  (1) pair sw, perpetual
      attributes: full, newton on
      pair build: full/bin/atomonly
      stencil: full/bin/3d
      bin: standard
  (2) compute orientorder/atom, occasional, copy from (1)
      attributes: full, newton on
      pair build: copy
      stencil: none
      bin: none
Per MPI rank memory allocation (min/avg/max) = 0.8538 | 5.962 | 7.261 Mbytes
Step c_2 Press Volume TotEng KinEng PotEng v_press c_1[4] c_4[1] c_4[2] c_4[3] 
       0    236.87759   -302.95581    216009.12   -18669.926    1377.5759   -20047.502   -715.99035    33.359326    78.748342    22.599901     25.59353 
     200    241.53211   -437.23222    216009.12   -18716.335    1404.6446   -20120.979   -1259.4236    34.604222    78.749659    22.600513    25.583865 
     400     240.6574   -296.20403    216009.12   -18737.683    1399.5576    -20137.24   -720.64908    36.065709     78.74935    22.600754    25.590965 
     600    251.66762   -357.65209    216009.12   -18588.225    1463.5883   -20051.813   -978.90521    38.319852     78.75042    22.601858    25.572662 
     800    244.04076   -404.44642    216009.12    -18610.11    1419.2338   -20029.344   -1166.8409    38.652408    78.753279    22.603046    25.558415 
    1000    243.35753   -298.94387    216009.12   -18707.667    1415.2604   -20122.927   -653.91152    39.669673    78.754526    22.603095    25.570187 
    1200    241.37835   -442.82002    216009.12   -18613.097    1403.7504   -20016.847   -1292.1912    41.263306    78.756976    22.603545    25.559253 
    1400     236.8648   -93.881905    216009.12     -18598.3    1377.5015   -19975.802    159.44001    41.806223     78.75664    22.602834    25.502127 
    1600    250.99002   -185.45102    216009.12   -18619.632    1459.6476   -20079.279   -183.52372    43.908044    78.756023     22.60482    25.493794 
    1800    240.29861   -438.43832    216009.12   -18571.464    1397.4711   -19968.935   -1267.8209    45.594248    78.754416    22.606605    25.500505 
    2000    249.32378   -437.67964    216009.12   -18553.432    1449.9575    -20003.39   -1295.1996    46.919683    78.756352    22.607479    25.501856 
    2200    237.25735   -179.30755    216009.12   -18629.377    1379.7845   -20009.162   -216.51838    48.791624    78.760584    22.607834     25.49336 
    2400    244.10766   -176.33507    216009.12   -18611.899    1419.6228   -20031.522   -192.31177    49.828653    78.759185     22.60693    25.489492 
    2600    237.29581   -272.32196    216009.12   -18614.913    1380.0081   -19994.921   -565.58188    50.232615    78.760191    22.611138     25.48514 
    2800    246.18318   -217.39877    216009.12   -18532.704    1431.6932   -19964.398   -362.24134    51.782696    78.761845    22.613423    25.489157 
    3000    244.03082    -486.0916    216009.12   -18569.251     1419.176   -19988.427   -1517.1349     52.91329    78.763949    22.615735    25.488856 
    3200    233.99774   -295.69193    216009.12   -18619.679     1360.828   -19980.507   -679.51974    54.925639    78.766005    22.616469    25.493795 
    3400     242.6271   -167.37333    216009.12   -18604.671    1411.0126   -20015.683   -118.37675     57.13585     78.76704    22.616682    25.502862 
    3600    243.44549   -149.77204    216009.12   -18584.157    1415.7719   -19999.929   -31.504343    58.478724    78.769261    22.616347    25.540308 
    3800    243.23229   -254.25357    216009.12   -18586.018    1414.5321    -20000.55   -549.33769    59.282116    78.771127    22.618182    25.546007 
    4000    239.39579   -361.97845    216009.12   -18668.706    1392.2207   -20060.926   -956.63936    60.574575    78.773156    22.619917     25.56432 
    4200    241.70548   -284.47699    216009.12   -18586.735    1405.6528   -19992.388   -628.21301    62.573415     78.77333    22.619751      25.5735 
    4400    240.19734   -350.39458    216009.12   -18633.279    1396.8821   -20030.161   -907.17153    64.261564    78.773036     22.61779    25.571828 
    4600    235.19558   -488.88068    216009.12   -18693.762    1367.7941   -20061.556   -1501.3986     66.04309    78.774698    22.621137    25.575461 
    4800    247.93505   -251.48151    216009.12   -18595.326    1441.8813   -20037.207   -449.33601    67.054501    78.774617     22.62253    25.593699 
    5000    239.68018   -354.65922    216009.12   -18644.457    1393.8746   -20038.332   -894.41377    67.726825    78.775434     22.62392    25.606874 
    5200    234.77673   -343.16815    216009.12   -18649.691    1365.3583   -20015.049   -869.64489    69.416325    78.775108    22.622681    25.586487 
    5400    233.99532   -141.16955    216009.12   -18634.997    1360.8139   -19995.811   -11.184755    70.727241    78.773817     22.62305    25.602606 
    5600     233.3831   -340.43212    216009.12   -18665.519    1357.2535   -20022.773   -843.43222    72.358903    78.774549    22.622735    25.606824 
    5800    238.39308   -240.20162    216009.12    -18593.95    1386.3893    -19980.34   -417.26573    74.691899    78.775708     22.62192    25.605223 
    6000    236.33719   -222.16892    216009.12   -18681.619    1374.4332   -20056.052   -379.20434    77.186354    78.776428    22.621355     25.60651 
    6200    234.83408    -177.2033    216009.12   -18681.745    1365.6918   -20047.436   -186.04355    79.155036    78.778704    22.616093    25.609454 
    6400    238.39127   -281.95942    216009.12   -18675.339    1386.3788   -20061.718   -594.56498    80.223614    78.780324    22.615265    25.593653 
    6600    240.06113   -269.91068    216009.12   -18680.668      1396.09   -20076.758    -550.0245    79.563164    78.782106    22.616618    25.596021 
    6800    241.76783   -320.24051    216009.12   -18667.197    1406.0154   -20073.212   -726.04535    79.311833    78.783768    22.617206    25.591365 
    7000    241.79385   -264.86407    216009.12   -18664.717    1406.1668   -20070.884   -533.10696    80.880712    78.783261    22.619058    25.585142 
    7200    237.66862   -405.75354    216009.12   -18764.153    1382.1762   -20146.329   -1151.3932    82.229584    78.784554     22.61909    25.562554 
    7400    234.27721   -162.29919    216009.12   -18714.799    1362.4533   -20077.252   -116.52997    82.405049     78.78381    22.620219    25.558386 
    7600    241.68162    -292.3768    216009.12   -18634.755     1405.514   -20040.269   -659.02294    82.748107    78.783262    22.620706    25.555099 
    7800    227.57915   -233.88406    216009.12   -18738.554    1323.5003   -20062.054   -403.83726    83.577299    78.782578    22.620258    25.573545 
    8000    238.59349   -403.99593    216009.12   -18602.078    1387.5549   -19989.633   -1146.5487    83.278661     78.78268    22.618421    25.567444 
    8200    242.66533    -230.8012    216009.12   -18616.539    1411.2349   -20027.774   -387.40134    85.158418    78.780626    22.618243    25.540177 
    8400    245.66659   -327.24026    216009.12   -18562.185    1428.6889   -19990.874   -791.22776    86.215568    78.779888    22.620907    25.555721 
    8600    238.71067   -377.01085    216009.12   -18622.025    1388.2363   -20010.262   -1018.0824    87.720657    78.780698    22.622906    25.543385 
    8800    247.32232   -254.13076    216009.12   -18632.764    1438.3179   -20071.082    -493.1975    89.758055    78.778791    22.624601    25.559371 
    9000    237.73375   -249.95193    216009.12   -18629.783     1382.555   -20012.338   -511.07996    90.541367    78.778817    22.625288    25.556128 
    9200    242.99053   -325.98045    216009.12   -18608.552    1413.1261   -20021.678   -836.51153    92.347442    78.777361    22.623776    25.535169 
    9400    233.58563   -433.05544    216009.12   -18633.828    1358.4313    -19992.26   -1282.0652    92.326855    78.777174    22.621648    25.536695 
    9600     240.0139   -410.68939    216009.12   -18665.435    1395.8153   -20061.251   -1162.1111    92.815784    78.779342    22.620834    25.554004 
    9800    243.14263   -206.24948    216009.12   -18554.277    1414.0107   -19968.288   -298.45179    95.505308    78.778372    22.621032    25.544582 
   10000    234.21464   -396.74055    216009.12   -18609.392    1362.0894   -19971.481   -1100.6484    97.316315     78.77881    22.621991    25.536996 
   10200    245.63748   -230.40127    216009.12   -18517.065    1428.5196   -19945.585   -403.15992    97.329678     78.77997    22.622645    25.526298 
   10400    241.43109    -404.7098    216009.12    -18515.89    1404.0571   -19919.947   -1119.6555    98.823615    78.780246    22.623408    25.537826 
   10600    238.34996   -347.07244    216009.12   -18590.017    1386.1386   -19976.156    -922.1108    100.68197    78.779824    22.624499    25.561002 
   10800    235.50606   -345.18496    216009.12   -18623.037    1369.5997   -19992.636   -894.80024    103.18046    78.780783    22.626883    25.579228 
   11000    236.42147   -405.38533    216009.12   -18608.647    1374.9233    -19983.57   -1175.1061    105.27459    78.780702     22.62529    25.588927 
   11200    233.65186   -268.31739    216009.12   -18597.612    1358.8165   -19956.428   -587.16268    107.43178     78.78027    22.624351    25.589049 
   11400    242.80766   -504.67624    216009.12   -18578.513    1412.0626   -19990.576   -1567.4701    109.28207      78.7791    22.626095    25.592139 
   11600    239.29983   -316.91725    216009.12   -18496.418    1391.6626    -19888.08   -800.42076    109.35453    78.779615      22.6253    25.588976 
   11800    239.46325   -233.37738    216009.12   -18480.686     1392.613   -19873.299   -481.62269    111.13696    78.782181    22.625982    25.572559 
   12000    244.13316   -402.32317    216009.12   -18491.585    1419.7712   -19911.356   -1172.7197    112.97147    78.783502    22.624888    25.564704 
   12200    245.26941   -349.53865    216009.12   -18509.417    1426.3791   -19935.796   -926.79646    114.96749    78.784726    22.625799    25.536259 
   12400    245.91207   -236.80699    216009.12   -18548.465    1430.1165   -19978.582   -389.36783    115.01827    78.784415    22.625627    25.542979 
   12600    243.00012   -286.63208    216009.12   -18511.419    1413.1819   -19924.601   -644.78324    117.20807    78.784542    22.625295    25.519129 
   12800    233.95479   -427.27833    216009.12   -18575.282    1360.5782    -19935.86   -1244.4874    119.99931    78.784822    22.625504    25.513906 
   13000    236.09485     -390.584    216009.12   -18608.307    1373.0239   -19981.331   -1083.3106    120.75919    78.785178    22.625913    25.499835 
   13200    234.84049   -155.48511    216009.12   -18613.181     1365.729    -19978.91   -81.888137    121.16321    78.786587    22.626038    25.480196 
   13400    239.51152   -351.81001    216009.12    -18639.72    1392.8937   -20032.614      -973.03    122.19723    78.790157    22.625317    25.481621 
   13600    233.99443    -386.9311    216009.12   -18613.624    1360.8088   -19974.433   -1082.3566    123.60352    78.788431    22.627594    25.472276 
   13800    247.75682   -394.35415    216009.12   -18560.033    1440.8447   -20000.878   -1095.4154    125.84859    78.788958    22.628685    25.471134 
   14000    240.27142   -361.36441    216009.12   -18521.398     1397.313   -19918.711   -973.30658    127.69277    78.787917    22.627184    25.494865 
   14200     233.4817   -311.88962    216009.12   -18568.151     1357.827   -19925.978   -720.04251    129.31999    78.788919    22.624831    25.521919 
   14400    238.09525   -319.29402    216009.12   -18588.282    1384.6573   -19972.939   -765.78801    132.21404    78.790712    22.624665     25.53355 
   14600    242.34692   -400.97156    216009.12   -18582.469    1409.3832   -19991.852    -1106.399     134.5326    78.791127    22.624584    25.553477 
   14800    241.50263   -257.18487    216009.12   -18550.256    1404.4732    -19954.73   -521.83591    134.54573    78.790282    22.622468    25.559584 
   15000    242.31523   -502.37763    216009.12   -18556.335    1409.1989   -19965.534   -1596.5972    137.06661    78.790088    22.619779    25.579161 
   15200    238.50776   -310.12643    216009.12   -18568.196    1387.0563   -19955.252   -747.28756    138.43874    78.788502    22.618636    25.573937 
   15400    238.68434   -382.08611    216009.12   -18615.225    1388.0832   -20003.308   -1033.9366    140.98685    78.786686    22.620959    25.566515 
   15600    246.45732   -234.93141    216009.12   -18456.119    1433.2874   -19889.407      -396.56    143.60797    78.784996    22.621439    25.590629 
   15800    238.66647     -518.894    216009.12   -18492.556    1387.9793   -19880.535   -1661.6738    144.60426    78.786744    22.621263    25.600397 
   16000    243.20224   -299.51662    216009.12   -18515.361    1414.3573   -19929.718   -696.25798    144.36181    78.785893    22.621926    25.580126 
   16200    239.06579   -322.32601    216009.12   -18493.159    1390.3015    -19883.46   -763.52783    146.27361    78.784496    22.622715    25.589729 
   16400    241.12722   -321.60627    216009.12   -18532.692    1402.2899   -19934.982   -812.20997    147.37891    78.784189    22.622187    25.621279 
   16600    243.52259   -312.51816    216009.12   -18475.501    1416.2203   -19891.721   -758.06517    150.27172    78.784691    22.621337    25.611347 
   16800    237.49639   -405.80221    216009.12   -18524.031    1381.1746   -19905.206   -1191.6155    151.37447    78.784558    22.621702    25.608964 
   17000    241.08455   -317.27403    216009.12   -18596.824    1402.0418   -19998.865   -768.28628    152.06876     78.78334    22.621525    25.594866 
   17200    244.63156   -367.72993    216009.12   -18573.964    1422.6696   -19996.634   -969.92544    152.01506     78.78184    22.620762      25.5858 
   17400    238.97525   -187.28876    216009.12   -18606.535     1389.775    -19996.31    -158.8792    153.46051    78.782262    22.620418    25.567483 
   17600    238.33924   -278.40255    216009.12    -18563.73    1386.0762   -19949.806   -581.20976    154.96811    78.782482    22.621521    25.557998 
   17800    237.66071   -80.305536    216009.12   -18595.084    1382.1302   -19977.214    279.38748    155.07019    78.780962    22.621904    25.556811 
   18000    235.85985   -246.40776    216009.12   -18575.223    1371.6572    -19946.88   -466.31682    157.17974    78.782953    22.624444    25.565074 
   18200    229.73417   -367.78409    216009.12   -18601.138    1336.0329   -19937.171   -912.16992    159.44819    78.782195     22.62604     25.57409 
   18400    242.21707   -286.39069    216009.12    -18574.86     1408.628   -19983.488   -631.29968    159.67373    78.783429    22.629989    25.578625 
   18600    234.72901   -411.35452    216009.12    -18525.66    1365.0807    -19890.74    -1175.452    161.47555    78.784751    22.630858       25.554 
   18800    237.14352   -353.50531    216009.12   -18590.721    1379.1225   -19969.843   -862.51476    162.52474    78.785404    22.630957    25.543904 
   19000    247.61397   -302.94246    216009.12   -18515.927     1440.014   -19955.941   -695.46466    162.82242    78.786642    22.632506    25.532826 
   19200    236.98044   -387.75052    216009.12   -18558.516    1378.1741    -19936.69   -1078.7793    165.48673    78.788363    22.632987    25.540036 
   19400    249.32653   -353.01948    216009.12   -18528.613    1449.9735   -19978.587   -883.24318    165.93498    78.787898    22.632785    25.509145 
   19600    243.49892   -325.13105    216009.12   -18541.587    1416.0827   -19957.669   -813.38362    168.85994    78.787037    22.634077    25.511093 
   19800    239.39692   -369.86129    216009.12   -18542.865    1392.2273   -19935.092    -981.0675    170.50867    78.785953    22.631482    25.506964 
   20000    243.36161   -119.17628    216009.12   -18560.462    1415.2842   -19975.746    74.866507    171.82423    78.786034    22.629947     25.50828 
   20200    244.42019   -351.84703    216009.12   -18637.293    1421.4404   -20058.733   -902.92306    174.35148    78.782825     22.62959    25.527392 
   20400    240.68723   -227.53128    216009.12   -18551.278    1399.7311   -19951.009   -421.11464    176.24068    78.783995     22.62906    25.497165 
   20600    237.19178   -228.17573    216009.12   -18617.441    1379.4031   -19996.844    -412.1605    176.46104    78.783052    22.629015    25.509262 
   20800    241.78344   -373.08919    216009.12   -18541.699    1406.1062   -19947.805   -1010.6003    178.81007    78.782676     22.62905    25.519604 
   21000    238.44661   -319.70038    216009.12   -18571.827    1386.7006   -19958.527   -743.44911    179.42751    78.780976    22.627989    25.519105 
   21200    242.88009   -414.39953    216009.12    -18530.34    1412.4838   -19942.824   -1180.0553    181.28377    78.781456    22.627339    25.513463 
   21400    240.63819   -391.21826    216009.12   -18549.558    1399.4459   -19949.004   -1070.5392     183.6423    78.781219    22.627721    25.499406 
   21600    244.36149   -357.05819    216009.12   -18453.441     1421.099    -19874.54   -948.37469    185.38011    78.780215     22.62872    25.486791 
   21800     241.8667   -277.64262    216009.12   -18552.974    1406.5904   -19959.565   -633.77443    185.40574    78.779744    22.626982    25.522823 
   22000      233.982   -306.19017    216009.12   -18567.537    1360.7365   -19928.274   -717.25148    187.80302    78.779594    22.628418    25.539063 
   22200    226.96952   -375.73641    216009.12    -18582.48    1319.9549   -19902.434   -992.04687    190.80438    78.780968    22.626865    25.534939 
   22400    239.80286   -262.97524    216009.12   -18478.826     1394.588   -19873.414   -512.26868    191.03869    78.781822    22.629299    25.535957 
   22600    243.01031    -379.6723    216009.12   -18527.502    1413.2412   -19940.743    -1016.175    192.10138    78.781456    22.628835    25.508285 
   22800    241.96911    -499.4776    216009.12   -18523.486     1407.186   -19930.672   -1513.8615    193.68353    78.781284    22.628355    25.503998 
   23000    233.20316   -337.41334    216009.12   -18596.801    1356.2071   -19953.008   -876.26511    193.29276    78.781317    22.628155     25.50414 
   23200    247.17175   -267.93687    216009.12   -18547.882    1437.4422   -19985.325   -552.95807    191.55033    78.782088    22.628315    25.519295 
   23400    234.36614    -389.3048    216009.12    -18565.63    1362.9704     -19928.6   -1092.0028    193.14419    78.783098    22.629621    25.525714 
   23600    246.22343   -422.10328    216009.12   -18488.482    1431.9272   -19920.409   -1184.0311    193.59747    78.784973    22.629701    25.526802 
   23800    238.71647   -462.91887    216009.12   -18529.489      1388.27   -19917.759     -1408.18    195.62132    78.784024    22.630147     25.53518 
   24000    243.99502   -201.14931    216009.12   -18567.466    1418.9678   -19986.433   -291.90521     198.4175    78.785289    22.628957    25.502317 
   24200    235.21622    -458.8371    216009.12    -18554.77    1367.9141   -19922.684    -1425.459     201.8724    78.785009     22.62963     25.52259 
   24400    234.98873     -434.168    216009.12   -18574.168    1366.5911    -19940.76   -1268.0065    204.93774    78.785558    22.627893    25.523753 
   24600    234.68347   -425.72563    216009.12   -18593.175    1364.8159   -19957.991   -1237.9747    205.54181    78.787575    22.627421    25.499457 
   24800     236.7207   -307.10832    216009.12   -18580.927    1376.6635   -19957.591   -791.11442    206.39381    78.785441    22.627628    25.474977 
   25000    238.10765    -306.0789    216009.12   -18572.678    1384.7294   -19957.407   -764.88308    208.96194    78.783348    22.627645    25.467939 
   25200    235.33691   -232.66373    216009.12   -18681.531     1368.616   -20050.147   -406.30566    209.55958    78.783699     22.62966    25.456644 
   25400    239.17215   -332.26438    216009.12   -18590.916    1390.9201   -19981.836   -878.59545     210.0155    78.785102    22.628112    25.455112 
   25600    254.27955   -237.66673    216009.12    -18458.79    1478.7781   -19937.568   -471.28985    210.76869    78.786836    22.626404    25.478164 
   25800    244.30101   -402.14064    216009.12   -18502.136    1420.7473   -19922.883   -1169.6343    211.80742    78.787472    22.626071    25.458926 
   26000    239.97104   -320.09089    216009.12   -18513.791    1395.5661   -19909.357   -800.63007    212.58354    78.788794    22.626127    25.479335 
   26200    236.59971   -231.22929    216009.12   -18556.713    1375.9599   -19932.673   -444.00921    213.90154    78.788884    22.625921     25.49866 
   26400     238.7799    -371.9088    216009.12   -18577.776    1388.6389   -19966.415   -1010.6307    216.01431    78.788056     22.62437    25.530847 
   26600    243.37161   -251.25819    216009.12   -18513.499    1415.3423   -19928.842   -510.75333    217.37591    78.789585    22.628212    25.567515 
   26800    241.22403   -36.382912    216009.12   -18549.756    1402.8529   -19952.609     403.4534    220.26338    78.788235    22.629399    25.580525 
   27000    249.87399   -210.36253    216009.12   -18487.606    1453.1573   -19940.764   -334.13945    218.81396    78.785521    22.629321    25.571421 
   27200    245.18538   -313.70961    216009.12   -18535.089    1425.8904   -19960.979   -772.08744    217.88152    78.784686    22.625919    25.561586 
   27400    241.98809   -311.19825    216009.12   -18490.829    1407.2964   -19898.125   -750.60987    219.06205    78.784339    22.623992    25.546948 
   27600    233.37344   -299.48631    216009.12   -18642.375    1357.1973   -19999.573   -732.02511    219.60822    78.782832    22.622887    25.549614 
   27800    240.01221    -280.6469    216009.12   -18540.995    1395.8055     -19936.8   -639.90747    221.07288    78.782957    22.622624     25.55559 
   28000    245.08296   -59.531162    216009.12   -18613.717    1425.2947   -20039.012    305.24717    222.62081    78.784732     22.62087    25.549305 
   28200    243.75393   -287.08485    216009.12   -18632.174    1417.5657    -20049.74   -650.82928    224.96712    78.784098    22.622704    25.553777 
   28400    236.48944   -361.27987    216009.12    -18644.35    1375.3186   -20019.668   -953.29126    226.67564    78.785063    22.622256    25.559771 
   28600    241.10574   -353.01435    216009.12   -18626.638     1402.165   -20028.803   -929.04181    228.61892    78.786013    22.621965    25.564381 
   28800    239.57481   -328.96196    216009.12   -18633.427    1393.2618   -20026.688   -852.80161    229.29276     78.78452    22.620342    25.569512 
   29000    241.27252   -321.96868    216009.12   -18619.746    1403.1349   -20022.881   -801.11713    228.86806     78.78661    22.619589    25.559596 
   29200    239.03456    -363.4266    216009.12   -18575.578    1390.1199   -19965.698    -973.7121    230.44691    78.786661     22.62211    25.566745 
   29400    245.78042    -279.1816    216009.12   -18593.367    1429.3509   -20022.718   -613.47958    232.80583    78.784866    22.622492    25.578794 
   29600    239.99528   -276.46649    216009.12   -18610.094    1395.7071   -20005.802   -589.62591    233.66553    78.786207    22.621069    25.587882 
   29800    230.90371   -245.83901    216009.12   -18661.675    1342.8345    -20004.51   -461.83165    235.88476    78.786306    22.621082    25.596504 
   30000    234.48111   -226.96774    216009.12   -18678.239     1363.639   -20041.878   -362.82693    236.32158    78.787211    22.619386    25.605931 
   30200    241.43818   -224.36903    216009.12   -18638.143    1404.0983   -20042.241    -412.9813    238.70511     78.78506    22.618798    25.621832 
   30400    238.42796   -360.94964    216009.12   -18630.022    1386.5922   -20016.614   -994.77369    240.68064    78.782715    22.619904    25.623285 
   30600    238.25356   -436.08865    216009.12   -18687.292     1385.578    -20072.87   -1287.5638    241.79545    78.783126    22.618837     25.61478 
   30800    236.25941   -433.01402    216009.12   -18613.662    1373.9809   -19987.643   -1233.2563    242.98154    78.783444    22.618585    25.609812 
   31000    242.44539   -267.10374    216009.12   -18595.213    1409.9558   -20005.169    -537.5173    243.25368    78.782215    22.617975    25.603238 
   31200    241.51546   -389.14749    216009.12   -18568.248    1404.5477   -19972.796   -1072.3541      244.385    78.783268    22.618426     25.60906 
   31400    237.88849   -266.48583    216009.12   -18575.771    1383.4549   -19959.226    -585.8371    245.59292    78.782745    22.621391    25.591383 
   31600    237.25426   -393.47751    216009.12   -18622.572    1379.7665   -20002.339   -1129.9809    245.53176    78.784683    22.619487    25.580761 
   31800    233.55843   -241.61027    216009.12   -18544.046    1358.2731   -19902.319   -481.91468    245.66822    78.788111    22.621364    25.564056 
   32000    242.16283   -224.62969    216009.12   -18688.338    1408.3125    -20096.65   -370.39026    245.97226    78.791034    22.621612    25.556712 
   32200    234.80407   -359.15997    216009.12   -18652.217    1365.5173   -20017.735   -937.52214    246.14597    78.791194    22.621705    25.543933 
   32400    237.84879   -303.59724    216009.12   -18638.422     1383.224   -20021.646   -723.20805    246.55559     78.79038    22.621538    25.560446 
   32600    249.43132   -303.73148    216009.12   -18576.645    1450.5829   -20027.227   -699.61962    248.08581    78.789269    22.620919    25.583196 
   32800    245.10439   -199.71524    216009.12   -18586.411    1425.4194   -20011.831   -272.95147    248.27454    78.788436    22.618271    25.607758 
   33000    247.48302   -150.02146    216009.12   -18545.021    1439.2525   -19984.273   -114.59374    249.82839    78.783871    22.616837    25.627438 
   33200    232.34365   -245.32568    216009.12     -18548.2    1351.2085   -19899.408   -462.86325    251.03674    78.784334    22.612824    25.620265 
   33400    238.89936    -192.0781    216009.12   -18625.823    1389.3337   -20015.157   -243.88271    253.24856       78.786    22.613339    25.588066 
   33600    237.53239   -378.10894    216009.12   -18669.578     1381.384   -20050.962   -1001.9454    255.78872    78.785606    22.614507    25.565495 
   33800    243.93464   -508.72037    216009.12   -18505.662    1418.6166   -19924.279   -1602.9439    258.83393    78.785068    22.613746    25.558009 
   34000    238.92561   -380.00596    216009.12   -18604.572    1389.4863   -19994.058   -1078.3322     259.3728    78.785311    22.612359    25.566076 
   34200    237.32835   -378.62302    216009.12   -18586.639    1380.1974   -19966.837   -1037.5164     260.6519    78.785404    22.613957    25.532222 
   34400    229.09455   -367.78275    216009.12   -18644.161    1332.3132   -19976.474   -1032.0054    261.23001    78.786211    22.613333    25.529282 
   34600    239.70099   -363.83488    216009.12   -18514.997    1393.9956   -19908.993   -1017.0827    263.60223    78.787197    22.612761    25.539954 
   34800    235.45669    -158.6031    216009.12    -18591.69    1369.3126   -19961.003   -127.00027    264.54964    78.786697    22.609034    25.544804 
   35000    238.79635   -491.58572    216009.12   -18609.126    1388.7346    -19997.86   -1546.7948     265.2364    78.790914    22.608533    25.550528 
   35200    249.57514   -134.33986    216009.12   -18550.869    1451.4193   -20002.288    5.8472161     265.1589    78.791498    22.611118    25.554989 
   35400    248.46292   -312.14891    216009.12   -18571.403    1444.9511   -20016.354   -765.81504    265.45872    78.790686    22.613363    25.549969 
   35600    241.10562   -141.41451    216009.12   -18576.883    1402.1643   -19979.048   -45.841037    266.21273    78.789366    22.616537    25.544145 
   35800    248.64674   -355.74215    216009.12   -18503.685    1446.0202   -19949.706   -910.39393    268.19508    78.790451    22.615716    25.549046 
   36000    236.55367   -232.95053    216009.12   -18621.325    1375.6922   -19997.017   -388.89377    269.50805    78.788232    22.614903    25.553379 
   36200    236.24825   -390.71322    216009.12   -18588.076     1373.916   -19961.992   -1090.7961    269.57474    78.787922    22.611518    25.543366 
   36400    246.17605   -316.52874    216009.12   -18585.133    1431.6517   -20016.785   -750.06133    269.96245    78.788993    22.610827    25.513798 
   36600    238.98043   -303.08245    216009.12   -18564.803    1389.8051   -19954.608   -725.91836    272.89603    78.786887    22.610537    25.540369 
   36800    238.15593   -267.50324    216009.12   -18646.914    1385.0102   -20031.924   -592.30837    275.11649    78.786462     22.60916    25.548581 
   37000    241.03601   -348.70823    216009.12   -18612.862    1401.7595   -20014.621   -850.94334    277.26994    78.786569    22.609599    25.574181 
   37200    239.44458   -439.66145    216009.12   -18631.459    1392.5044   -20023.963   -1287.7651    278.71784    78.786083    22.608678    25.567111 
   37400    239.69357   -227.94751    216009.12   -18610.607    1393.9524   -20004.559   -420.53403     279.5841    78.784775    22.605936    25.565151 
   37600     233.8687   -279.47783    216009.12   -18633.216    1360.0776   -19993.293    -582.4165    280.00006    78.781588     22.60537    25.565362 
   37800    232.54592   -247.33859    216009.12   -18670.037    1352.3848   -20022.422   -469.70868     278.8218     78.78151     22.60313     25.58838 
   38000    240.63922   -207.16524    216009.12   -18574.405    1399.4519   -19973.857   -335.91265    279.21297    78.781837    22.603649    25.578604 
   38200    239.17783   -346.79518    216009.12   -18594.717    1390.9531    -19985.67   -929.47621    281.66812     78.78242    22.605132    25.572386 
   38400    242.80269   -236.43206    216009.12   -18547.505    1412.0337   -19959.539   -436.31665    279.90166     78.78243    22.601154    25.607746 
   38600    239.82766   -254.15554    216009.12   -18580.821    1394.7323   -19975.553   -473.80595    279.34068    78.783918    22.598355      25.6079 
   38800    233.63592   -443.85599    216009.12   -18568.691    1358.7238   -19927.415   -1306.3143    282.45591    78.783178    22.597677    25.619511 
   39000    242.83979   -255.14169    216009.12   -18533.756    1412.2495   -19946.006   -539.14012    282.17874    78.779689     22.59709    25.603787 
   39200     236.2179   -335.57705    216009.12   -18653.846    1373.7395   -20027.585   -862.98758    284.07799    78.779584    22.596125    25.573724 
   39400    239.99967   -315.16712    216009.12   -18602.591    1395.7326   -19998.323   -794.48042    285.09322     78.77897    22.596682    25.565863 
   39600    244.03287   -214.19687    216009.12   -18565.022    1419.1879    -19984.21   -325.11562    286.74434    78.780097    22.596751    25.599017 
   39800    239.74123    -338.8717    216009.12   -18606.745    1394.2296   -20000.975   -853.64253    287.84643     78.77962    22.596872    25.590714 
   40000    239.64467   -325.84962    216009.12   -18567.005    1393.6681   -19960.673   -844.48592    287.62423    78.777799     22.59595    25.580962 
   40200    240.03245   -412.36885    216009.12   -18601.491    1395.9232   -19997.415   -1158.6157    287.53135    78.777426    22.595519    25.555293 
   40400    239.28333   -196.40849    216009.12   -18629.207    1391.5667   -20020.773   -247.02908    289.56683    78.779954    22.593963    25.525434 
   40600    241.73308   -272.05503    216009.12   -18540.641    1405.8133   -19946.454   -600.11277    289.63116    78.780707    22.593269    25.522066 
   40800    239.96686   -324.65464    216009.12   -18618.837    1395.5417   -20014.379   -825.61584    291.46511    78.780725    22.594143    25.541517 
   41000    240.85956   -325.26962    216009.12   -18542.585    1400.7333   -19943.319   -824.68783    291.77341    78.780482    22.591206    25.529401 
   41200    250.67763   -124.05358    216009.12   -18469.705    1457.8309   -19927.536    33.074003    291.84244    78.777954    22.588093    25.536226 
   41400    240.77358   -261.43827    216009.12   -18522.331    1400.2333   -19922.564   -523.25084    292.78873    78.774921      22.5866      25.5101 
   41600    241.42211    -370.1299    216009.12    -18549.64    1404.0049   -19953.645   -1051.4097    293.02744    78.773925    22.587504    25.537631 
   41800    242.96949   -361.53267    216009.12   -18567.083    1413.0037   -19980.087   -962.56622    292.88539    78.774149    22.585103    25.544856 
   42000    239.19675   -368.43201    216009.12   -18605.462    1391.0632   -19996.525   -981.19757    293.57801    78.772699    22.583463    25.594246 
   42200    240.44803   -291.01321    216009.12   -18646.983      1398.34   -20045.323   -692.56201    295.79467    78.772785    22.585908      25.5977 
   42400    238.25435   -257.56653    216009.12   -18592.896    1385.5825   -19978.479   -510.20018    297.70723    78.771912    22.586618    25.583076 
   42600    232.67991   -253.80423    216009.12   -18632.539    1353.1641   -19985.703     -508.309    298.93539    78.774479    22.586634    25.582297 
   42800    237.44507   -433.67641    216009.12   -18572.402    1380.8762   -19953.278   -1263.1142    300.47555    78.776133    22.589673    25.591772 
   43000    239.83946   -222.11851    216009.12   -18571.541    1394.8009   -19966.342    -426.7744    301.00567    78.776947    22.588941    25.577937 
   43200    240.10111   -322.76991    216009.12   -18560.593    1396.3225   -19956.915   -830.55889    303.04584    78.777414     22.58815    25.583252 
   43400    240.12063   -518.74913    216009.12    -18575.71     1396.436   -19972.146   -1634.7438    305.28626    78.778025    22.588114    25.601139 
   43600    237.64131    -261.4852    216009.12   -18582.735    1382.0174   -19964.753   -516.88851    307.10088     78.77484    22.588593    25.584878 
   43800    237.95167   -475.68712    216009.12   -18602.852    1383.8223   -19986.675    -1421.072    308.03813    78.776094    22.589161    25.593275 
   44000    232.25375   -181.24047    216009.12   -18618.713    1350.6857   -19969.398   -181.67301    308.77758    78.772786     22.58759    25.601219 
   44200     241.0397   -413.69661    216009.12    -18570.97    1401.7809   -19972.751   -1190.4191    310.84587    78.769961    22.586561    25.610209 
   44400    238.33169   -396.27009    216009.12   -18613.435    1386.0324   -19999.468   -1066.8982    311.49599    78.769811    22.584289    25.609631 
   44600     234.5586   -325.69972    216009.12   -18653.494    1364.0897   -20017.584   -793.06663    313.92952    78.767273    22.583362    25.605867 
   44800    236.91224   -231.51296    216009.12   -18642.054    1377.7775   -20019.831   -378.01117    314.68353     78.76601    22.579392    25.612429 
   45000    239.46022    -473.0077    216009.12   -18612.868    1392.5954   -20005.463   -1437.1467      316.087    78.766215    22.579108    25.601045 
   45200    234.49008   -372.99823    216009.12   -18522.308    1363.6913       -19886   -1021.7138    317.88733    78.767057    22.578857    25.606625 
   45400    239.07159   -253.34483    216009.12   -18584.415    1390.3352    -19974.75   -475.23678    320.06176    78.768004    22.581677    25.642376 
   45600    247.83378   -170.22452    216009.12   -18526.313    1441.2923   -19967.605   -175.38786    319.94296    78.769753    22.581702    25.633922 
   45800    241.07427   -275.70989    216009.12   -18561.295     1401.982   -19963.277   -588.21382    320.50183    78.770419    22.581027    25.615837 
   46000    240.92433   -439.39699    216009.12   -18508.538      1401.11   -19909.648   -1302.8141    321.37997    78.769247    22.580722    25.589921 
   46200    242.16907   -152.39725    216009.12   -18496.264    1408.3489   -19904.613   -96.537425     324.0082    78.769528    22.578139    25.598741 
   46400    238.46128   -454.27313    216009.12   -18542.907     1386.786   -19929.693   -1335.2434    326.41105    78.771646    22.575443    25.567815 
   46600    239.33312   -145.21412    216009.12   -18549.385    1391.8562   -19941.241   -44.099463    327.46358    78.772509    22.574436    25.564009 
   46800    245.74129   -298.42889    216009.12   -18544.382    1429.1233   -19973.505   -691.82092    329.58258    78.772376      22.5737    25.571191 
   47000    243.00697   -243.79584    216009.12   -18535.094    1413.2217   -19948.316   -465.76713    332.00136    78.772295    22.573194    25.597801 
   47200    237.17778   -411.70287    216009.12   -18631.573    1379.3217   -20010.895    -1171.513    331.48971    78.770703    22.571386    25.599551 
   47400    239.26132   -166.02469    216009.12    -18569.08    1391.4387   -19960.519    -115.3268    332.14109    78.770627    22.572851    25.581415 
   47600    237.12619   -301.05828    216009.12   -18588.666    1379.0217   -19967.687   -710.37698    332.61151     78.77007    22.572193    25.581409 
   47800    241.76888   -426.10583    216009.12   -18532.383    1406.0215   -19938.405   -1227.4737    333.72621    78.767247     22.57236     25.57985 
   48000    235.02258   -400.96471    216009.12   -18563.104     1366.788   -19929.892   -1110.4493    334.09969     78.76683    22.570804    25.567596 
   48200    240.49632   -449.08476    216009.12   -18589.761    1398.6209   -19988.381   -1353.4844    335.51421    78.768053    22.571631    25.568145 
   48400    234.86938   -489.87931    216009.12   -18600.958    1365.8971   -19966.855   -1510.1609    337.73407    78.767952    22.571425    25.553245 
   48600    235.04641   -305.79226    216009.12   -18670.687    1366.9266   -20037.614   -733.96766      338.622    78.766459    22.569709    25.530178 
   48800    237.40143   -381.46146    216009.12    -18635.21    1380.6224   -20015.833   -1068.8324     341.6242    78.765986    22.569717    25.522388 
   49000    235.71959   -267.61225    216009.12    -18601.09    1370.8415   -19971.932   -559.03154     343.6676    78.767293     22.56961    25.516005 
   49200    242.83392    -308.0716    216009.12   -18579.961    1412.2153   -19992.176    -744.6404    344.08185    78.766701    22.568702     25.52201 
   49400     243.0601   -355.32897    216009.12   -18620.799    1413.5307    -20034.33   -915.46325    344.73937    78.768087    22.568138    25.544159 
   49600    233.41958    -422.6525    216009.12   -18579.118    1357.4657   -19936.583   -1261.7238    344.24079    78.770684    22.568676    25.521654 
   49800    236.00095   -228.94201    216009.12   -18546.371    1372.4778   -19918.849   -399.23478    346.02211    78.771434    22.569005    25.538598 
   50000    242.65235   -288.26274    216009.12   -18588.055    1411.1594   -19999.215   -634.06695    347.71969    78.772912    22.568387    25.535325 
   50200    242.38692   -191.59644    216009.12   -18558.035    1409.6158   -19967.651   -255.80833    349.46926    78.771304    22.566176    25.524605 
   50400    242.67323   -339.10792    216009.12   -18559.232    1411.2808   -19970.513   -880.90357    350.16894    78.771378    22.565512    25.503488 
   50600    248.42534   -243.54777    216009.12   -18482.172    1444.7326   -19926.904     -459.067    349.14449    78.772784    22.566883    25.505812 
   50800    237.08755   -390.46902    216009.12   -18652.918     1378.797   -20031.715   -1050.6449    350.75368    78.772494    22.567178    25.487778 
   51000    249.00794   -349.92857    216009.12   -18596.707    1448.1207   -20044.827   -885.41833    351.62217    78.771456    22.566538    25.494389 
   51200    240.33195   -280.20111    216009.12   -18626.165     1397.665    -20023.83   -620.73753    352.54901     78.77047    22.563917    25.485735 
   51400    241.21926   -254.92162    216009.12   -18601.967    1402.8251   -20004.792   -524.48637    353.71714    78.769136    22.560929    25.493174 
   51600    233.88422   -222.52521    216009.12   -18644.868    1360.1678   -20005.036   -409.26413    354.32386    78.770293    22.559994    25.492764 
   51800    241.78428   -306.02016    216009.12   -18586.965    1406.1111   -19993.076   -679.13975    355.62835    78.770963    22.559359    25.468435 
   52000     238.3687   -401.61361    216009.12   -18671.046    1386.2475   -20057.293   -1156.6806    356.62524    78.770635    22.558715     25.46264 
   52200    234.82207   -276.42215    216009.12   -18669.864     1365.622   -20035.486    -535.6623    358.44544    78.771242    22.558898    25.453776 
   52400    229.13664   -274.06462    216009.12   -18667.368     1332.558   -19999.926   -555.38954     360.0347    78.772985    22.556023    25.441741 
   52600     237.2025   -365.41763    216009.12   -18598.971    1379.4655   -19978.437   -1005.4318     360.8171    78.772642    22.555974    25.446059 
   52800     244.3116   -403.27616    216009.12   -18566.494    1420.8089   -19987.303   -1164.4936    362.58611    78.772019    22.555539    25.457439 
   53000     240.7659   -294.87786    216009.12   -18540.772    1400.1886    -19940.96   -740.49841    363.69381    78.770988    22.555538    25.459401 
   53200    237.28983   -279.72844    216009.12   -18611.533    1379.9734   -19991.506   -589.19477    363.41764    78.770944     22.55787    25.454458 
   53400     235.6365   -287.90048    216009.12   -18590.537    1370.3583   -19960.896   -671.10012     365.9906    78.772055    22.558908     25.42947 
   53600    232.83395   -322.79595    216009.12   -18660.255    1354.0599   -20014.315   -784.78246    366.14611    78.771542    22.561821    25.454799 
   53800    235.86158    -528.5706    216009.12   -18630.071    1371.6672   -20001.739   -1646.4011    366.71021    78.770131    22.560915     25.47748 
   54000    237.07176   -206.56838    216009.12   -18580.235    1378.7052    -19958.94   -270.59528    366.84312    78.769555    22.558439    25.509435 
   54200    240.23739   -394.50521    216009.12    -18549.89     1397.115   -19947.005   -1113.3942    366.11706     78.76955    22.556327    25.497667 
   54400    246.06778   -219.13396    216009.12   -18486.245     1431.022   -19917.267   -348.61578    366.33466    78.771708      22.5584    25.499656 
   54600    244.81792   -350.17841    216009.12    -18510.23    1423.7534   -19933.983   -924.14775    369.99407    78.772627    22.558806    25.521335 
   54800    237.65992   -358.19987    216009.12   -18505.121    1382.1256   -19887.247   -1008.6027    371.48313    78.771612    22.559178    25.515392 
   55000    249.22936   -224.68961    216009.12   -18491.253    1449.4084   -19940.662   -407.53199    372.59717    78.772107    22.556417    25.524636 
   55200    233.80543   -470.64035    216009.12   -18647.894    1359.7096   -20007.604   -1394.7154    372.84719    78.772803    22.557719    25.526802 
   55400    242.23212   -205.91473    216009.12   -18595.684    1408.7155   -20004.399    -309.2321    376.02219     78.77261    22.555707    25.542218 
   55600     242.2486   -355.03036    216009.12   -18578.018    1408.8114    -19986.83     -964.587    377.21828     78.77428    22.557931    25.543174 
   55800    247.14389   -328.81763    216009.12   -18481.648    1437.2802   -19918.929   -825.00117    379.95534    78.777364    22.558313    25.553361 
   56000    244.46152   -320.22224    216009.12   -18552.152    1421.6807   -19973.833   -805.29199    378.94429    78.778422    22.557714    25.568893 
   56200    247.91008   -444.66677    216009.12    -18544.17     1441.736   -19985.906   -1310.3373    380.15247    78.780402     22.55739    25.602427 
   56400    240.95175   -302.08971    216009.12   -18634.846    1401.2694   -20036.116   -707.31938    381.58439    78.781151    22.556477    25.608416 
   56600    232.63193   -277.16793    216009.12   -18692.646    1352.8851   -20045.531   -620.34171    380.67834    78.781849    22.555182    25.593173 
   56800    234.69693   -265.69654    216009.12   -18606.725    1364.8942   -19971.619   -542.45411    383.93663    78.784063    22.555512    25.596413 
   57000     231.9323   -325.42447    216009.12    -18653.71    1348.8163   -20002.527   -782.12542     385.2281    78.784344    22.556225    25.599375 
   57200     242.2606   -332.08019    216009.12   -18575.978    1408.8812   -19984.859   -794.44174     385.7567    78.783684    22.556596    25.601294 
   57400    236.02302   -405.48685    216009.12   -18627.089    1372.6061   -19999.695   -1170.0243    387.48069    78.782493    22.558539    25.615435 
   57600    237.53373   -480.08557    216009.12   -18682.443    1381.3918   -20063.834   -1473.7855    389.52329    78.783842    22.557307    25.631326 
   57800     244.7974    -279.1015    216009.12    -18613.45     1423.634   -20037.084   -633.52539    389.21485    78.785093    22.558081    25.625759 
   58000    241.26822   -332.94205    216009.12    -18602.47    1403.1099    -20005.58   -850.75076    390.11478    78.786555    22.554845    25.626435 
   58200    242.62266   -348.35217    216009.12   -18547.815    1410.9868   -19958.802    -924.7444    391.24331    78.787112    22.553548     25.63517 
   58400    240.72944    -354.9912    216009.12    -18604.33    1399.9766   -20004.306   -959.59374    393.12614     78.78884    22.554355    25.638431 
   58600    233.94917   -332.49847    216009.12   -18662.997    1360.5455   -20023.542   -839.72796    396.82702    78.789262    22.552679    25.658168 
   58800    240.31006   -222.82767    216009.12   -18612.246    1397.5376   -20009.784   -360.16409    395.69044    78.788832    22.552707    25.653698 
   59000    240.61402   -274.51968    216009.12   -18551.586    1399.3054   -19950.891   -618.88391    395.07354    78.788598    22.552272     25.62885 
   59200    236.19408   -318.70483    216009.12   -18585.719    1373.6009    -19959.32   -776.73384    397.35683    78.789646    22.551755    25.629179 
   59400     235.4233   -295.87836    216009.12   -18603.321    1369.1184   -19972.439   -697.87998    399.52239    78.788154    22.549884     25.61207 
   59600    231.66035   -83.043135    216009.12   -18639.111    1347.2348   -19986.346     237.6812    400.14362    78.787364    22.547174     25.60436 
   59800    240.64199   -237.92647    216009.12    -18597.82    1399.4681   -19997.288   -451.52831    402.34794    78.786588    22.543819    25.616049 
   60000    236.67705   -170.21666    216009.12   -18571.027    1376.4097   -19947.437   -202.17476    402.96769    78.785022    22.543976    25.613964 
   60200    231.80027   -382.44419    216009.12   -18596.434    1348.0485   -19944.483   -1054.9582    405.30252    78.785824    22.541201    25.610868 
   60400    241.89046   -416.33412    216009.12   -18563.826    1406.7286   -19970.554   -1203.6633    405.21827     78.78933    22.540329    25.604225 
   60600    245.85921   -356.17964    216009.12   -18560.105    1429.8091   -19989.915   -919.67604    408.51419    78.790083    22.541598    25.598295 
   60800    242.85587   -182.21851    216009.12     -18554.4     1412.343   -19966.743   -249.43401    408.36034     78.79067    22.542058    25.598699 
   61000    240.75601   -245.64899    216009.12   -18658.568    1400.1311     -20058.7   -522.34172    410.56928    78.790924    22.540218    25.596542 
   61200    244.18033   -234.34357    216009.12   -18607.183    1420.0455   -20027.229   -442.98258    410.08713    78.792251    22.539578    25.631916 
   61400    244.75545   -169.16172    216009.12   -18644.123    1423.3901   -20067.513   -136.52982    412.40806    78.791061    22.540592     25.61623 
   61600    242.15857   -240.95109    216009.12   -18686.543    1408.2878   -20094.831   -429.81829    414.46278    78.791924    22.541306    25.621191 
   61800    235.76508   -263.80558    216009.12   -18699.735     1371.106   -20070.841   -531.44483    414.01792    78.793032    22.539156    25.636041 
   62000    240.07538   -214.70621    216009.12   -18617.838    1396.1729   -20014.011   -331.75294    414.55756    78.793501    22.536546    25.615738 
   62200    245.13292   -415.25609    216009.12   -18595.685    1425.5853   -20021.271    -1206.968    417.26283    78.794764    22.533342     25.63914 
   62400    246.69496   -173.58444    216009.12   -18614.586    1434.6695   -20049.256     -183.924    418.03536    78.797757    22.532019    25.616538 
   62600    240.74374   -322.79015    216009.12   -18650.146    1400.0598   -20050.206   -834.87941    419.51226    78.798633    22.531513    25.606869 
   62800    242.00647   -226.55585    216009.12   -18709.872    1407.4032   -20117.275   -397.51791    421.35876    78.798546    22.531955    25.622337 
   63000    247.27818   -275.39096    216009.12   -18615.342    1438.0612   -20053.404   -592.48744    423.30868    78.798939    22.535084    25.650605 
   63200    233.80395   -307.83553    216009.12   -18613.788     1359.701   -19973.489   -730.69055       423.91    78.800882    22.536676    25.663654 
   63400    237.17667   -343.26241    216009.12   -18671.474    1379.3153    -20050.79   -897.44883    426.91592    78.799466    22.536273    25.652501 
   63600    241.34817   -198.46536    216009.12   -18634.465    1403.5749    -20038.04   -269.35177    428.84666     78.79999    22.536403    25.649909 
   63800    237.06284   -287.97561    216009.12   -18683.104    1378.6533   -20061.757   -676.01283    429.71323     78.80232    22.536213    25.656247 
   64000    243.98562   -359.39774    216009.12   -18603.718    1418.9131   -20022.632   -960.72789     431.5436    78.801924    22.540726     25.65317 
   64200    243.95748   -267.61785    216009.12   -18625.284    1418.7495   -20044.034   -565.66689    432.04377    78.800626    22.544026    25.623869 
   64400    237.37042   -369.71146    216009.12    -18629.83     1380.442   -20010.272    -1000.266    432.82631    78.799824    22.544659    25.608703 
   64600    233.66808   -332.75488    216009.12   -18639.271    1358.9109   -19998.182   -837.53978    434.25787     78.80117    22.544697    25.616144 
   64800    236.46274   -191.98342    216009.12     -18609.2    1375.1634   -19984.363    -192.1298    436.02335    78.802884    22.546405     25.60995 
   65000    246.05158   -309.24641    216009.12    -18542.55    1430.9278   -19973.477   -728.99754    437.81927    78.801417     22.54813    25.610547 
   65200    235.83364   -300.36906    216009.12    -18563.68    1371.5048   -19935.185    -689.5334    438.19583    78.802108    22.553597    25.588175 
   65400    234.75097    -315.8404    216009.12    -18557.23    1365.2085   -19922.439   -793.37206    439.87603     78.80205    22.554002    25.570269 
   65600    245.51075   -197.30491    216009.12   -18533.269    1427.7826   -19961.052   -233.84222    437.85925    78.801157    22.554611    25.568742 
   65800    244.92398   -202.45716    216009.12   -18562.249    1424.3702    -19986.62    -254.6149    438.39964    78.800799    22.557309      25.5952 
   66000    239.79332   -327.70937    216009.12   -18565.295    1394.5325   -19959.827   -805.80666    439.38129    78.800964    22.558792    25.624823 
   66200    236.70666   -362.45979    216009.12   -18587.606    1376.5819   -19964.188   -960.30162    437.10042    78.801185    22.559261    25.643343 
   66400    240.07251    -284.8201    216009.12   -18560.094    1396.1562    -19956.25   -619.19695    439.85113    78.800906    22.562393    25.646699 
   66600    240.69695    -92.69178    216009.12   -18574.288    1399.7876   -19974.076    219.38478    441.58437    78.801458     22.56031    25.628703 
   66800    237.67179   -239.55891    216009.12   -18620.421    1382.1947   -20002.615    -433.3024    442.16314    78.800697    22.562437    25.635601 
   67000    229.04178   -375.25408    216009.12   -18672.263    1332.0063   -20004.269   -1065.7915    442.95824    78.801396    22.562421    25.650556 
   67200    241.75155   -291.95102    216009.12   -18586.453    1405.9207   -19992.374   -664.58087    444.04923     78.80205    22.563669    25.648781 
   67400    233.49837   -455.64647    216009.12   -18549.156    1357.9239    -19907.08   -1350.9668    445.72445    78.802907    22.565236    25.642809 
   67600    239.21376   -210.95758    216009.12   -18505.003    1391.1621   -19896.165   -368.81652    447.22214    78.801586    22.564052    25.617031 
   67800    239.90035    -356.9404    216009.12    -18555.84     1395.155   -19950.995   -955.02563    448.90481    78.801042    22.565106    25.605454 
   68000    231.33617   -249.00651    216009.12   -18621.009    1345.3494   -19966.358   -518.98404    450.19228    78.801751    22.563761    25.585257 
   68200    236.19899   -282.29437    216009.12   -18606.881    1373.6295   -19980.511   -625.54795    448.64511    78.798921    22.563989    25.608393 
   68400    237.10824   -367.82757    216009.12    -18522.36    1378.9173   -19901.277   -956.80231    448.02986    78.799205    22.563533    25.632798 
   68600     236.2259   -314.04323    216009.12   -18580.083     1373.786   -19953.869   -749.61412    448.38181    78.798305    22.563469    25.614646 
   68800     239.3388   -201.75666    216009.12   -18538.816    1391.8892   -19930.705    -276.5551    451.71669    78.799746    22.564432    25.613543 
   69000    242.37037   -256.77243    216009.12   -18565.571    1409.5195    -19975.09   -488.87822    454.80045    78.799329     22.56483    25.613251 
   69200    233.78882   -198.39984    216009.12   -18618.647     1359.613   -19978.261   -283.84036    456.96265    78.799701    22.564305    25.628953 
   69400    239.87781   -229.92327    216009.12   -18657.642    1395.0239   -20052.666    -365.5971    457.55849    78.800395    22.563469    25.657303 
   69600    245.20328   -267.39091    216009.12   -18481.781    1425.9945   -19907.776   -543.77671     456.6857     78.79901     22.56549    25.662613 
   69800    237.49227   -341.10185    216009.12    -18599.02    1381.1506    -19980.17   -857.88877    455.44714     78.79872    22.566668    25.667371 
   70000     245.5718   -338.16473    216009.12   -18542.746    1428.1376   -19970.883   -845.85187    456.53778     78.79777    22.568038    25.672063 
   70200    239.37984   -266.46123    216009.12   -18546.763    1392.1279   -19938.891   -571.22554    456.34009    78.798106    22.570709    25.660571 
   70400    239.07602   -319.19816    216009.12   -18502.051    1390.3611   -19892.412   -846.99467    457.35364     78.79791    22.572834     25.65991 
   70600    237.73902   -434.19871    216009.12   -18561.177    1382.5856   -19943.763   -1304.5672    459.21211    78.798944    22.574422    25.655471 
   70800    237.22815   -416.90139    216009.12   -18592.043    1379.6146   -19971.658   -1168.3914    459.07547    78.800844    22.573841    25.635469 
   71000    237.90298   -286.05342    216009.12   -18606.555    1383.5392   -19990.094    -634.4208    460.39658    78.801358    22.573462    25.635224 
   71200    247.69364   -385.79557    216009.12   -18579.266    1440.4773   -20019.743   -1087.1121     460.3137    78.802675    22.572772    25.630956 
   71400    238.09459   -452.81299    216009.12   -18629.006    1384.6534   -20013.659   -1346.4081    461.12551    78.801988     22.57445    25.615248 
   71600    238.67468   -337.75922    216009.12   -18553.091     1388.027   -19941.118   -910.40752    461.35893    78.803234    22.576112    25.584174 
   71800    228.82651   -348.71776    216009.12   -18626.303    1330.7544   -19957.058    -896.3879    460.45524    78.803134    22.576845    25.593536 
   72000    234.55499   -367.35489    216009.12   -18611.095    1364.0687   -19975.164   -948.73862    462.25187    78.804491     22.57714    25.595276 
   72200    247.11794   -267.72322    216009.12   -18458.889    1437.1293   -19896.019   -511.38466    463.09043    78.806518    22.576163     25.60796 
   72400    236.36056   -376.14064    216009.12   -18550.867    1374.5691   -19925.436   -1056.6507    464.86966    78.807251    22.574541     25.61189 
   72600    236.28278   -248.75634    216009.12   -18547.019    1374.1168   -19921.135   -514.07419    465.92089    78.806743    22.573196     25.60654 
   72800    243.58552    -273.8995    216009.12    -18556.49    1416.5863   -19973.076   -577.47005    466.47439    78.808369    22.573434    25.608077 
   73000    243.57782   -440.47943    216009.12   -18570.111    1416.5415   -19986.653   -1314.2908    466.62258     78.80863    22.574781     25.59266 
   73200    248.38794   -491.25138    216009.12   -18484.715    1444.5151    -19929.23   -1529.3108    468.12781    78.809013    22.573636    25.586539 
   73400    245.50128   -289.21607    216009.12   -18508.001    1427.7275   -19935.728   -637.06494    469.03993    78.809186    22.572388    25.590294 
   73600    240.12878    -367.4949    216009.12   -18539.069    1396.4834   -19935.552   -965.55597    470.21886    78.809773    22.571256    25.580039 
   73800    231.24228   -332.96555    216009.12   -18646.117    1344.8035   -19990.921   -825.33433    472.95158    78.811815    22.570783    25.561853 
   74000    230.68242   -390.04359    216009.12   -18634.396    1341.5475   -19975.943   -1086.3474    477.03653    78.812466    22.570686     25.55595 
   74200    240.15699   -296.14371    216009.12   -18590.852    1396.6475     -19987.5   -672.04021    475.59395    78.809783    22.572318    25.545942 
   74400    234.84996    -409.1934    216009.12   -18572.734    1365.7841   -19938.518   -1175.3138    476.71985    78.808151    22.574742    25.529119 
   74600    238.13211   -399.79389    216009.12    -18612.49    1384.8717   -19997.362   -1152.2683    478.92246    78.806677    22.575687    25.530491 
   74800    241.26221     -255.478    216009.12   -18625.439    1403.0749   -20028.514   -495.61419     479.6433    78.805405     22.57638    25.540271 
   75000    239.21022   -241.78211    216009.12    -18651.32    1391.1415   -20042.461   -408.15374    482.55238    78.804685    22.576468    25.538148 
   75200    244.84181    -193.8626    216009.12   -18585.499    1423.8924   -20009.392   -236.86972    484.35383    78.804142    22.575778    25.518763 
   75400    241.02746   -58.314209    216009.12   -18663.259    1401.7098   -20064.969    308.64326    484.06663    78.806278    22.576105    25.494647 
   75600    234.93615   -267.37906    216009.12   -18634.744    1366.2854   -20001.029   -565.10455    485.38988    78.803869    22.576679    25.497434 
   75800    238.34136   -253.46349    216009.12   -18582.374    1386.0886   -19968.463   -508.59993    487.33536    78.803862    22.577103    25.518876 
   76000    241.46273   -173.56787    216009.12   -18573.397    1404.2411   -19977.638   -165.54671    487.03477    78.802665    22.575375    25.516111 
   76200    233.07455   -321.73595    216009.12   -18690.912    1355.4591   -20046.371   -764.89179     488.5402    78.802192    22.575258    25.517352 
   76400    240.38784   -342.15051    216009.12   -18660.688      1397.99   -20058.678   -879.25786    488.58402    78.802697    22.573381    25.529356 
   76600    238.06204   -326.21228    216009.12   -18608.903    1384.4642   -19993.367   -814.46366    487.61903    78.801313    22.570867    25.524198 
   76800    233.41717   -293.38929    216009.12   -18629.867    1357.4516   -19987.319   -618.50006    490.05339     78.80019    22.572353    25.531163 
   77000    242.10448   -343.18043    216009.12   -18587.836    1407.9732   -19995.809   -867.63996     491.2702    78.799424    22.578199    25.535574 
   77200    239.91389    -401.9884    216009.12   -18540.965    1395.2337   -19936.199    -1087.458     493.1256    78.799315    22.578327    25.528238 
   77400    238.19428   -91.898413    216009.12   -18570.792    1385.2332   -19956.026     209.0941    492.10603    78.800504    22.578644    25.540386 
   77600    240.17256   -308.37283    216009.12   -18646.592     1396.738    -20043.33   -754.17024    494.61307    78.800933    22.578565    25.542072 
   77800    240.96785   -356.25468    216009.12    -18623.66    1401.3631   -20025.023   -931.02102    498.56528    78.801936    22.576689    25.548563 
   78000    236.21059   -215.40473    216009.12   -18642.706    1373.6969   -20016.403    -333.4969    500.78307    78.802035    22.579151     25.57559 
   78200    242.82712   -152.11441    216009.12   -18573.413    1412.1758   -19985.589   -39.250848    501.12524    78.802101    22.581334    25.609262 
   78400    238.14358   -369.17264    216009.12   -18601.457    1384.9384   -19986.396   -964.52098    503.30032    78.802635    22.582141    25.614536 
   78600    236.04395   -232.97817    216009.12   -18590.865    1372.7278   -19963.593   -411.87785    501.47349    78.804712    22.580473    25.633042 
   78800    237.74608   -257.86834    216009.12    -18580.62    1382.6267   -19963.247   -481.37791    504.78617    78.802528    22.580576    25.659238 
   79000    243.30635   -454.64403    216009.12   -18556.673    1414.9628   -19971.636   -1345.7385    506.63499    78.800033    22.581053    25.670454 
   79200    243.89431    -452.3921    216009.12   -18526.649    1418.3821   -19945.031   -1316.6354    506.41265    78.801399    22.583078    25.644428 
   79400    248.23885   -253.79361    216009.12   -18533.109     1443.648   -19976.757   -483.37014     504.6559    78.800334     22.58316    25.646011 
   79600    246.37428   -174.06892    216009.12   -18622.194    1432.8045   -20054.998   -165.19067    505.06356    78.798888    22.581684    25.629359 
   79800    234.01485   -315.17398    216009.12   -18634.869    1360.9275   -19995.797   -733.77957    506.06616    78.801829     22.57985    25.601551 
   80000    238.66741   -404.22729    216009.12   -18673.532    1387.9847   -20061.517   -1215.7106    506.35482    78.801716    22.577772    25.584372 
   80200    238.64235   -399.74168    216009.12   -18632.912     1387.839   -20020.751   -1145.4378    508.68554     78.80245    22.576888    25.571796 
   80400    240.46493   -351.04477    216009.12   -18631.242    1398.4383    -20029.68   -944.87176    510.25841    78.803418    22.577176     25.55277 
   80600    248.13534   -249.88256    216009.12   -18620.267     1443.046   -20063.313   -506.07584    511.24402    78.803766    22.577283    25.528322 
   80800    245.23055   -557.35912    216009.12   -18622.676    1426.1531   -20048.829    -1784.627     512.7956    78.804837    22.575698    25.518808 
   81000      239.629   -167.78463    216009.12   -18630.922     1393.577   -20024.499   -122.23779    513.74555    78.806939    22.576857    25.514315 
   81200    239.30276   -403.12591    216009.12   -18660.777    1391.6796   -20052.456    -1127.041    516.03118    78.806283    22.579541     25.53428 
   81400    236.18406   -227.59331    216009.12    -18659.46    1373.5427   -20033.003   -443.16908    515.13122    78.807159    22.578799    25.562953 
   81600    237.63427   -166.29757    216009.12   -18668.722    1381.9764   -20050.699   -105.43388    515.87695    78.808306    22.579548    25.580908 
   81800    233.33321   -210.32296    216009.12   -18758.511    1356.9634   -20115.474   -309.74721    517.08266    78.807229    22.580453    25.590537 
   82000    245.53245   -315.95461    216009.12   -18639.822    1427.9088   -20067.731   -749.40327    520.01942    78.806759    22.581252    25.598607 
   82200     239.4046   -210.67705    216009.12   -18581.162    1392.2719   -19973.434   -294.94028    518.31814     78.80713    22.581902    25.588348 
   82400    237.67882   -424.43082    216009.12   -18545.467    1382.2356   -19927.702   -1204.1161     521.6615    78.806391    22.581411    25.611629 
   82600    249.11288   -268.68475    216009.12   -18476.523     1448.731   -19925.254   -564.91296      523.225    78.806004    22.579993    25.619091 
   82800    239.44643    -205.9039    216009.12   -18584.593    1392.5152   -19977.109   -276.43842    525.21701     78.80616    22.578587     25.62116 
   83000    244.94832   -418.13889    216009.12   -18506.817    1424.5117   -19931.328   -1193.2322     529.5428    78.807242     22.57861    25.607756 
   83200    242.24046    -452.1564    216009.12   -18537.479    1408.7641   -19946.244   -1379.7356    531.02835    78.806414    22.578721    25.593091 
   83400    236.76785   -196.48451    216009.12   -18591.728    1376.9377   -19968.665   -258.97384     532.7037    78.806118    22.577561    25.619889 
   83600    234.31045    -154.8256    216009.12    -18610.52    1362.6466   -19973.167   -74.295437    533.58855    78.806152    22.577635    25.611245 
   83800     232.7085   -268.18184    216009.12   -18569.163    1353.3303   -19922.493   -539.74128    534.23104    78.806257    22.577812    25.631986 
   84000    240.88768   -269.11366    216009.12   -18598.861    1400.8968   -19999.758   -557.37165    534.15412    78.804516    22.579769    25.636554 
   84200    242.34472   -398.66643    216009.12   -18598.661    1409.3703   -20008.031   -1143.3859    537.06786    78.803673    22.581751     25.64063 
   84400    233.34978   -337.43143    216009.12   -18635.633    1357.0597   -19992.692   -850.92255    538.09087    78.802185    22.583739    25.652561 
   84600    239.90308   -317.91897    216009.12   -18534.297    1395.1709   -19929.468   -774.00915    539.75263    78.798236    22.584298    25.616836 
   84800    244.92616   -306.29942    216009.12   -18579.819    1424.3829   -20004.202   -722.66513    541.00759    78.797681    22.582255    25.616815 
   85000    242.45842   -395.56998    216009.12   -18578.171    1410.0316   -19988.202   -1107.1404    545.09598    78.796403    22.580492    25.609887 
   85200    239.99566   -517.93041    216009.12   -18622.051    1395.7092   -20017.761   -1646.3074     545.3719    78.797574    22.580259    25.604599 
   85400    231.44078   -416.06887    216009.12   -18645.505    1345.9578   -19991.463   -1188.1889    545.70816     78.79761    22.579963    25.619229 
   85600    232.90543   -321.37951    216009.12   -18603.983    1354.4756   -19958.459   -756.63589    546.36329    78.799198    22.580792    25.621305 
   85800    241.89041   -406.91268    216009.12   -18509.457    1406.7283   -19916.185    -1083.377    547.09288    78.796635    22.581999    25.635815 
   86000    236.97912   -401.38254    216009.12   -18555.193    1378.1664    -19933.36   -1109.5724    546.74619    78.795314    22.583471    25.630718 
   86200    242.32173   -359.29525    216009.12   -18569.436    1409.2367   -19978.672   -905.22504    550.58138    78.796387    22.583345    25.622044 
   86400    239.95398   -333.52081    216009.12   -18651.267    1395.4669   -20046.734   -807.63715    546.93832    78.797482    22.583995    25.639398 
   86600     239.5798   -455.74661    216009.12   -18551.343    1393.2908   -19944.633   -1298.7567     552.9211    78.802254    22.584309    25.627666 
   86800    240.71375   -276.04085    216009.12   -18617.685    1399.8853    -20017.57    -643.9719    552.33858    78.803747    22.583518    25.626108 
   87000    233.80862   -402.35653    216009.12   -18597.762    1359.7281    -19957.49   -1112.1258    551.56796    78.802515    22.583272    25.617111 
   87200    243.41184   -346.08651    216009.12   -18602.407    1415.5763   -20017.984   -844.67357    550.71049     78.80163    22.581721    25.631985 
   87400    243.40181   -236.30445    216009.12   -18620.721    1415.5179   -20036.239   -421.24942    550.54267    78.796748    22.584216    25.638444 
   87600    241.68191   -495.25702    216009.12   -18637.468    1405.5158   -20042.984   -1480.2924    553.97898    78.795106    22.584589    25.636906 
   87800    242.06753   -241.71115    216009.12   -18629.459    1407.7584   -20037.217   -493.99935     553.1642    78.795419    22.583208    25.621892 
   88000    238.70445   -285.50712    216009.12   -18553.386    1388.2001   -19941.586   -634.84542    553.41796    78.795432     22.58531    25.625662 
   88200    232.86775   -356.57513    216009.12   -18634.545    1354.2565   -19988.802   -971.57935    552.63787    78.795046    22.588701    25.620924 
   88400      236.999   -274.78354    216009.12    -18571.24     1378.282   -19949.522   -567.41766    552.80849     78.79639    22.589672     25.62816 
   88600    238.77461   -363.39824    216009.12   -18577.242    1388.6082    -19965.85    -969.0107     553.3327    78.799004    22.590212    25.617561 
   88800     233.7669   -382.19527    216009.12   -18680.665    1359.4855   -20040.151   -1024.4688    557.23351    78.800374    22.585716    25.640992 
   89000    236.59197   -360.56588    216009.12   -18615.806    1375.9149   -19991.721   -964.11313    558.89292    78.797981    22.583471    25.655768 
   89200    236.46125   -271.23215    216009.12   -18591.791    1375.1547   -19966.946   -571.27604    559.75626    78.797434    22.583701    25.672116 
   89400    239.07995   -149.72716    216009.12   -18609.143    1390.3839   -19999.527   -46.443564    563.66855    78.794482    22.581835    25.675879 
   89600    237.89732   -362.62611    216009.12   -18704.674    1383.5063    -20088.18   -988.03116    564.62211    78.796408    22.579635    25.671196 
   89800    239.79684   -275.53778    216009.12   -18588.229     1394.553   -19982.782   -620.80037    566.55495    78.796061    22.579374    25.672771 
   90000    238.56886   -217.04831    216009.12   -18605.639    1387.4116    -19993.05   -369.32644    568.24374    78.796622     22.57934    25.693687 
   90200    237.60654   -330.44852    216009.12   -18657.809    1381.8152   -20039.625   -860.61328    570.92877    78.796085    22.575699    25.704919 
   90400    246.80157   -260.65992    216009.12   -18644.094    1435.2895   -20079.384   -528.06087    571.55089    78.797769    22.574744    25.711057 
   90600     241.4095    -277.2212    216009.12   -18622.578    1403.9315   -20026.509   -570.36998    572.19099    78.798158    22.572558    25.729681 
   90800    242.70405   -337.64378    216009.12    -18666.68    1411.4601    -20078.14   -841.63335    574.69084    78.798843    22.570917    25.729782 
   91000    234.82187   -256.60773    216009.12   -18684.715    1365.6208   -20050.336   -541.65832    575.54836    78.799874      22.5693    25.729588 
   91200    229.57956   -192.59918    216009.12   -18753.685    1335.1338   -20088.818   -239.74095    572.41064    78.800015    22.571233    25.730271 
   91400    235.40853   -491.40232    216009.12   -18681.577    1369.0325    -20050.61   -1513.7292    575.12562    78.800189    22.573183    25.726137 
   91600    243.65137   -428.83573    216009.12   -18569.915    1416.9693   -19986.884   -1271.8483    577.06585     78.80228    22.574066    25.718802 
   91800    247.28268   -242.57739    216009.12   -18594.191    1438.0874   -20032.278   -465.32053    575.86101    78.802023     22.57546    25.694828 
   92000    241.42173    -388.1917    216009.12   -18620.104    1404.0026   -20024.106   -1061.0538    578.92015    78.802758    22.574611     25.68423 
   92200    237.00275   -361.13222    216009.12   -18631.254    1378.3038   -20009.558   -980.58722    579.93618    78.804309    22.573931    25.680299 
   92400    241.24527    -232.2281    216009.12   -18567.285    1402.9765   -19970.261   -383.38533    580.05225    78.803487    22.573756    25.683951 
   92600    234.85824   -333.22152    216009.12   -18522.151    1365.8323   -19887.983   -835.00714    580.78581    78.804164    22.572801     25.65758 
   92800     240.9809   -446.01322    216009.12   -18587.851     1401.439    -19989.29   -1268.6755    581.91288    78.805427    22.575167    25.653954 
   93000    240.75008   -365.39199    216009.12    -18619.99    1400.0967   -20020.086   -930.75717    583.42719    78.805114    22.574936    25.675889 
   93200    235.52182   -295.61984    216009.12   -18596.545    1369.6914   -19966.237   -672.88792    584.35114    78.803114    22.575479    25.680765 
   93400    232.12023   -377.81452    216009.12   -18621.753    1349.9092   -19971.662   -1064.5988    587.00509    78.800419     22.57709     25.69827 
   93600     237.7585   -345.71812    216009.12   -18582.198    1382.6989   -19964.896     -852.574    588.48025    78.801398    22.577088    25.716708 
   93800    238.07689   -285.98085    216009.12   -18631.864    1384.5505   -20016.415   -615.12233    588.57362    78.804351    22.577544    25.736996 
   94000    244.72407    -238.6464    216009.12   -18668.852    1423.2076    -20092.06   -403.51956    588.32591    78.804022    22.577773    25.711598 
   94200    244.12777   -346.06107    216009.12   -18620.543    1419.7398   -20040.283   -861.46216    587.79316     78.80233    22.577177    25.698053 
   94400    245.33523   -370.98969    216009.12   -18673.853    1426.7618   -20100.615   -1026.8082     588.6274    78.800503    22.578728    25.705186 
   94600    233.62985   -441.37751    216009.12   -18668.947    1358.6885   -20027.636   -1302.6394    591.82818    78.799983    22.577918    25.694731 
   94800    241.04136   -226.05544    216009.12   -18667.134    1401.7906   -20068.924   -375.89307    591.72753    78.798379    22.579088    25.672056 
   95000    239.87084   -436.07991    216009.12   -18671.826    1394.9834    -20066.81    -1259.907    591.34813    78.796961    22.581032    25.675848 
   95200    236.15175   -333.76469    216009.12   -18672.945    1373.3548     -20046.3   -871.97323    593.54661    78.796457     22.58102    25.658079 
   95400    237.58356   -234.71698    216009.12   -18646.738    1381.6816    -20028.42   -411.77082     592.2996    78.795673    22.582064    25.663407 
   95600    238.30919    -288.9048    216009.12   -18611.778    1385.9015   -19997.679   -664.88087    594.31919    78.795067    22.584746    25.647919 
   95800    244.11283   -347.69645    216009.12   -18604.169    1419.6529   -20023.822   -880.59078    588.69559    78.793537    22.585982    25.635561 
   96000    240.01457    -216.7897    216009.12   -18592.911    1395.8192    -19988.73   -290.21797    586.98285    78.792988    22.587591    25.636895 
   96200    247.87131   -282.56964    216009.12    -18534.81    1441.5106   -19976.321   -632.77001      587.556    78.792301    22.586577     25.64973 
   96400    240.95471   -422.79116    216009.12   -18541.388    1401.2867   -19942.675   -1223.0114    594.32708    78.793567    22.587507    25.640781 
   96600    239.51596   -198.56517    216009.12   -18632.199    1392.9195   -20025.118   -280.91507    594.47861    78.793267    22.586888    25.654084 
   96800    241.29102   -221.84744    216009.12   -18632.466    1403.2425   -20035.709   -393.71063    597.67811    78.794726    22.587076    25.645688 
   97000     237.1553    -389.2302    216009.12   -18677.553     1379.191   -20056.744   -1067.7179    598.62244     78.79364    22.587842    25.654314 
   97200     237.0313   -186.67279    216009.12   -18647.916    1378.4698   -20026.386   -222.77604     598.1071    78.792893     22.58597    25.655099 
   97400    237.57916   -412.14947    216009.12   -18616.558     1381.656   -19998.214   -1165.7811    602.01409    78.790506    22.585036    25.684917 
   97600    244.44471   -281.39552    216009.12   -18585.156     1421.583   -20006.739   -598.44986    601.87694    78.790447    22.582896    25.691679 
   97800    240.90495   -542.44742    216009.12   -18573.897    1400.9973   -19974.894   -1747.1113    600.11735    78.791309    22.579323    25.667822 
   98000    238.86786   -358.44068    216009.12   -18595.851    1389.1504   -19985.001   -973.96004    597.68411    78.790894    22.578094    25.669623 
   98200    234.71362   -379.97625    216009.12   -18623.659    1364.9913    -19988.65   -998.31597    600.24265     78.79071    22.574296    25.659831 
   98400    240.40857   -130.19515    216009.12   -18572.082    1398.1106   -19970.192    46.753588    601.38227    78.791632    22.574251    25.652481 
   98600    245.56356   -484.46032    216009.12   -18600.036    1428.0897   -20028.126   -1472.1047    603.88887    78.794752    22.576513    25.644031 
   98800    242.76985   -283.40068    216009.12   -18591.568    1411.8427    -20003.41   -613.22451    604.97383    78.795541    22.577535    25.656063 
   99000    233.55688   -207.56316    216009.12   -18662.154    1358.2641   -20020.418    -350.3379    606.11776    78.794936    22.578063    25.653513 
   99200    242.58139   -262.56855    216009.12   -18643.324    1410.7467    -20054.07   -568.08778    608.20342      78.7944    22.577473    25.658181 
   99400    230.17903    -379.4421    216009.12   -18669.007    1338.6201   -20007.627   -1016.7368    607.53809    78.796373    22.577608    25.645144 
   99600    237.62085   -443.81236    216009.12   -18604.155    1381.8984   -19986.053   -1337.0491    608.44363    78.797883    22.574322    25.634202 
   99800     239.6299   -390.36915    216009.12   -18622.303    1393.5822   -20015.885   -1096.1362    610.82255    78.797291    22.577015     25.63422 
  100000    233.53836   -176.00506    216009.12   -18575.505    1358.1564   -19933.661   -172.27257    611.60497    78.796922    22.577276    25.651924 
  100200    242.28198   -315.26095    216009.12   -18646.369    1409.0055   -20055.375   -764.62087    612.71276    78.794456    22.578981    25.655387 
  100400    238.08246   -236.63894    216009.12   -18590.215    1384.5829   -19974.798   -384.84457    614.45618    78.793316     22.58005    25.659696 
  100600    245.51689   -235.77912    216009.12   -18596.124    1427.8183   -20023.942   -424.16136    612.89463    78.795235    22.581582    25.661836 
  100800    242.33225   -270.49293    216009.12   -18641.171    1409.2979   -20050.469    -600.1557    612.22353     78.79398    22.581931    25.649162 
[...]
 5175800    222.88549   -748.84387    216009.12   -20610.128     1296.204   -21906.332    -2553.391    9582.8246    80.053385    22.339316    25.385451 
 5176000    227.03393   -702.17731    216009.12   -20603.351    1320.3296   -21923.681   -2383.7218    9584.8701    80.053005    22.338772    25.382658 
 5176200     225.9564   -640.88341    216009.12   -20612.671    1314.0631   -21926.735   -2050.5569    9581.8564    80.053536    22.338577    25.385286 
 5176400     226.8159   -665.77594    216009.12   -20639.495    1319.0616   -21958.556    -2198.288    9582.4616    80.054177    22.339139    25.381631 
 5176600    228.13986   -622.46787    216009.12    -20593.43    1326.7611   -21920.191   -2058.9464    9584.5102    80.054986    22.339556    25.382105 
 5176800    223.63648   -626.25046    216009.12   -20562.781    1300.5715   -21863.353   -2069.6218    9583.6639    80.053322    22.339753    25.383578 
 5177000    233.27609   -638.23263    216009.12   -20561.628    1356.6312   -21918.259   -2058.0693    9583.5628    80.051994    22.340072    25.384619 
 5177200    231.12321    -645.4067    216009.12   -20578.943     1344.111   -21923.054   -2148.7025     9585.702    80.050627    22.339518    25.384356 
 5177400    225.88823   -656.37526    216009.12   -20597.848    1313.6666   -21911.515   -2146.6971      9584.76    80.050933     22.34032    25.373244 
 5177600    225.49896   -694.56692    216009.12   -20540.297    1311.4028     -21851.7   -2341.1343    9583.9422    80.049477    22.339802    25.386074 
 5177800    226.21102   -610.82036    216009.12   -20586.711    1315.5439   -21902.254   -1981.0929    9584.8134    80.049701    22.340074    25.381937 
 5178000    226.29862   -655.07105    216009.12   -20608.232    1316.0533   -21924.286   -2140.2093    9587.2777    80.049367    22.340274    25.381928 
 5178200    224.22468   -701.39051    216009.12   -20609.703    1303.9922   -21913.695   -2368.2798     9584.402    80.047925    22.339103    25.390545 
 5178400    228.97235   -580.61633    216009.12   -20622.403    1331.6025   -21954.006   -1798.9871     9582.579    80.047607    22.338406    25.383711 
 5178600    226.66831   -669.10305    216009.12   -20617.108    1318.2033   -21935.311   -2208.5579    9584.5862    80.047447    22.339812    25.386211 
 5178800    225.10732   -675.13438    216009.12   -20571.808    1309.1252   -21880.933    -2281.472    9582.7951    80.047238    22.341566    25.387061 
 5179000    225.76157   -618.13309    216009.12   -20597.749    1312.9301    -21910.68   -2015.5386     9582.821     80.04651    22.341508    25.382732 
 5179200    226.44237   -693.63216    216009.12   -20566.245    1316.8893   -21883.134   -2332.9596    9586.6009    80.045915     22.34164    25.380482 
 5179400    225.07863   -697.75394    216009.12   -20636.642    1308.9583     -21945.6   -2358.1422    9582.8966     80.04676    22.341415    25.380756 
 5179600    234.81015   -634.31177    216009.12   -20537.963    1365.5526   -21903.516   -2070.7991    9582.8305    80.047639    22.341769    25.383975 
 5179800    233.45019   -678.43736    216009.12   -20588.314    1357.6437   -21945.957   -2243.6171     9586.487    80.049139    22.343117    25.383926 
 5180000    225.49983   -686.40693    216009.12   -20613.742    1311.4079    -21925.15   -2331.7054    9583.9833    80.048992    22.343501    25.374811 
 5180200    223.38723   -605.56297    216009.12   -20680.262     1299.122   -21979.384   -1943.4761    9582.9242     80.04883    22.342956    25.373719 
 5180400    223.35225    -628.2302    216009.12   -20649.248    1298.9185   -21948.166   -2036.1994    9585.9239    80.050685    22.345033    25.376028 
 5180600    227.97544      -594.72    216009.12   -20590.319    1325.8049   -21916.124   -1856.6711    9581.9214    80.050344    22.345711    25.373977 
 5180800    235.23293   -600.81702    216009.12   -20565.374    1368.0113   -21933.385   -1875.8465    9581.9265    80.051483    22.345995    25.377094 
 5181000    225.19166   -646.64719    216009.12   -20605.279    1309.6157   -21914.895   -2132.0202    9585.7117    80.050667    22.348056    25.372358 
 5181200    224.77051   -571.30837    216009.12   -20606.189    1307.1665   -21913.356   -1814.9506    9584.1736    80.050114     22.34923    25.370432 
 5181400    217.01012    -648.9509    216009.12     -20652.4    1262.0355   -21914.435   -2148.2359    9581.1169    80.051097     22.34994    25.372802 
 5181600    229.27569   -650.34348    216009.12   -20582.895    1333.3666   -21916.262   -2102.7468    9585.1115    80.052282    22.350613    25.372748 
 5181800    225.11919   -611.42103    216009.12   -20655.168    1309.1942   -21964.362   -1987.1792    9582.8364     80.05265    22.350647    25.373678 
 5182000      231.905   -623.32761    216009.12   -20570.343    1348.6575   -21919.001   -2031.8944     9583.241    80.052097    22.351958    25.369178 
 5182200    227.14038   -817.94961    216009.12   -20574.268    1320.9486   -21895.217   -2844.6619    9585.1678    80.052735    22.352064    25.365442 
 5182400    230.23865   -622.29204    216009.12   -20560.998    1338.9668   -21899.964   -2040.5939    9583.2195    80.053224     22.35184    25.367336 
 5182600    226.36978   -647.89388    216009.12   -20656.194    1316.4671   -21972.661   -2145.2971    9579.7636    80.053464    22.352586    25.371177 
 5182800     229.0556   -764.25517    216009.12   -20597.532    1332.0867   -21929.619    -2595.397    9587.2261    80.053676    22.353056    25.370583 
 5183000    234.21844   -590.79494    216009.12   -20591.627    1362.1115   -21953.738   -1892.6164    9583.3339    80.053413    22.353556    25.368661 
 5183200    233.60617   -548.01078    216009.12   -20543.241    1358.5508   -21901.792    -1692.146    9579.7746    80.053991    22.354156    25.366944 
 5183400    228.16846   -744.49867    216009.12   -20548.424    1326.9275   -21875.351   -2560.1065    9585.0708    80.053809    22.353431    25.369561 
 5183600    227.90784   -581.06488    216009.12   -20634.724    1325.4118   -21960.136   -1855.5989    9584.7718    80.053844    22.352836    25.369499 
 5183800    219.13045   -575.42622    216009.12   -20657.616    1274.3664   -21931.982   -1789.2996    9580.0139    80.052814    22.353563    25.371747 
 5184000    218.63258   -731.96195    216009.12   -20663.955     1271.471   -21935.426   -2448.7067    9587.0169    80.052586    22.353505    25.372116 
 5184200    232.36763   -643.03634    216009.12   -20552.637     1351.348   -21903.985   -2109.6792    9585.6492    80.054134    22.354542    25.371451 
 5184400    223.52498   -567.51277    216009.12   -20621.273     1299.923   -21921.196   -1765.9639    9580.0125     80.05491    22.354829    25.368818 
 5184600    230.48658   -743.93285    216009.12   -20561.392    1340.4086   -21901.801   -2534.4699    9584.5234    80.053579    22.354678    25.366904 
 5184800    223.56916   -749.06111    216009.12   -20614.603      1300.18   -21914.783   -2633.8496    9585.9971    80.053524    22.354641    25.366509 
 5185000    230.04221   -640.03093    216009.12   -20624.806    1337.8244   -21962.631   -2119.2417    9581.0756    80.053786    22.354714    25.369652 
 5185200    223.56792   -713.27841    216009.12   -20600.907    1300.1727    -21901.08   -2391.7744    9584.2436    80.054683    22.354733    25.373344 
 5185400    223.02391   -702.28688    216009.12   -20637.161     1297.009    -21934.17   -2332.5266     9586.618    80.054159    22.355904    25.378068 
 5185600    225.50455   -709.62018    216009.12   -20605.905    1311.4353    -21917.34   -2404.6352    9581.5405    80.054694    22.357016    25.379357 
 5185800     223.5579   -702.31865    216009.12   -20612.749    1300.1145   -21912.864   -2330.4713    9584.4906    80.055793    22.358067    25.383658 
 5186000    225.47967   -744.64168    216009.12   -20573.055    1311.2906   -21884.346   -2565.7335    9584.9862    80.057348    22.359133    25.380697 
 5186200    226.56895    -642.1714    216009.12   -20576.643    1317.6254   -21894.269   -2075.0408    9582.1949    80.057886    22.360987    25.381363 
 5186400     224.9219   -684.52312    216009.12   -20589.423    1308.0469    -21897.47   -2305.7316    9581.6622    80.058064    22.361834    25.384145 
 5186600    230.02271   -759.22913    216009.12   -20580.741     1337.711   -21918.452   -2605.0705    9586.4036    80.058606    22.360484    25.378542 
 5186800    230.58439   -612.96975    216009.12   -20578.992    1340.9775   -21919.969   -1969.8953    9582.1751    80.058447    22.360935    25.377922 
 5187000    229.74284   -664.42861    216009.12   -20593.771    1336.0834   -21929.854   -2202.6836    9579.0615    80.058772    22.360049    25.386031 
 5187200    229.70556   -724.38394    216009.12   -20558.832    1335.8665   -21894.699    -2447.183    9584.3346     80.05829    22.360829     25.38523 
 5187400    230.44473   -689.33975    216009.12   -20579.359    1340.1653   -21919.525   -2313.8844    9584.0459    80.059341    22.362773    25.381829 
 5187600    222.98406   -641.02033    216009.12   -20621.546    1296.7773   -21918.323   -2101.3758    9579.8834    80.058671    22.362657    25.383259 
 5187800    225.34253   -663.66821    216009.12   -20569.137    1310.4931   -21879.631   -2188.4443     9583.133    80.058535    22.363707    25.384531 
 5188000     230.9792    -619.4174    216009.12   -20588.696    1343.2735   -21931.969   -1999.4199     9582.834    80.059331    22.364209    25.381209 
 5188200    233.86202   -620.94138    216009.12   -20547.058    1360.0387   -21907.096   -2018.6043    9580.3089    80.058805    22.364437    25.378571 
 5188400    226.66073   -694.04486    216009.12   -20580.527    1318.1592   -21898.686   -2347.1899    9583.6512    80.058627    22.364491    25.379798 
 5188600    233.36173   -654.48724    216009.12   -20589.027    1357.1292   -21946.156   -2145.5298    9584.4427     80.05839    22.364499    25.378194 
 5188800    224.80484   -644.20036    216009.12   -20638.211    1307.3662   -21945.577   -2119.2938    9582.4946    80.059294    22.365207    25.378632 
 5189000    224.67765   -640.39136    216009.12   -20630.021    1306.6265   -21936.648    -2099.451    9582.3876    80.060186      22.3661    25.375195 
 5189200    221.47147   -730.33776    216009.12   -20620.173    1287.9807   -21908.154   -2484.2181    9586.0175    80.060485    22.366265    25.376181 
 5189400    221.51363   -634.89263    216009.12   -20685.578    1288.2259   -21973.804   -2065.5067    9581.2354    80.061199    22.367726    25.380198 
 5189600    226.12966   -686.27949    216009.12   -20630.128    1315.0707   -21945.199   -2315.1087    9582.7795    80.061956    22.367199    25.377845 
 5189800    225.09549   -674.67579    216009.12   -20594.626    1309.0564   -21903.682   -2257.0325    9582.9941    80.061889    22.366609     25.37532 
 5190000     227.9951   -647.57949    216009.12   -20629.761    1325.9193    -21955.68   -2162.6632    9584.1358    80.061645    22.367152    25.374386 
 5190200    227.21976   -634.07268    216009.12   -20598.814    1321.4103   -21920.224   -2044.0009    9581.0664    80.061898     22.36595    25.381691 
 5190400    224.54078   -624.13661    216009.12   -20615.043    1305.8305   -21920.874   -2025.2579    9582.8631    80.061853    22.366701    25.382281 
 5190600     238.1479   -665.65863    216009.12   -20537.626    1384.9635    -21922.59   -2196.9679    9583.0684    80.062413     22.36666    25.386142 
 5190800    225.12182   -689.78514    216009.12    -20617.96    1309.2095    -21927.17   -2363.6822    9580.8998    80.063799    22.365795    25.386543 
 5191000    228.82841    -702.4367    216009.12    -20596.93    1330.7655   -21927.695   -2366.5732    9582.7205    80.063304    22.366551    25.384865 
 5191200    229.15674   -698.69444    216009.12   -20574.117    1332.6749   -21906.792   -2347.9486    9581.2259    80.064473    22.366484    25.382416 
 5191400    226.80996   -692.93688    216009.12   -20613.749     1319.027   -21932.776   -2322.6816    9580.3664    80.064684    22.366116    25.381087 
 5191600    226.53245   -768.84041    216009.12   -20627.137    1317.4131    -21944.55   -2627.4553    9583.9057    80.064194     22.36529    25.385447 
 5191800    226.67103   -689.17599    216009.12   -20622.056    1318.2191   -21940.275   -2302.9616    9581.3731    80.063873    22.365437    25.382856 
 5192000    227.05003   -625.75996    216009.12   -20568.519    1320.4232   -21888.943    -2043.307    9580.8737    80.063637    22.363738    25.376922 
 5192200    226.45122   -734.86415    216009.12   -20538.797    1316.9408   -21855.738   -2499.8229    9583.2191    80.064457    22.365194     25.38118 
 5192400    222.72937   -662.90916    216009.12   -20618.309    1295.2961   -21913.605   -2175.3512    9581.6293    80.065164    22.365527    25.382031 
 5192600    226.21169   -575.62461    216009.12   -20605.045    1315.5478   -21920.593   -1822.4486     9580.733    80.066076    22.365625    25.376833 
 5192800    225.94241   -641.07749    216009.12   -20623.397    1313.9817   -21937.378   -2078.7722    9580.5877    80.066549    22.365595    25.378868 
 5193000    229.28258   -675.29733    216009.12   -20589.096    1333.4067   -21922.502   -2237.3942    9582.5379    80.066263    22.365481    25.380915 
 5193200    224.84587   -635.76166    216009.12   -20654.554    1307.6047   -21962.159   -2109.0622    9581.0893    80.065873     22.36736    25.383241 
 5193400    229.04209   -639.16105    216009.12   -20575.059    1332.0081   -21907.067   -2095.5426    9582.7019    80.065283    22.369178    25.379762 
 5193600    224.23406   -698.15461    216009.12    -20597.55    1304.0467   -21901.596    -2382.385     9583.204    80.065251    22.369671    25.380349 
 5193800    229.65941   -631.72781    216009.12   -20580.792    1335.5982    -21916.39   -2052.6441    9579.3169    80.065066    22.370337    25.387156 
 5194000    226.09273   -723.95103    216009.12   -20565.709    1314.8559   -21880.564   -2446.8358     9580.512    80.065339    22.370547    25.383476 
 5194200    220.03586   -705.93361    216009.12   -20646.771    1279.6318   -21926.403   -2371.0364    9582.7261    80.065117    22.371542    25.383704 
 5194400    223.85129    -590.9826    216009.12   -20626.598    1301.8207   -21928.418   -1878.4965    9579.1004    80.065031    22.372699     25.37774 
 5194600    226.08487   -728.30596    216009.12   -20594.558    1314.8102   -21909.368   -2507.7862    9580.4698    80.065411    22.372784    25.382357 
 5194800    226.92518   -749.86464    216009.12   -20548.826    1319.6971   -21868.524   -2577.8033    9582.1106    80.064939    22.372805    25.379506 
 5195000    225.51917    -617.2717    216009.12   -20608.173    1311.5203   -21919.693   -1991.3094    9579.0286    80.064864    22.372128    25.385089 
 5195200    228.65868   -656.98113    216009.12   -20523.726    1329.7784   -21853.504   -2144.1863    9580.7996    80.065336    22.373338    25.381725 
 5195400    221.79524   -744.76595    216009.12   -20588.847    1289.8636   -21878.711    -2531.986    9581.4914    80.067146    22.373475    25.383614 
 5195600     232.7827    -589.3262    216009.12   -20541.728    1353.7618   -21895.489   -1917.0822    9580.5102    80.066847    22.373535    25.386841 
 5195800    223.45744   -604.55214    216009.12   -20614.943    1299.5302   -21914.473   -1967.8299    9580.9451    80.067827       22.372    25.379528 
 5196000     234.2185   -700.66828    216009.12    -20525.46    1362.1119   -21887.572   -2333.6989    9584.5331    80.068087    22.372921    25.384651 
 5196200    226.63362   -625.21532    216009.12   -20558.914    1318.0015   -21876.915   -2018.4474    9580.5967    80.069888    22.373549    25.386072 
 5196400    223.90274   -584.39843    216009.12   -20600.995    1302.1199   -21903.114   -1841.1742    9579.7986    80.070466     22.37334    25.375737 
 5196600    228.78222   -729.74606    216009.12   -20567.668    1330.4968   -21898.165    -2443.214    9584.6695    80.071824    22.374608    25.380992 
 5196800    223.50585   -658.37879    216009.12   -20589.313    1299.8118   -21889.125   -2185.0543     9581.271     80.07212    22.374714     25.38134 
 5197000    228.85369   -700.17024    216009.12   -20573.066    1330.9125   -21903.979   -2381.7814    9580.6719    80.071063    22.374515    25.382062 
 5197200    230.07174   -803.22293    216009.12   -20551.766    1337.9961   -21889.762   -2817.2516    9583.6195    80.071744    22.374903    25.382549 
 5197400    230.25436   -631.87082    216009.12   -20613.257    1339.0581   -21952.315   -2053.7052    9578.8575    80.070841    22.374587    25.385195 
 5197600    228.41188   -663.82729    216009.12   -20615.705    1328.3431   -21944.048   -2209.2326    9578.3463    80.071147    22.373989    25.390987 
 5197800    223.55084   -731.03139    216009.12   -20621.912    1300.0734   -21921.986   -2438.0043    9582.7568    80.071738    22.373176     25.38937 
 5198000    220.85794   -673.38901    216009.12   -20663.127    1284.4127    -21947.54   -2230.4477    9581.0003    80.072953    22.373756    25.381104 
 5198200    230.42149   -599.94135    216009.12   -20569.447    1340.0301   -21909.478     -1901.55    9579.3267    80.073747    22.373024    25.381323 
 5198400    229.81016   -769.93099    216009.12   -20568.609    1336.4749   -21905.084   -2640.5117    9583.2837    80.073575    22.372267    25.379481 
 5198600    225.24479   -660.50363    216009.12   -20584.551    1309.9247   -21894.476   -2228.1296     9581.439    80.074285    22.374325    25.380808 
 5198800     225.8358   -657.39965    216009.12   -20655.047    1313.3617   -21968.409   -2203.6532    9582.9384    80.072921    22.374544    25.377901 
 5199000    227.43552   -735.27385    216009.12    -20610.22     1322.665   -21932.885   -2509.5011    9580.7319    80.073267    22.373195    25.375629 
 5199200     228.6471   -637.21141    216009.12   -20513.147     1329.711   -21842.858   -2085.5315    9579.9579    80.073439    22.375562    25.373723 
 5199400    224.57912   -637.66764    216009.12   -20623.222    1306.0534   -21929.276    -2080.007    9581.6903    80.074367    22.374663     25.38194 
 5199600    219.42181   -808.61716    216009.12   -20611.143    1276.0608   -21887.204   -2823.9629    9585.6088    80.075604    22.375158    25.380825 
 5199800    230.55296   -588.36839    216009.12   -20576.419    1340.7947   -21917.214   -1871.2739    9579.8171    80.075356    22.375037    25.379034 
 5200000    227.21669   -601.76385    216009.12   -20599.254    1321.3924   -21920.646   -1938.7087    9580.5968    80.075531       22.375    25.383193 
Loop time of 7152.57 on 160 procs for 5200000 steps with 9248 atoms

Performance: 628.138 ns/day, 0.038 hours/ns, 727.011 timesteps/s
97.7% CPU use with 160 MPI tasks x no OpenMP threads

MPI task timing breakdown:
Section |  min time  |  avg time  |  max time  |%varavg| %total
---------------------------------------------------------------
Pair    | 0.25022    | 1462.9     | 5700.6     |5210.6 | 20.45
Neigh   | 0.3315     | 91.766     | 367.94     |1236.8 |  1.28
Comm    | 11.582     | 1785.3     | 5671.2     |4613.0 | 24.96
Output  | 90.745     | 90.817     | 92.899     |   1.8 |  1.27
Modify  | 246.44     | 3630       | 6968.9     |4808.3 | 50.75
Other   |            | 91.79      |            |       |  1.28

Nlocal:    57.8 ave 196 max 0 min
Histogram: 72 20 28 0 0 0 0 0 13 27
Nghost:    534.038 ave 904 max 0 min
Histogram: 18 6 0 8 8 32 35 12 27 14
Neighs:    0 ave 0 max 0 min
Histogram: 160 0 0 0 0 0 0 0 0 0
FullNghs:  5861.43 ave 23556 max 0 min
Histogram: 112 8 0 0 0 0 0 1 21 18

Total # of neighbors = 937828
Ave neighs/atom = 101.409
Neighbor list builds = 553560
Dangerous builds = 0
write_data 		${DIR}/data.${NAME}_run
write_data 		run_4/data.${NAME}_run
write_data 		run_4/data.ibeam_cooling_4_run
Total wall time: 1:59:27
