

### IMPORT ATOMS ###
read_data ../Box_Setup/data.Ibeam_240K
  orthogonal box = (0 0 0) to (157.504 40.4305 33.9212)
  10 by 4 by 4 MPI processor grid
  reading atoms ...
  9248 atoms
  reading velocities ...
  9248 velocities
group water type 2
1952 atoms in group water
group graphite type 1
7296 atoms in group graphite


# Define potential
#
pair_style          sw
pair_coeff * * MLC_e.sw C mW

# Add velocity/set timestep
#

fix		1 graphite setforce 0.0 0.0 0.0
velocity 	graphite set 0.0 0.0 0.0
velocity            water create ${START_TEMP} ${SEED} rot yes dist gaussian
velocity            water create 240 ${SEED} rot yes dist gaussian
velocity            water create 240 29 rot yes dist gaussian
timestep            5.0

# Define output
#
compute 1 water msd
compute 2 water temp


thermo	            100
thermo_style custom step c_2 press vol etotal ke pe c_1[4] density

# Neighbor lists
#
neigh_modify        delay 0 every 1 check yes


# Set fixes
#
fix                 2 water momentum 10 linear 1 1 1 rescale
fix                 3 all nve
fix                 4 water temp/csvr ${START_TEMP} ${START_TEMP} 500.0 928347
fix                 4 water temp/csvr 240 ${START_TEMP} 500.0 928347
fix                 4 water temp/csvr 240 240 500.0 928347

# Run 0.05 ns equilibration
#
dump                1 all custom 100 ${DIR}/eq.${NAME}.dump id type x y z vx vy vz
dump                1 all custom 100 run_4/eq.${NAME}.dump id type x y z vx vy vz
dump                1 all custom 100 run_4/eq.ibeam_cooling_4.dump id type x y z vx vy vz
run                 10000
Neighbor list info ...
  update every 1 steps, delay 0 steps, check yes
  max neighbors/atom: 2000, page size: 100000
  master list distance cutoff = 6.67472
  ghost atom cutoff = 6.67472
  binsize = 3.33736, bins = 48 13 11
  1 neighbor lists, perpetual/occasional/extra = 1 0 0
  (1) pair sw, perpetual
      attributes: full, newton on
      pair build: full/bin/atomonly
      stencil: full/bin/3d
      bin: standard
Per MPI rank memory allocation (min/avg/max) = 0.4647 | 3.681 | 4.743 Mbytes
Step c_2 Press Volume TotEng KinEng PotEng c_1[4] Density 
       0          240   -299.33439    216009.12   -18704.344    1395.7345   -20100.079            0   0.94393226 
     100     240.0366   -322.86786    216009.12   -18719.707    1395.9473   -20115.655   0.80745776   0.94393226 
     200    238.00893   -240.77218    216009.12   -18759.726    1384.1553   -20143.882    1.2029242   0.94393226 
     300    233.92321   -69.007031    216009.12   -18738.769    1360.3946   -20099.164    1.6593168   0.94393226 
     400    232.27989   -489.64198    216009.12   -18747.728    1350.8377   -20098.565    2.0043906   0.94393226 
     500    236.01935   -260.83313    216009.12   -18732.084    1372.5848   -20104.669    2.3523876   0.94393226 
     600    242.81406    -336.8397    216009.12   -18648.383    1412.0999   -20060.482    2.6608716   0.94393226 
     700    248.56544   -323.49873    216009.12   -18654.646    1445.5474   -20100.193    2.9378204   0.94393226 
     800    243.63454   -325.01774    216009.12   -18639.589    1416.8714    -20056.46    3.3696757   0.94393226 
     900    241.84876   -312.55514    216009.12    -18680.31    1406.4861   -20086.796    3.6405089   0.94393226 
    1000    234.60691   -332.98671    216009.12   -18729.688    1364.3707   -20094.058    4.1157383   0.94393226 
    1100     241.7696   -279.27636    216009.12   -18701.599    1406.0257   -20107.625    4.5073942   0.94393226 
    1200    238.76725   -278.64343    216009.12   -18693.026    1388.5654   -20081.591    4.9749586   0.94393226 
    1300     244.6872   -163.57448    216009.12   -18655.229    1422.9932   -20078.222    5.3233333   0.94393226 
    1400    242.25372   -378.94034    216009.12   -18683.466    1408.8412   -20092.307    5.5009894   0.94393226 
    1500    243.61283   -379.19045    216009.12   -18693.487    1416.7451   -20110.232     5.645101   0.94393226 
    1600    237.20011   -441.66618    216009.12   -18679.399    1379.4515    -20058.85     5.939155   0.94393226 
    1700    240.26922   -310.68846    216009.12   -18682.384    1397.3001   -20079.685    6.3454923   0.94393226 
    1800    251.00027   -251.55741    216009.12   -18669.945    1459.7072   -20129.652    6.6832235   0.94393226 
    1900     246.6933   -212.54448    216009.12   -18642.536    1434.6598   -20077.195    6.7962656   0.94393226 
    2000     248.9312   -289.18322    216009.12   -18615.028    1447.6744   -20062.703    7.0294768   0.94393226 
    2100    237.13874   -404.19726    216009.12   -18712.308    1379.0947   -20091.403    7.2430615   0.94393226 
    2200    240.19902   -315.97135    216009.12    -18697.98    1396.8919   -20094.872    7.6551674   0.94393226 
    2300    240.31531   -355.20094    216009.12   -18676.745    1397.5682   -20074.314    8.1942727   0.94393226 
    2400    246.55176   -238.93976    216009.12   -18669.383    1433.8366    -20103.22    8.5181433   0.94393226 
    2500    243.12971   -311.60717    216009.12   -18687.565    1413.9355   -20101.501    8.4922598   0.94393226 
    2600    237.56178    -393.8716    216009.12   -18678.737    1381.5549   -20060.292    8.8037551   0.94393226 
    2700    237.48952   -316.05804    216009.12   -18676.623    1381.1347   -20057.758    9.0574837   0.94393226 
    2800    245.74103   -301.76555    216009.12   -18635.165    1429.1218   -20064.287    9.3547382   0.94393226 
    2900    246.09497   -269.05583    216009.12   -18646.737    1431.1802   -20077.917    9.8752509   0.94393226 
    3000    246.85395   -259.42301    216009.12   -18644.916    1435.5941    -20080.51    10.334849   0.94393226 
    3100    247.81151   -344.59097    216009.12   -18631.614    1441.1628   -20072.777       10.889   0.94393226 
    3200    241.09495   -392.45848    216009.12   -18665.148    1402.1022   -20067.251    11.455509   0.94393226 
    3300      232.241   -226.41273    216009.12    -18739.85    1350.6116   -20090.462    11.748534   0.94393226 
    3400    242.13284     -159.455    216009.12   -18693.896    1408.1382   -20102.035    11.796568   0.94393226 
    3500    245.92476   -350.02244    216009.12   -18693.138    1430.1903   -20123.328    12.026958   0.94393226 
    3600    235.65582   -272.32539    216009.12   -18693.861    1370.4707   -20064.331    12.676916   0.94393226 
    3700    238.35061   -408.51074    216009.12   -18673.645    1386.1424   -20059.787    12.855285   0.94393226 
    3800    238.79556   -388.09165    216009.12   -18665.891      1388.73   -20054.621    12.972956   0.94393226 
    3900    241.91664   -248.72958    216009.12   -18668.668    1406.8808   -20075.549    13.272002   0.94393226 
    4000     237.3947   -315.21081    216009.12   -18708.526    1380.5832   -20089.109    13.815772   0.94393226 
    4100    241.98525   -334.14941    216009.12   -18702.134    1407.2799   -20109.414    14.199314   0.94393226 
    4200    240.88315   -193.74347    216009.12    -18683.56    1400.8705   -20084.431    14.675119   0.94393226 
    4300    240.48671    -285.4537    216009.12   -18722.023     1398.565   -20120.588     15.00739   0.94393226 
    4400    236.66086   -294.27742    216009.12   -18687.543    1376.3155   -20063.859    15.223037   0.94393226 
    4500    234.86033   -362.64061    216009.12   -18712.286    1365.8444    -20078.13    15.415738   0.94393226 
    4600    235.50412   -180.10685    216009.12   -18758.664    1369.5884   -20128.252    15.840538   0.94393226 
    4700     238.2398   -249.14152    216009.12   -18682.219    1385.4979   -20067.717     16.01687   0.94393226 
    4800    245.06686   -256.78652    216009.12   -18650.084    1425.2011   -20075.285    16.377601   0.94393226 
    4900    244.41784   -383.48346    216009.12   -18604.133    1421.4267    -20025.56    16.912414   0.94393226 
    5000    235.24834   -414.00527    216009.12   -18647.779     1368.101    -20015.88     17.26775   0.94393226 
    5100    240.21866   -215.59071    216009.12   -18637.601    1397.0061   -20034.607    17.395886   0.94393226 
    5200    237.49176   -269.61226    216009.12   -18666.901    1381.1477   -20048.049    17.389719   0.94393226 
    5300    238.57816   -272.78221    216009.12   -18723.512    1387.4657   -20110.978    17.659248   0.94393226 
    5400    236.18259   -289.97002    216009.12   -18721.415    1373.5341   -20094.949    18.070345   0.94393226 
    5500    246.07964   -405.62453    216009.12   -18708.098     1431.091   -20139.189    18.383589   0.94393226 
    5600    232.22233   -428.75847    216009.12   -18735.706     1350.503   -20086.209    18.575132   0.94393226 
    5700    235.24648   -424.28791    216009.12    -18687.28    1368.0901    -20055.37    18.855255   0.94393226 
    5800    239.10869   -367.04276    216009.12   -18692.808     1390.551   -20083.359    19.216143   0.94393226 
    5900    239.14935   -421.51525    216009.12   -18731.824    1390.7875   -20122.611    19.072404   0.94393226 
    6000    237.81834    -193.2621    216009.12   -18750.597    1383.0469   -20133.644    19.424551   0.94393226 
    6100    238.65481   -138.95278    216009.12   -18770.915    1387.9115   -20158.826    19.992415   0.94393226 
    6200    231.55254   -363.45697    216009.12   -18746.609    1346.6078   -20093.217    20.558355   0.94393226 
    6300    240.06468    -306.4576    216009.12   -18674.344    1396.1106   -20070.454    20.740203   0.94393226 
    6400    240.17697   -398.18625    216009.12   -18684.718    1396.7637   -20081.482    20.827297   0.94393226 
    6500    234.36343   -355.92886    216009.12   -18689.409    1362.9547   -20052.364    20.948055   0.94393226 
    6600    234.11432   -252.79984    216009.12   -18717.953     1361.506   -20079.459    21.089248   0.94393226 
    6700    233.83443    -219.3882    216009.12   -18734.738    1359.8782   -20094.617    21.357998   0.94393226 
    6800    236.90466   -265.92642    216009.12   -18714.524    1377.7334   -20092.258    21.524471   0.94393226 
    6900    239.28058   -199.10003    216009.12   -18687.907    1391.5506   -20079.458    21.903606   0.94393226 
    7000     244.6511   -281.09763    216009.12   -18690.142    1422.7832   -20112.925     22.05257   0.94393226 
    7100     241.2189    -120.1397    216009.12   -18694.725    1402.8231   -20097.548    22.366888   0.94393226 
    7200    235.47418   -287.63426    216009.12   -18738.884    1369.4143   -20108.298    22.592584   0.94393226 
    7300    227.86776   -268.06063    216009.12   -18754.168    1325.1787   -20079.346      22.7486   0.94393226 
    7400    242.11896   -181.91156    216009.12   -18721.305    1408.0574   -20129.363    23.336006   0.94393226 
    7500    241.28806   -292.70154    216009.12   -18702.243    1403.2253   -20105.469    23.885011   0.94393226 
    7600    244.22005   -373.49468    216009.12   -18662.852    1420.2764   -20083.129    24.120432   0.94393226 
    7700    240.81144   -416.28401    216009.12   -18670.836    1400.4535    -20071.29    24.045065   0.94393226 
    7800    233.66225    -288.1673    216009.12   -18727.672    1358.8769   -20086.549     24.47513   0.94393226 
    7900    240.97884   -364.00515    216009.12   -18691.056     1401.427   -20092.483    24.485256   0.94393226 
    8000    244.98941    -229.2114    216009.12   -18626.062    1424.7507   -20050.813    24.296932   0.94393226 
    8100    242.14662   -253.34942    216009.12   -18605.465    1408.2183   -20013.684    24.897212   0.94393226 
    8200    235.56638   -380.53065    216009.12   -18608.721    1369.9505   -19978.671    25.487378   0.94393226 
    8300    246.14944    -409.6294    216009.12    -18557.05    1431.4969   -19988.547     25.96764   0.94393226 
    8400    244.02076    -269.2415    216009.12   -18541.952    1419.1174   -19961.069    26.332968   0.94393226 
    8500    243.53673   -249.91845    216009.12   -18578.401    1416.3026   -19994.704    27.119212   0.94393226 
    8600    239.96099    -365.6162    216009.12   -18592.621    1395.5076   -19988.129    27.737285   0.94393226 
    8700    243.01137   -454.21439    216009.12   -18616.035    1413.2473   -20029.282    27.886275   0.94393226 
    8800    243.97223   -268.59498    216009.12   -18624.208    1418.8352   -20043.043     28.02613   0.94393226 
    8900    240.43493    -208.0141    216009.12   -18669.043    1398.2639   -20067.307     28.28917   0.94393226 
    9000    234.35784   -296.05666    216009.12   -18641.083    1362.9222   -20004.005    28.757826   0.94393226 
    9100    240.19206    -368.7649    216009.12   -18660.568    1396.8514    -20057.42    28.904984   0.94393226 
    9200    238.32314   -457.37957    216009.12   -18612.272    1385.9826   -19998.254    29.728028   0.94393226 
    9300    244.23081   -247.58865    216009.12   -18675.899     1420.339   -20096.238    30.371187   0.94393226 
    9400    239.66854     -432.183    216009.12   -18664.135    1393.8068   -20057.942    30.884786   0.94393226 
    9500    238.43551    -361.7291    216009.12   -18696.425    1386.6361   -20083.061    31.501043   0.94393226 
    9600    235.59932   -259.75349    216009.12   -18709.965    1370.1421   -20080.108    32.289509   0.94393226 
    9700       236.26   -256.15378    216009.12   -18668.213    1373.9843   -20042.197    32.386673   0.94393226 
    9800    248.59805   -227.95478    216009.12    -18630.64     1445.737   -20076.377    32.536722   0.94393226 
    9900    244.15473   -300.70361    216009.12   -18662.237    1419.8966   -20082.134    32.881015   0.94393226 
   10000    236.87759   -302.95581    216009.12   -18669.926    1377.5759   -20047.502    33.359326   0.94393226 
Loop time of 14.5789 on 160 procs for 10000 steps with 9248 atoms

Performance: 296.318 ns/day, 0.081 hours/ns, 685.921 timesteps/s
97.6% CPU use with 160 MPI tasks x no OpenMP threads

MPI task timing breakdown:
Section |  min time  |  avg time  |  max time  |%varavg| %total
---------------------------------------------------------------
Pair    | 0.00045323 | 2.9607     | 11.969     | 236.5 | 20.31
Neigh   | 0.00033069 | 0.094826   | 0.36091    |  39.2 |  0.65
Comm    | 0.014843   | 3.5384     | 11.78      | 218.0 | 24.27
Output  | 0.17552    | 0.17569    | 0.18251    |   0.1 |  1.21
Modify  | 0.40149    | 7.6398     | 14.228     | 220.2 | 52.40
Other   |            | 0.1695     |            |       |  1.16

Nlocal:    57.8 ave 196 max 0 min
Histogram: 72 22 26 0 0 0 0 0 13 27
Nghost:    534.812 ave 920 max 0 min
Histogram: 24 0 0 8 6 46 27 17 17 15
Neighs:    0 ave 0 max 0 min
Histogram: 160 0 0 0 0 0 0 0 0 0
FullNghs:  5917.45 ave 23672 max 0 min
Histogram: 101 19 0 0 0 0 0 2 19 19

Total # of neighbors = 946792
Ave neighs/atom = 102.378
Neighbor list builds = 568
Dangerous builds = 0
write_data 	    ${DIR}/data.${NAME}_eq
write_data 	    run_4/data.${NAME}_eq
write_data 	    run_4/data.ibeam_cooling_4_eq

undump              1
unfix               4



################################################
#######         Run Simulation         #########
################################################

reset_timestep      0
timestep	    10.0
log                 ${DIR}/log.run_${NAME}
log                 run_4/log.run_${NAME}
log                 run_4/log.run_ibeam_cooling_4
