LAMMPS data file via write_data, version 29 Sep 2021, timestep = 6000000

6871 atoms
2 atom types

0 68.908 xlo xhi
0 68.92587069519459 ylo yhi
0 27.952761301163882 zlo zhi

Masses

1 12.01
2 18.015

Atoms # atomic

1 1 0 2.8417180249513345 1.677 0 0 0
3 1 0 0 1.677 0 0 0
5 1 1.2305 0.7104295062378347 1.677 0 0 0
12 1 1.2305 2.1312885187135 1.677 0 0 0
14 1 2.461 2.8417180249513345 1.677 0 0 0
16 1 2.461 0 1.677 0 0 0
18 1 3.6915 0.7104295062378347 1.677 0 0 0
33 1 3.6914999999999996 2.1312885187135 1.677 0 0 0
8 1 0 4.262577037427 1.677 0 0 0
29 1 2.461 4.262577037427 1.677 0 0 0
35 1 4.922 2.841718024951334 1.677 0 0 0
37 1 4.922 0 1.677 0 0 0
39 1 6.1525 0.7104295062378343 1.677 0 0 0
62 1 6.1525 2.1312885187134993 1.677 0 0 0
64 1 7.382999999999999 2.8417180249513345 1.677 0 0 0
66 1 7.382999999999999 0 1.677 0 0 0
68 1 8.613499999999998 0.7104295062378343 1.677 0 0 0
96 1 8.613499999999998 2.1312885187135002 1.677 0 0 0
58 1 4.922 4.262577037426999 1.677 0 0 0
92 1 7.382999999999999 4.262577037427 1.677 0 0 0
10 1 1.2305000000000001 4.973006543664834 1.677 0 0 0
25 1 1.2305 6.393865556140499 1.677 0 0 0
31 1 3.6914999999999996 4.973006543664834 1.677 0 0 0
54 1 3.6914999999999996 6.393865556140499 1.677 0 0 0
6 1 0 7.104295062378334 1.677 0 0 0
21 1 0 8.525154074854 1.677 0 0 0
27 1 2.461 7.104295062378334 1.677 0 0 0
50 1 2.4609999999999994 8.525154074854 1.677 0 0 0
60 1 6.1525 4.973006543664834 1.677 0 0 0
88 1 6.1525 6.393865556140499 1.677 0 0 0
56 1 4.922 7.104295062378334 1.677 0 0 0
84 1 4.922 8.525154074854 1.677 0 0 0
90 1 7.383 7.104295062378334 1.677 0 0 0
118 1 7.383 8.525154074854 1.677 0 0 0
2 1 0 1.420859012475665 5.031000000000001 0 0 0
4 1 0 0 5.031000000000001 0 0 0
13 1 1.2305 2.1312885187135 5.031000000000001 0 0 0
15 1 2.461 1.420859012475665 5.031000000000001 0 0 0
17 1 2.461 0 5.031000000000001 0 0 0
34 1 3.6914999999999996 2.1312885187135 5.031000000000001 0 0 0
9 1 0 4.262577037427 5.031000000000001 0 0 0
11 1 1.2305 3.552147531189165 5.031000000000001 0 0 0
30 1 2.461 4.262577037427 5.031000000000001 0 0 0
32 1 3.6914999999999996 3.552147531189165 5.031000000000001 0 0 0
36 1 4.922 1.420859012475665 5.031000000000001 0 0 0
38 1 4.922 0 5.031000000000001 0 0 0
63 1 6.1525 2.1312885187134993 5.031000000000001 0 0 0
65 1 7.382999999999999 1.420859012475666 5.031000000000001 0 0 0
67 1 7.382999999999999 0 5.031000000000001 0 0 0
97 1 8.613499999999998 2.1312885187135002 5.031000000000001 0 0 0
59 1 4.922 4.262577037426999 5.031000000000001 0 0 0
61 1 6.1525 3.5521475311891653 5.031000000000001 0 0 0
93 1 7.382999999999999 4.262577037427 5.031000000000001 0 0 0
95 1 8.613499999999998 3.552147531189166 5.031000000000001 0 0 0
7 1 0 5.683436049902665 5.031000000000001 0 0 0
26 1 1.2305 6.393865556140499 5.031000000000001 0 0 0
28 1 2.461 5.683436049902665 5.031000000000001 0 0 0
55 1 3.6914999999999996 6.393865556140499 5.031000000000001 0 0 0
22 1 0 8.525154074854 5.031000000000001 0 0 0
24 1 1.2304999999999997 7.814724568616164 5.031000000000001 0 0 0
51 1 2.4609999999999994 8.525154074854 5.031000000000001 0 0 0
53 1 3.6914999999999996 7.814724568616165 5.031000000000001 0 0 0
57 1 4.922 5.6834360499026655 5.031000000000001 0 0 0
89 1 6.1525 6.393865556140499 5.031000000000001 0 0 0
91 1 7.382999999999999 5.6834360499026655 5.031000000000001 0 0 0
85 1 4.922 8.525154074854 5.031000000000001 0 0 0
87 1 6.1525 7.814724568616166 5.031000000000001 0 0 0
119 1 7.383 8.525154074854 5.031000000000001 0 0 0
325 1 0 2.8417180249513345 8.385 0 0 0
326 1 0 0 8.385 0 0 0
327 1 1.2305 0.7104295062378347 8.385 0 0 0
331 1 1.2305 2.1312885187135 8.385 0 0 0
332 1 2.461 2.8417180249513345 8.385 0 0 0
333 1 2.461 0 8.385 0 0 0
334 1 3.6915 0.7104295062378347 8.385 0 0 0
342 1 3.6914999999999996 2.1312885187135 8.385 0 0 0
329 1 0 4.262577037427 8.385 0 0 0
340 1 2.461 4.262577037427 8.385 0 0 0
343 1 4.922 2.841718024951334 8.385 0 0 0
344 1 4.922 0 8.385 0 0 0
345 1 6.1525 0.7104295062378343 8.385 0 0 0
357 1 6.1525 2.1312885187134993 8.385 0 0 0
358 1 7.382999999999999 2.8417180249513345 8.385 0 0 0
359 1 7.382999999999999 0 8.385 0 0 0
360 1 8.613499999999998 0.7104295062378343 8.385 0 0 0
374 1 8.613499999999998 2.1312885187135002 8.385 0 0 0
355 1 4.922 4.262577037426999 8.385 0 0 0
372 1 7.382999999999999 4.262577037427 8.385 0 0 0
330 1 1.2305000000000001 4.973006543664834 8.385 0 0 0
338 1 1.2305 6.393865556140499 8.385 0 0 0
341 1 3.6914999999999996 4.973006543664834 8.385 0 0 0
353 1 3.6914999999999996 6.393865556140499 8.385 0 0 0
328 1 0 7.104295062378334 8.385 0 0 0
336 1 0 8.525154074854 8.385 0 0 0
339 1 2.461 7.104295062378334 8.385 0 0 0
351 1 2.4609999999999994 8.525154074854 8.385 0 0 0
356 1 6.1525 4.973006543664834 8.385 0 0 0
370 1 6.1525 6.393865556140499 8.385 0 0 0
354 1 4.922 7.104295062378334 8.385 0 0 0
368 1 4.922 8.525154074854 8.385 0 0 0
371 1 7.383 7.104295062378334 8.385 0 0 0
385 1 7.383 8.525154074854 8.385 0 0 0
23 1 1.2304999999999997 9.235583581091834 1.677 0 0 0
52 1 3.6915 9.235583581091834 1.677 0 0 0
19 1 0 11.366872099805333 1.677 0 0 0
42 1 0 12.787731112280998 1.677 0 0 0
46 1 1.2304999999999997 10.656442593567498 1.677 0 0 0
48 1 2.461 11.366872099805335 1.677 0 0 0
76 1 2.461 12.787731112280998 1.677 0 0 0
80 1 3.6914999999999996 10.6564425935675 1.677 0 0 0
86 1 6.1525 9.235583581091834 1.677 0 0 0
120 1 8.613499999999998 9.235583581091834 1.677 0 0 0
82 1 4.922 11.366872099805333 1.677 0 0 0
110 1 4.922 12.787731112281 1.677 0 0 0
114 1 6.1525 10.6564425935675 1.677 0 0 0
116 1 7.382999999999999 11.366872099805335 1.677 0 0 0
144 1 7.382999999999999 12.787731112280998 1.677 0 0 0
148 1 8.613499999999998 10.656442593567498 1.677 0 0 0
44 1 1.2305000000000001 13.498160618518833 1.677 0 0 0
78 1 3.6915 13.498160618518833 1.677 0 0 0
40 1 0 15.629449137232333 1.677 0 0 0
69 1 0 17.050308149708 1.677 0 0 0
72 1 1.2305000000000001 14.919019630994498 1.677 0 0 0
74 1 2.4610000000000003 15.629449137232331 1.677 0 0 0
103 1 2.4610000000000003 17.050308149708 1.677 0 0 0
106 1 3.6915 14.919019630994498 1.677 0 0 0
112 1 6.152499999999999 13.498160618518833 1.677 0 0 0
108 1 4.921999999999999 15.629449137232333 1.677 0 0 0
137 1 4.921999999999999 17.050308149708 1.677 0 0 0
140 1 6.152499999999999 14.919019630994498 1.677 0 0 0
142 1 7.382999999999999 15.629449137232333 1.677 0 0 0
171 1 7.383 17.050308149708 1.677 0 0 0
20 1 0 9.946013087329664 5.031000000000001 0 0 0
49 1 2.4609999999999994 9.946013087329664 5.031000000000001 0 0 0
43 1 0 12.787731112280998 5.031000000000001 0 0 0
45 1 1.2304999999999997 12.077301606043164 5.031000000000001 0 0 0
47 1 1.2304999999999997 10.656442593567498 5.031000000000001 0 0 0
77 1 2.461 12.787731112280998 5.031000000000001 0 0 0
79 1 3.6914999999999996 12.077301606043164 5.031000000000001 0 0 0
81 1 3.6914999999999996 10.6564425935675 5.031000000000001 0 0 0
83 1 4.922 9.946013087329666 5.031000000000001 0 0 0
117 1 7.383 9.946013087329664 5.031000000000001 0 0 0
111 1 4.922 12.787731112281 5.031000000000001 0 0 0
113 1 6.1525 12.077301606043164 5.031000000000001 0 0 0
115 1 6.1525 10.6564425935675 5.031000000000001 0 0 0
145 1 7.382999999999999 12.787731112280998 5.031000000000001 0 0 0
149 1 8.613499999999998 10.656442593567498 5.031000000000001 0 0 0
41 1 0 14.208590124756665 5.031000000000001 0 0 0
70 1 0 17.050308149708 5.031000000000001 0 0 0
71 1 1.2305000000000001 16.339878643470165 5.031000000000001 0 0 0
73 1 1.2305000000000001 14.919019630994498 5.031000000000001 0 0 0
75 1 2.461 14.208590124756665 5.031000000000001 0 0 0
104 1 2.4610000000000003 17.050308149708 5.031000000000001 0 0 0
105 1 3.6915 16.339878643470165 5.031000000000001 0 0 0
107 1 3.6915 14.919019630994498 5.031000000000001 0 0 0
109 1 4.922 14.208590124756663 5.031000000000001 0 0 0
138 1 4.921999999999999 17.050308149708 5.031000000000001 0 0 0
139 1 6.1525 16.339878643470165 5.031000000000001 0 0 0
141 1 6.152499999999999 14.919019630994498 5.031000000000001 0 0 0
143 1 7.383 14.208590124756665 5.031000000000001 0 0 0
172 1 7.383 17.050308149708 5.031000000000001 0 0 0
173 1 8.613499999999998 16.339878643470165 5.031000000000001 0 0 0
337 1 1.2304999999999997 9.235583581091834 8.385 0 0 0
352 1 3.6915 9.235583581091834 8.385 0 0 0
335 1 0 11.366872099805333 8.385 0 0 0
347 1 0 12.787731112280998 8.385 0 0 0
349 1 1.2304999999999997 10.656442593567498 8.385 0 0 0
350 1 2.461 11.366872099805335 8.385 0 0 0
364 1 2.461 12.787731112280998 8.385 0 0 0
366 1 3.6914999999999996 10.6564425935675 8.385 0 0 0
369 1 6.1525 9.235583581091834 8.385 0 0 0
386 1 8.613499999999998 9.235583581091834 8.385 0 0 0
367 1 4.922 11.366872099805333 8.385 0 0 0
381 1 4.922 12.787731112281 8.385 0 0 0
383 1 6.1525 10.6564425935675 8.385 0 0 0
384 1 7.382999999999999 11.366872099805335 8.385 0 0 0
398 1 7.382999999999999 12.787731112280998 8.385 0 0 0
400 1 8.613499999999998 10.656442593567498 8.385 0 0 0
348 1 1.2305000000000001 13.498160618518833 8.385 0 0 0
365 1 3.6915 13.498160618518833 8.385 0 0 0
346 1 0 15.629449137232333 8.385 0 0 0
361 1 0 17.050308149708 8.385 0 0 0
362 1 1.2305000000000001 14.919019630994498 8.385 0 0 0
363 1 2.4610000000000003 15.629449137232331 8.385 0 0 0
378 1 2.4610000000000003 17.050308149708 8.385 0 0 0
379 1 3.6915 14.919019630994498 8.385 0 0 0
382 1 6.152499999999999 13.498160618518833 8.385 0 0 0
380 1 4.921999999999999 15.629449137232333 8.385 0 0 0
395 1 4.921999999999999 17.050308149708 8.385 0 0 0
396 1 6.152499999999999 14.919019630994498 8.385 0 0 0
397 1 7.382999999999999 15.629449137232333 8.385 0 0 0
412 1 7.383 17.050308149708 8.385 0 0 0
557 1 0 19.892026174659332 1.677 0 0 0
559 1 1.2305000000000001 17.76073765594583 1.677 0 0 0
566 1 1.2305000000000001 19.1815966684215 1.677 0 0 0
568 1 2.4609999999999994 19.892026174659332 1.677 0 0 0
570 1 3.6914999999999996 17.76073765594583 1.677 0 0 0
585 1 3.6914999999999996 19.1815966684215 1.677 0 0 0
562 1 0 21.312885187135 1.677 0 0 0
581 1 2.4609999999999994 21.312885187134995 1.677 0 0 0
587 1 4.922 19.892026174659332 1.677 0 0 0
589 1 6.1525 17.76073765594583 1.677 0 0 0
612 1 6.1525 19.1815966684215 1.677 0 0 0
614 1 7.382999999999999 19.892026174659332 1.677 0 0 0
616 1 8.613499999999998 17.76073765594583 1.677 0 0 0
608 1 4.922000000000001 21.312885187134995 1.677 0 0 0
640 1 7.382999999999999 21.312885187135 1.677 0 0 0
564 1 1.2304999999999993 22.023314693372832 1.677 0 0 0
577 1 1.2304999999999993 23.4441737058485 1.677 0 0 0
583 1 3.6914999999999996 22.023314693372832 1.677 0 0 0
604 1 3.6915000000000004 23.4441737058485 1.677 0 0 0
560 1 0 24.154603212086332 1.677 0 0 0
573 1 0 25.575462224561996 1.677 0 0 0
579 1 2.4609999999999994 24.154603212086332 1.677 0 0 0
600 1 2.4610000000000003 25.575462224561996 1.677 0 0 0
610 1 6.152499999999999 22.023314693372832 1.677 0 0 0
636 1 6.1525 23.4441737058485 1.677 0 0 0
668 1 8.613499999999998 23.4441737058485 1.677 0 0 0
606 1 4.921999999999999 24.154603212086332 1.677 0 0 0
632 1 4.922 25.575462224561996 1.677 0 0 0
638 1 7.383 24.154603212086336 1.677 0 0 0
664 1 7.382999999999999 25.575462224561996 1.677 0 0 0
558 1 0 18.471167162183665 5.031000000000001 0 0 0
565 1 1.2305000000000001 20.602455680897165 5.031000000000001 0 0 0
567 1 1.2305000000000001 19.1815966684215 5.031000000000001 0 0 0
569 1 2.4610000000000003 18.47116716218366 5.031000000000001 0 0 0
584 1 3.6915000000000004 20.602455680897165 5.031000000000001 0 0 0
586 1 3.6914999999999996 19.1815966684215 5.031000000000001 0 0 0
563 1 0 21.312885187135 5.031000000000001 0 0 0
582 1 2.4609999999999994 21.312885187134995 5.031000000000001 0 0 0
588 1 4.922000000000001 18.47116716218366 5.031000000000001 0 0 0
611 1 6.1525 20.602455680897165 5.031000000000001 0 0 0
613 1 6.1525 19.1815966684215 5.031000000000001 0 0 0
615 1 7.382999999999999 18.471167162183665 5.031000000000001 0 0 0
643 1 8.613499999999998 20.60245568089716 5.031000000000001 0 0 0
609 1 4.922000000000001 21.312885187134995 5.031000000000001 0 0 0
641 1 7.382999999999999 21.312885187135 5.031000000000001 0 0 0
561 1 0 22.733744199610662 5.031000000000001 0 0 0
578 1 1.2304999999999993 23.4441737058485 5.031000000000001 0 0 0
580 1 2.4610000000000003 22.733744199610662 5.031000000000001 0 0 0
605 1 3.6915000000000004 23.4441737058485 5.031000000000001 0 0 0
574 1 0 25.575462224561996 5.031000000000001 0 0 0
576 1 1.2305000000000001 24.865032718324162 5.031000000000001 0 0 0
601 1 2.4610000000000003 25.575462224561996 5.031000000000001 0 0 0
603 1 3.6914999999999996 24.865032718324166 5.031000000000001 0 0 0
607 1 4.922 22.733744199610662 5.031000000000001 0 0 0
637 1 6.1525 23.4441737058485 5.031000000000001 0 0 0
639 1 7.382999999999999 22.733744199610662 5.031000000000001 0 0 0
669 1 8.613499999999998 23.4441737058485 5.031000000000001 0 0 0
633 1 4.922 25.575462224561996 5.031000000000001 0 0 0
635 1 6.152499999999999 24.86503271832416 5.031000000000001 0 0 0
665 1 7.382999999999999 25.575462224561996 5.031000000000001 0 0 0
667 1 8.613499999999998 24.86503271832416 5.031000000000001 0 0 0
861 1 0 19.892026174659332 8.385 0 0 0
862 1 1.2305000000000001 17.76073765594583 8.385 0 0 0
866 1 1.2305000000000001 19.1815966684215 8.385 0 0 0
867 1 2.4609999999999994 19.892026174659332 8.385 0 0 0
868 1 3.6914999999999996 17.76073765594583 8.385 0 0 0
876 1 3.6914999999999996 19.1815966684215 8.385 0 0 0
864 1 0 21.312885187135 8.385 0 0 0
874 1 2.4609999999999994 21.312885187134995 8.385 0 0 0
877 1 4.922 19.892026174659332 8.385 0 0 0
878 1 6.1525 17.76073765594583 8.385 0 0 0
890 1 6.1525 19.1815966684215 8.385 0 0 0
891 1 7.382999999999999 19.892026174659332 8.385 0 0 0
892 1 8.613499999999998 17.76073765594583 8.385 0 0 0
888 1 4.922000000000001 21.312885187134995 8.385 0 0 0
904 1 7.382999999999999 21.312885187135 8.385 0 0 0
865 1 1.2304999999999993 22.023314693372832 8.385 0 0 0
872 1 1.2304999999999993 23.4441737058485 8.385 0 0 0
875 1 3.6914999999999996 22.023314693372832 8.385 0 0 0
886 1 3.6915000000000004 23.4441737058485 8.385 0 0 0
863 1 0 24.154603212086332 8.385 0 0 0
870 1 0 25.575462224561996 8.385 0 0 0
873 1 2.4609999999999994 24.154603212086332 8.385 0 0 0
884 1 2.4610000000000003 25.575462224561996 8.385 0 0 0
889 1 6.152499999999999 22.023314693372832 8.385 0 0 0
902 1 6.1525 23.4441737058485 8.385 0 0 0
918 1 8.613499999999998 23.4441737058485 8.385 0 0 0
887 1 4.921999999999999 24.154603212086332 8.385 0 0 0
900 1 4.922 25.575462224561996 8.385 0 0 0
903 1 7.383 24.154603212086336 8.385 0 0 0
916 1 7.382999999999999 25.575462224561996 8.385 0 0 0
575 1 1.2305000000000001 26.285891730799833 1.677 0 0 0
602 1 3.6914999999999987 26.285891730799833 1.677 0 0 0
571 1 0 28.417180249513333 1.677 0 0 0
592 1 0 29.838039261988996 1.677 0 0 0
596 1 1.230500000000001 27.706750743275496 1.677 0 0 0
598 1 2.4609999999999994 28.41718024951333 1.677 0 0 0
624 1 2.4610000000000003 29.838039261988996 1.677 0 0 0
628 1 3.6914999999999996 27.7067507432755 1.677 0 0 0
634 1 6.1525 26.285891730799836 1.677 0 0 0
630 1 4.922 28.417180249513336 1.677 0 0 0
656 1 4.921999999999999 29.838039261988996 1.677 0 0 0
660 1 6.152499999999999 27.7067507432755 1.677 0 0 0
662 1 7.383000000000001 28.417180249513336 1.677 0 0 0
688 1 7.383 29.838039261988996 1.677 0 0 0
594 1 1.2304999999999993 30.548468768226833 1.677 0 0 0
626 1 3.6915000000000004 30.548468768226833 1.677 0 0 0
590 1 0 32.67975728694033 1.677 0 0 0
617 1 0 34.100616299416 1.677 0 0 0
620 1 1.2304999999999993 31.969327780702496 1.677 0 0 0
622 1 2.4610000000000003 32.67975728694034 1.677 0 0 0
649 1 2.4609999999999985 34.100616299416 1.677 0 0 0
652 1 3.6914999999999996 31.969327780702496 1.677 0 0 0
658 1 6.152500000000001 30.548468768226833 1.677 0 0 0
654 1 4.9220000000000015 32.67975728694034 1.677 0 0 0
681 1 4.922000000000001 34.100616299416 1.677 0 0 0
684 1 6.1525 31.9693277807025 1.677 0 0 0
686 1 7.383 32.67975728694033 1.677 0 0 0
713 1 7.382999999999999 34.100616299416 1.677 0 0 0
716 1 8.613499999999998 31.9693277807025 1.677 0 0 0
572 1 0 26.996321237037662 5.031000000000001 0 0 0
599 1 2.4609999999999994 26.996321237037662 5.031000000000001 0 0 0
593 1 0 29.838039261988996 5.031000000000001 0 0 0
595 1 1.2304999999999993 29.127609755751163 5.031000000000001 0 0 0
597 1 1.230500000000001 27.706750743275496 5.031000000000001 0 0 0
625 1 2.4610000000000003 29.838039261988996 5.031000000000001 0 0 0
627 1 3.6914999999999987 29.12760975575116 5.031000000000001 0 0 0
629 1 3.6914999999999996 27.7067507432755 5.031000000000001 0 0 0
631 1 4.921999999999999 26.996321237037662 5.031000000000001 0 0 0
663 1 7.382999999999998 26.996321237037662 5.031000000000001 0 0 0
657 1 4.921999999999999 29.838039261988996 5.031000000000001 0 0 0
659 1 6.152499999999998 29.12760975575116 5.031000000000001 0 0 0
661 1 6.152499999999999 27.7067507432755 5.031000000000001 0 0 0
689 1 7.383 29.838039261988996 5.031000000000001 0 0 0
691 1 8.613499999999998 29.12760975575116 5.031000000000001 0 0 0
591 1 0 31.258898274464663 5.031000000000001 0 0 0
618 1 0 34.100616299416 5.031000000000001 0 0 0
619 1 1.2304999999999993 33.39018679317816 5.031000000000001 0 0 0
621 1 1.2304999999999993 31.969327780702496 5.031000000000001 0 0 0
623 1 2.4609999999999985 31.25889827446466 5.031000000000001 0 0 0
650 1 2.4609999999999985 34.100616299416 5.031000000000001 0 0 0
651 1 3.691499999999998 33.39018679317816 5.031000000000001 0 0 0
653 1 3.6914999999999996 31.969327780702496 5.031000000000001 0 0 0
655 1 4.921999999999998 31.25889827446466 5.031000000000001 0 0 0
682 1 4.922000000000001 34.100616299416 5.031000000000001 0 0 0
683 1 6.152499999999999 33.39018679317816 5.031000000000001 0 0 0
685 1 6.1525 31.9693277807025 5.031000000000001 0 0 0
687 1 7.382999999999999 31.258898274464663 5.031000000000001 0 0 0
714 1 7.382999999999999 34.100616299416 5.031000000000001 0 0 0
715 1 8.613499999999998 33.39018679317816 5.031000000000001 0 0 0
717 1 8.613499999999998 31.9693277807025 5.031000000000001 0 0 0
871 1 1.2305000000000001 26.285891730799833 8.385 0 0 0
885 1 3.6914999999999987 26.285891730799833 8.385 0 0 0
869 1 0 28.417180249513333 8.385 0 0 0
880 1 0 29.838039261988996 8.385 0 0 0
882 1 1.230500000000001 27.706750743275496 8.385 0 0 0
883 1 2.4609999999999994 28.41718024951333 8.385 0 0 0
896 1 2.4610000000000003 29.838039261988996 8.385 0 0 0
898 1 3.6914999999999996 27.7067507432755 8.385 0 0 0
901 1 6.1525 26.285891730799836 8.385 0 0 0
899 1 4.922 28.417180249513336 8.385 0 0 0
912 1 4.921999999999999 29.838039261988996 8.385 0 0 0
914 1 6.152499999999999 27.7067507432755 8.385 0 0 0
915 1 7.383000000000001 28.417180249513336 8.385 0 0 0
928 1 7.383 29.838039261988996 8.385 0 0 0
881 1 1.2304999999999993 30.548468768226833 8.385 0 0 0
897 1 3.6915000000000004 30.548468768226833 8.385 0 0 0
879 1 0 32.67975728694033 8.385 0 0 0
893 1 0 34.100616299416 8.385 0 0 0
894 1 1.2304999999999993 31.969327780702496 8.385 0 0 0
895 1 2.4610000000000003 32.67975728694034 8.385 0 0 0
909 1 2.4609999999999985 34.100616299416 8.385 0 0 0
910 1 3.6914999999999996 31.969327780702496 8.385 0 0 0
913 1 6.152500000000001 30.548468768226833 8.385 0 0 0
911 1 4.9220000000000015 32.67975728694034 8.385 0 0 0
925 1 4.922000000000001 34.100616299416 8.385 0 0 0
926 1 6.1525 31.9693277807025 8.385 0 0 0
927 1 7.383 32.67975728694033 8.385 0 0 0
941 1 7.382999999999999 34.100616299416 8.385 0 0 0
942 1 8.613499999999998 31.9693277807025 8.385 0 0 0
1075 1 0 36.94233432436734 1.677 0 0 0
1077 1 1.230500000000001 34.81104580565383 1.677 0 0 0
1084 1 1.2304999999999993 36.23190481812949 1.677 0 0 0
1086 1 2.461000000000002 36.94233432436734 1.677 0 0 0
1088 1 3.6915000000000013 34.81104580565383 1.677 0 0 0
1103 1 3.6914999999999996 36.23190481812949 1.677 0 0 0
1080 1 0 38.363193336843 1.677 0 0 0
1099 1 2.4610000000000003 38.363193336843 1.677 0 0 0
1105 1 4.922000000000001 36.94233432436733 1.677 0 0 0
1107 1 6.152500000000001 34.81104580565383 1.677 0 0 0
1130 1 6.1525 36.23190481812949 1.677 0 0 0
1132 1 7.383000000000002 36.94233432436733 1.677 0 0 0
1162 1 8.613499999999998 36.23190481812949 1.677 0 0 0
1126 1 4.921999999999999 38.363193336843 1.677 0 0 0
1158 1 7.382999999999999 38.363193336843 1.677 0 0 0
1078 1 0 41.20491136179434 1.677 0 0 0
1082 1 1.230500000000001 39.07362284308084 1.677 0 0 0
1095 1 1.230500000000001 40.4944818555565 1.677 0 0 0
1097 1 2.4610000000000003 41.20491136179433 1.677 0 0 0
1101 1 3.6915000000000013 39.07362284308083 1.677 0 0 0
1122 1 3.6914999999999996 40.4944818555565 1.677 0 0 0
1091 1 0 42.62577037427 1.677 0 0 0
1118 1 2.4610000000000003 42.62577037427 1.677 0 0 0
1124 1 4.922000000000002 41.20491136179433 1.677 0 0 0
1128 1 6.152500000000002 39.073622843080834 1.677 0 0 0
1154 1 6.152499999999998 40.494481855556494 1.677 0 0 0
1156 1 7.383000000000001 41.20491136179433 1.677 0 0 0
1150 1 4.921999999999999 42.62577037426999 1.677 0 0 0
1182 1 7.382999999999999 42.62577037426999 1.677 0 0 0
1076 1 0 35.521475311891656 5.031000000000001 0 0 0
1083 1 1.2304999999999993 37.65276383060515 5.031000000000001 0 0 0
1085 1 1.2304999999999993 36.23190481812949 5.031000000000001 0 0 0
1087 1 2.4609999999999985 35.52147531189166 5.031000000000001 0 0 0
1102 1 3.6914999999999996 37.65276383060516 5.031000000000001 0 0 0
1104 1 3.6914999999999996 36.23190481812949 5.031000000000001 0 0 0
1081 1 0 38.363193336843 5.031000000000001 0 0 0
1100 1 2.4610000000000003 38.363193336843 5.031000000000001 0 0 0
1106 1 4.921999999999999 35.52147531189166 5.031000000000001 0 0 0
1129 1 6.152499999999998 37.65276383060516 5.031000000000001 0 0 0
1131 1 6.1525 36.23190481812949 5.031000000000001 0 0 0
1133 1 7.382999999999998 35.52147531189166 5.031000000000001 0 0 0
1161 1 8.613499999999998 37.65276383060516 5.031000000000001 0 0 0
1163 1 8.613499999999998 36.23190481812949 5.031000000000001 0 0 0
1127 1 4.921999999999999 38.363193336843 5.031000000000001 0 0 0
1159 1 7.382999999999999 38.363193336843 5.031000000000001 0 0 0
1079 1 0 39.78405234931866 5.031000000000001 0 0 0
1096 1 1.230500000000001 40.4944818555565 5.031000000000001 0 0 0
1098 1 2.4610000000000003 39.78405234931866 5.031000000000001 0 0 0
1123 1 3.6914999999999996 40.4944818555565 5.031000000000001 0 0 0
1092 1 0 42.62577037427 5.031000000000001 0 0 0
1094 1 1.230500000000001 41.91534086803216 5.031000000000001 0 0 0
1119 1 2.4610000000000003 42.62577037427 5.031000000000001 0 0 0
1121 1 3.6914999999999996 41.91534086803216 5.031000000000001 0 0 0
1125 1 4.921999999999999 39.78405234931866 5.031000000000001 0 0 0
1155 1 6.152499999999998 40.494481855556494 5.031000000000001 0 0 0
1157 1 7.382999999999997 39.78405234931866 5.031000000000001 0 0 0
1151 1 4.921999999999999 42.62577037426999 5.031000000000001 0 0 0
1153 1 6.152499999999998 41.91534086803216 5.031000000000001 0 0 0
1183 1 7.382999999999999 42.62577037426999 5.031000000000001 0 0 0
1185 1 8.613499999999997 41.91534086803216 5.031000000000001 0 0 0
1379 1 0 36.94233432436734 8.385 0 0 0
1380 1 1.230500000000001 34.81104580565383 8.385 0 0 0
1384 1 1.2304999999999993 36.23190481812949 8.385 0 0 0
1385 1 2.461000000000002 36.94233432436734 8.385 0 0 0
1386 1 3.6915000000000013 34.81104580565383 8.385 0 0 0
1394 1 3.6914999999999996 36.23190481812949 8.385 0 0 0
1382 1 0 38.363193336843 8.385 0 0 0
1392 1 2.4610000000000003 38.363193336843 8.385 0 0 0
1395 1 4.922000000000001 36.94233432436733 8.385 0 0 0
1396 1 6.152500000000001 34.81104580565383 8.385 0 0 0
1408 1 6.1525 36.23190481812949 8.385 0 0 0
1409 1 7.383000000000002 36.94233432436733 8.385 0 0 0
1424 1 8.613499999999998 36.23190481812949 8.385 0 0 0
1406 1 4.921999999999999 38.363193336843 8.385 0 0 0
1422 1 7.382999999999999 38.363193336843 8.385 0 0 0
1381 1 0 41.20491136179434 8.385 0 0 0
1383 1 1.230500000000001 39.07362284308084 8.385 0 0 0
1390 1 1.230500000000001 40.4944818555565 8.385 0 0 0
1391 1 2.4610000000000003 41.20491136179433 8.385 0 0 0
1393 1 3.6915000000000013 39.07362284308083 8.385 0 0 0
1404 1 3.6914999999999996 40.4944818555565 8.385 0 0 0
1388 1 0 42.62577037427 8.385 0 0 0
1402 1 2.4610000000000003 42.62577037427 8.385 0 0 0
1405 1 4.922000000000002 41.20491136179433 8.385 0 0 0
1407 1 6.152500000000002 39.073622843080834 8.385 0 0 0
1420 1 6.152499999999998 40.494481855556494 8.385 0 0 0
1421 1 7.383000000000001 41.20491136179433 8.385 0 0 0
1418 1 4.921999999999999 42.62577037426999 8.385 0 0 0
1434 1 7.382999999999999 42.62577037426999 8.385 0 0 0
1093 1 1.2304999999999993 43.336199880507834 1.677 0 0 0
1114 1 1.2304999999999993 44.757058892983494 1.677 0 0 0
1120 1 3.6915000000000013 43.336199880507834 1.677 0 0 0
1146 1 3.6914999999999996 44.757058892983494 1.677 0 0 0
1089 1 0 45.46748839922133 1.677 0 0 0
1110 1 0 46.888347411697 1.677 0 0 0
1116 1 2.4610000000000003 45.46748839922134 1.677 0 0 0
1142 1 2.4609999999999985 46.888347411697 1.677 0 0 0
1152 1 6.152500000000002 43.336199880507834 1.677 0 0 0
1178 1 6.1525 44.757058892983494 1.677 0 0 0
1148 1 4.922000000000001 45.46748839922134 1.677 0 0 0
1174 1 4.922000000000001 46.888347411697 1.677 0 0 0
1180 1 7.383000000000003 45.46748839922133 1.677 0 0 0
1206 1 7.383000000000001 46.888347411697 1.677 0 0 0
1112 1 1.230500000000001 47.59877691793483 1.677 0 0 0
1144 1 3.6914999999999996 47.598776917934835 1.677 0 0 0
1108 1 0 49.73006543664833 1.677 0 0 0
1135 1 0 51.15092444912399 1.677 0 0 0
1138 1 1.2304999999999993 49.019635930410494 1.677 0 0 0
1140 1 2.4610000000000003 49.73006543664833 1.677 0 0 0
1167 1 2.4610000000000003 51.15092444912399 1.677 0 0 0
1170 1 3.6914999999999996 49.019635930410494 1.677 0 0 0
1176 1 6.152500000000002 47.598776917934835 1.677 0 0 0
1172 1 4.922000000000001 49.73006543664833 1.677 0 0 0
1199 1 4.922000000000001 51.15092444912399 1.677 0 0 0
1202 1 6.152500000000002 49.019635930410494 1.677 0 0 0
1204 1 7.383000000000001 49.73006543664833 1.677 0 0 0
1231 1 7.383000000000001 51.15092444912399 1.677 0 0 0
1090 1 0 44.04662938674566 5.031000000000001 0 0 0
1115 1 1.2304999999999993 44.757058892983494 5.031000000000001 0 0 0
1117 1 2.4610000000000003 44.04662938674566 5.031000000000001 0 0 0
1147 1 3.6914999999999996 44.757058892983494 5.031000000000001 0 0 0
1111 1 0 46.888347411697 5.031000000000001 0 0 0
1113 1 1.2304999999999993 46.177917905459154 5.031000000000001 0 0 0
1143 1 2.4609999999999985 46.888347411697 5.031000000000001 0 0 0
1145 1 3.6914999999999996 46.177917905459154 5.031000000000001 0 0 0
1149 1 4.921999999999999 44.04662938674566 5.031000000000001 0 0 0
1179 1 6.1525 44.757058892983494 5.031000000000001 0 0 0
1181 1 7.382999999999997 44.046629386745664 5.031000000000001 0 0 0
1175 1 4.922000000000001 46.888347411697 5.031000000000001 0 0 0
1177 1 6.152499999999998 46.177917905459154 5.031000000000001 0 0 0
1207 1 7.383000000000001 46.888347411697 5.031000000000001 0 0 0
1109 1 0 48.30920642417266 5.031000000000001 0 0 0
1136 1 0 51.15092444912399 5.031000000000001 0 0 0
1137 1 1.2304999999999993 50.44049494288616 5.031000000000001 0 0 0
1139 1 1.2304999999999993 49.019635930410494 5.031000000000001 0 0 0
1141 1 2.4609999999999985 48.30920642417266 5.031000000000001 0 0 0
1168 1 2.4610000000000003 51.15092444912399 5.031000000000001 0 0 0
1169 1 3.691499999999998 50.44049494288616 5.031000000000001 0 0 0
1171 1 3.6914999999999996 49.019635930410494 5.031000000000001 0 0 0
1173 1 4.921999999999999 48.30920642417266 5.031000000000001 0 0 0
1200 1 4.922000000000001 51.15092444912399 5.031000000000001 0 0 0
1201 1 6.152500000000002 50.440494942886154 5.031000000000001 0 0 0
1203 1 6.152500000000002 49.019635930410494 5.031000000000001 0 0 0
1205 1 7.383000000000001 48.30920642417266 5.031000000000001 0 0 0
1232 1 7.383000000000001 51.15092444912399 5.031000000000001 0 0 0
1389 1 1.2304999999999993 43.336199880507834 8.385 0 0 0
1400 1 1.2304999999999993 44.757058892983494 8.385 0 0 0
1403 1 3.6915000000000013 43.336199880507834 8.385 0 0 0
1416 1 3.6914999999999996 44.757058892983494 8.385 0 0 0
1387 1 0 45.46748839922133 8.385 0 0 0
1398 1 0 46.888347411697 8.385 0 0 0
1401 1 2.4610000000000003 45.46748839922134 8.385 0 0 0
1414 1 2.4609999999999985 46.888347411697 8.385 0 0 0
1419 1 6.152500000000002 43.336199880507834 8.385 0 0 0
1432 1 6.1525 44.757058892983494 8.385 0 0 0
1417 1 4.922000000000001 45.46748839922134 8.385 0 0 0
1430 1 4.922000000000001 46.888347411697 8.385 0 0 0
1433 1 7.383000000000003 45.46748839922133 8.385 0 0 0
1446 1 7.383000000000001 46.888347411697 8.385 0 0 0
1399 1 1.230500000000001 47.59877691793483 8.385 0 0 0
1415 1 3.6914999999999996 47.598776917934835 8.385 0 0 0
1397 1 0 49.73006543664833 8.385 0 0 0
1411 1 0 51.15092444912399 8.385 0 0 0
1412 1 1.2304999999999993 49.019635930410494 8.385 0 0 0
1413 1 2.4610000000000003 49.73006543664833 8.385 0 0 0
1427 1 2.4610000000000003 51.15092444912399 8.385 0 0 0
1428 1 3.6914999999999996 49.019635930410494 8.385 0 0 0
1431 1 6.152500000000002 47.598776917934835 8.385 0 0 0
1429 1 4.922000000000001 49.73006543664833 8.385 0 0 0
1443 1 4.922000000000001 51.15092444912399 8.385 0 0 0
1444 1 6.152500000000002 49.019635930410494 8.385 0 0 0
1445 1 7.383000000000001 49.73006543664833 8.385 0 0 0
1459 1 7.383000000000001 51.15092444912399 8.385 0 0 0
1573 1 0 53.99264247407533 1.677 0 0 0
1575 1 1.2304999999999993 51.861353955361835 1.677 0 0 0
1582 1 1.230500000000001 53.282212967837495 1.677 0 0 0
1584 1 2.4610000000000003 53.99264247407533 1.677 0 0 0
1586 1 3.6915000000000013 51.861353955361835 1.677 0 0 0
1601 1 3.6915000000000013 53.282212967837495 1.677 0 0 0
1578 1 0 55.41350148655099 1.677 0 0 0
1597 1 2.461000000000002 55.41350148655099 1.677 0 0 0
1603 1 4.922000000000001 53.99264247407533 1.677 0 0 0
1605 1 6.1525 51.861353955361835 1.677 0 0 0
1628 1 6.1525 53.282212967837495 1.677 0 0 0
1630 1 7.382999999999999 53.99264247407534 1.677 0 0 0
1624 1 4.922000000000001 55.413501486551 1.677 0 0 0
1657 1 7.382999999999999 55.413501486551 1.677 0 0 0