
### Dimensions ###
variable Z_G equal 10.062000000000001
variable Z_W equal 17.781522602

variable	XDIM string 68.908
variable 	YDIM string 68.92587069519459


### IMPORT ATOMS ###
read_data ../Box_Setup/data.Ibeam_240K
Reading data file ...
  orthogonal box = (0.0000000 0.0000000 0.0000000) to (68.908000 68.925871 27.952761)
  4 by 8 by 2 MPI processor grid
  reading atoms ...
  6871 atoms
  reading velocities ...
  6871 velocities
  read_data CPU = 0.026 seconds
group water type 2
1355 atoms in group water
group graphite type 1
5516 atoms in group graphite


# Define potential
#
pair_style          sw
pair_coeff * * MLC_e.sw C mW

# Add velocity/set timestep
#

fix		1 graphite setforce 0.0 0.0 0.0
velocity 	graphite set 0.0 0.0 0.0
velocity            water create ${START_TEMP} ${SEED} rot yes dist gaussian
velocity            water create 240 ${SEED} rot yes dist gaussian
velocity            water create 240 7246 rot yes dist gaussian
timestep            5.0

# Define output
#
compute 1 water msd
compute 2 water temp


thermo	            100
thermo_style custom step c_2 press vol etotal ke pe c_1[4] density

# Neighbor lists
#
neigh_modify        delay 0 every 1 check yes


# Set fixes
#
fix                 2 water momentum 10 linear 1 1 1 rescale
fix                 3 all nve
fix                 4 water temp/csvr ${START_TEMP} ${START_TEMP} 500.0 928347
fix                 4 water temp/csvr 240 ${START_TEMP} 500.0 928347
fix                 4 water temp/csvr 240 240 500.0 928347

# Run 0.05 ns equilibration
#
dump                1 all custom 100 ${DIR}/eq.${NAME}.dump id type x y z vx vy vz
dump                1 all custom 100 run_4/eq.${NAME}.dump id type x y z vx vy vz
dump                1 all custom 100 run_4/eq.ibeam_cooling_4.dump id type x y z vx vy vz
run                 10000
Neighbor list info ...
  update every 1 steps, delay 0 steps, check yes
  max neighbors/atom: 2000, page size: 100000
  master list distance cutoff = 6.6747184
  ghost atom cutoff = 6.6747184
  binsize = 3.3373592, bins = 21 21 9
  1 neighbor lists, perpetual/occasional/extra = 1 0 0
  (1) pair sw, perpetual
      attributes: full, newton on
      pair build: full/bin/atomonly
      stencil: full/bin/3d
      bin: standard
Per MPI rank memory allocation (min/avg/max) = 3.624 | 4.534 | 4.748 Mbytes
Step c_2 Press Volume TotEng KinEng PotEng c_1[4] Density 
       0          240   -543.35458    132762.87   -12919.671    968.64403   -13888.315            0    1.1339035 
     100     244.1905   -177.45614    132762.87   -12886.434    985.55695   -13871.991   0.85857648    1.1339035 
     200    238.96006   -464.72015    132762.87   -12928.133    964.44681    -13892.58    1.3758025    1.1339035 
     300    235.27577   -502.52034    132762.87   -12910.113    949.57697    -13859.69    1.9171966    1.1339035 
     400    231.96943   -747.55751    132762.87   -12913.743    936.23254   -13849.976    2.3043797    1.1339035 
     500    238.10206   -316.56979    132762.87    -12912.91    960.98392   -13873.894    2.7500136    1.1339035 
     600    235.54522   -296.35066    132762.87   -12980.436    950.66449     -13931.1    3.1973923    1.1339035 
     700    234.62896   -529.72753    132762.87   -12966.638    946.96641   -13913.604    3.3986566    1.1339035 
     800    227.88633   -582.67721    132762.87   -12985.892    919.75307   -13905.645    3.7098146    1.1339035 
     900    234.86152   -234.49276    132762.87   -12956.668    947.90502   -13904.573    4.1148085    1.1339035 
    1000    242.32873    -478.7463    132762.87   -12906.292    978.04282   -13884.334    4.5220275    1.1339035 
    1100    239.48833   -493.66489    132762.87   -12917.593    966.57891   -13884.172    4.7338898    1.1339035 
    1200    233.99229   -449.54463    132762.87   -12951.389    944.39683   -13895.786    5.0908761    1.1339035 
    1300    230.21638    -464.5039    132762.87   -12912.141    929.15719   -13841.298    5.4623128    1.1339035 
    1400    242.52353    -396.4688    132762.87   -12856.876    978.82905   -13835.705    5.8480273    1.1339035 
    1500    242.98316   -415.73984    132762.87   -12871.398    980.68413   -13852.082    6.2778173    1.1339035 
    1600    252.50483   -622.46102    132762.87   -12861.306    1019.1137    -13880.42    6.7046516    1.1339035 
    1700    236.77048   -312.69293    132762.87   -12882.395    955.60964   -13838.005    7.1600861    1.1339035 
    1800    239.13261   -612.95372    132762.87   -12888.324    965.14324   -13853.467    7.1982204    1.1339035 
    1900    252.44057   -546.72974    132762.87   -12832.066    1018.8544   -13850.921    7.2893326    1.1339035 
    2000    252.14617   -335.59857    132762.87   -12813.775    1017.6662   -13831.441      7.56927    1.1339035 
    2100    252.37829   -466.26029    132762.87   -12831.725     1018.603   -13850.328    7.9935483    1.1339035 
    2200    244.18107   -698.30436    132762.87   -12830.052    985.51892   -13815.571    8.2944874    1.1339035 
    2300    246.04319   -466.91541    132762.87   -12877.815    993.03446   -13870.849     8.490645    1.1339035 
    2400    241.88651   -388.30463    132762.87   -12877.879    976.25804   -13854.137    8.7208012    1.1339035 
    2500    244.22042   -465.49398    132762.87   -12871.371    985.67771   -13857.049    9.1360111    1.1339035 
    2600    232.20847   -446.31316    132762.87   -12906.217    937.19727   -13843.414    9.3385626    1.1339035 
    2700    233.76664   -425.17279    132762.87   -12872.901    943.48608   -13816.387    9.8126408    1.1339035 
    2800    243.31582   -592.96388    132762.87   -12873.722    982.02676   -13855.749    10.152493    1.1339035 
    2900    229.98264   -611.22904    132762.87   -12913.703     928.2138   -13841.916    10.620433    1.1339035 
    3000    240.05406   -399.24776    132762.87   -12928.009    968.86224   -13896.871    10.998765    1.1339035 
    3100    239.28695   -506.47622    132762.87   -12928.644    965.76617   -13894.411    11.037281    1.1339035 
    3200    236.93868   -615.01965    132762.87   -12940.222     956.2885    -13896.51    11.307574    1.1339035 
    3300    244.07456   -545.01796    132762.87    -12893.22    985.08903   -13878.309    11.543401    1.1339035 
    3400    235.25097   -354.13663    132762.87   -12912.135    949.47688   -13861.612    11.935141    1.1339035 
    3500    239.60877   -538.98731    132762.87   -12920.464    967.06504   -13887.529    12.454105    1.1339035 
    3600    240.95265    -410.0147    132762.87   -12897.376    972.48894   -13869.865    12.825762    1.1339035 
    3700    236.92822   -350.98142    132762.87   -12926.052    956.24626   -13882.298    13.239562    1.1339035 
    3800    225.43911   -728.97249    132762.87    -12902.79    909.87604   -13812.666    13.996244    1.1339035 
    3900    239.26126   -346.58854    132762.87   -12906.815    965.66248   -13872.478    14.294482    1.1339035 
    4000    233.77869   -633.35443    132762.87   -12905.404     943.5347   -13848.938    14.297247    1.1339035 
    4100    241.67328   -411.34917    132762.87   -12876.403    975.39742   -13851.801    14.407752    1.1339035 
    4200    241.80652   -383.37029    132762.87   -12845.367    975.93519   -13821.302    14.569855    1.1339035 
    4300    255.74043   -429.72332    132762.87   -12792.512    1032.1727   -13824.684    15.066852    1.1339035 
    4400    245.36081   -640.08468    132762.87   -12801.532    990.28036   -13791.812    15.674466    1.1339035 
    4500    239.44892   -359.40726    132762.87   -12853.177    966.41986   -13819.597    16.199674    1.1339035 
    4600    236.57316   -458.46875    132762.87     -12869.6    954.81324   -13824.413     16.31135    1.1339035 
    4700    247.21526   -522.63901    132762.87   -12876.679    997.76492   -13874.444    16.829709    1.1339035 
    4800    251.83247   -377.34233    132762.87   -12872.626    1016.4001   -13889.026     17.19353    1.1339035 
    4900    233.56766   -652.82393    132762.87   -12901.945    942.68299   -13844.628     17.47823    1.1339035 
    5000    233.50201   -360.24009    132762.87   -12910.477    942.41804   -13852.895    17.990538    1.1339035 
    5100    241.36706   -678.91729    132762.87    -12921.04     974.1615   -13895.202    18.409273    1.1339035 
    5200    232.62217   -432.42293    132762.87   -12912.852    938.86697   -13851.719    18.400232    1.1339035 
    5300    237.33319   -537.43533    132762.87   -12951.906    957.88075   -13909.787    18.710471    1.1339035 
    5400    237.61794   -612.52729    132762.87    -12920.45       959.03    -13879.48    19.016137    1.1339035 
    5500    235.94854   -648.58322    132762.87   -12945.682    952.29228   -13897.975    19.287158    1.1339035 
    5600    231.18532   -479.37864    132762.87   -12949.133    933.06782   -13882.201    19.371849    1.1339035 
    5700    239.35943   -532.13985    132762.87   -12910.871    966.05867    -13876.93    20.006362    1.1339035 
    5800    241.79238    -639.0466    132762.87   -12852.999    975.87811   -13828.877    20.542117    1.1339035 
    5900    241.64965   -416.94422    132762.87   -12885.916    975.30205   -13861.218    20.859632    1.1339035 
    6000    233.76119    -617.9881    132762.87   -12956.385     943.4641   -13899.849    20.933081    1.1339035 
    6100    238.75137   -541.44533    132762.87    -12932.48    963.60456   -13896.085    21.757904    1.1339035 
    6200    231.85971   -493.96515    132762.87   -12902.321     935.7897   -13838.111    21.874362    1.1339035 
    6300    245.91241   -401.86667    132762.87   -12860.653    992.50662    -13853.16    22.237019    1.1339035 
    6400    238.22392   -574.12537    132762.87   -12871.379    961.47573   -13832.854    22.477354    1.1339035 
    6500    247.86073   -184.34652    132762.87   -12884.707    1000.3701   -13885.077     22.74833    1.1339035 
    6600    237.11609   -380.04682    132762.87   -12926.629    957.00453   -13883.633     22.96531    1.1339035 
    6700    233.23581   -496.66957    132762.87   -12950.774    941.34366   -13892.118    23.355131    1.1339035 
    6800    238.79438   -474.06596    132762.87   -12926.465    963.77814   -13890.244    24.155433    1.1339035 
    6900    234.32053   -324.45377    132762.87   -12963.026    945.72161   -13908.747    24.519752    1.1339035 
    7000    232.88864   -385.80836    132762.87   -12945.746    939.94246   -13885.688     24.62543    1.1339035 
    7100    243.68721   -565.60156    132762.87   -12881.602    983.52567   -13865.128    25.064871    1.1339035 
    7200    238.09113   -476.32285    132762.87   -12888.196    960.93979   -13849.136    25.484402    1.1339035 
    7300    232.93023   -314.27704    132762.87   -12943.892    940.11034   -13884.003    25.931344    1.1339035 
    7400    239.54651   -520.90657    132762.87   -12950.612    966.81372   -13917.426    26.180334    1.1339035 
    7500    230.14799    -418.5117    132762.87   -12967.882    928.88114   -13896.763     26.50923    1.1339035 
    7600    233.70198   -409.37884    132762.87   -12975.671    943.22514   -13918.896    26.943846    1.1339035 
    7700    239.52856   -258.06194    132762.87   -12963.032    966.74128   -13929.773     27.15364    1.1339035 
    7800    240.48463   -529.17814    132762.87    -12920.36        970.6    -13890.96    27.523888    1.1339035 
    7900    238.76955   -386.03491    132762.87   -12915.445    963.67791   -13879.123    27.772798    1.1339035 
    8000    244.76961   -392.69104    132762.87    -12907.24    987.89425   -13895.135    27.911898    1.1339035 
    8100    242.46611   -641.03992    132762.87   -12924.204    978.59731   -13902.802    27.982512    1.1339035 
    8200     231.0909   -488.49191    132762.87   -12938.626    932.68676   -13871.313    28.329309    1.1339035 
    8300    228.35838   -508.40673    132762.87   -12948.313    921.65827   -13869.972    28.571235    1.1339035 
    8400    238.30441   -522.52294    132762.87   -12944.776     961.8006   -13906.577    28.773567    1.1339035 
    8500    238.93784   -508.02502    132762.87    -12938.77    964.35713   -13903.127    29.122588    1.1339035 
    8600    245.74795   -413.36099    132762.87    -12907.21    991.84284   -13899.053    29.628525    1.1339035 
    8700    236.49419   -424.03559    132762.87   -12968.721    954.49453   -13923.215    29.894624    1.1339035 
    8800    236.67157   -491.39714    132762.87   -12919.945    955.21045   -13875.156    30.373863    1.1339035 
    8900    237.61869   -409.78293    132762.87   -12938.995    959.03304   -13898.028    30.476359    1.1339035 
    9000    234.77178   -281.59425    132762.87   -12912.305    947.54286   -13859.848    31.051025    1.1339035 
    9100    236.28448   -419.85369    132762.87   -12888.243    953.64812   -13841.891    31.697519    1.1339035 
    9200    233.59637   -583.33726    132762.87   -12908.856    942.79886   -13851.654    31.971069    1.1339035 
    9300    239.47497   -406.65739    132762.87   -12916.613    966.52502   -13883.138    33.016555    1.1339035 
    9400    244.13152   -438.75882    132762.87   -12931.751     985.3189    -13917.07    33.351237    1.1339035 
    9500    239.12553   -409.77289    132762.87   -12909.538    965.11468   -13874.652    33.890407    1.1339035 
    9600    232.24295    -479.9459    132762.87   -12977.074    937.33646   -13914.411    33.938554    1.1339035 
    9700    246.83322   -224.22785    132762.87    -12916.92    996.22302   -13913.143     34.16815    1.1339035 
    9800    237.34221   -610.67408    132762.87   -12952.206    957.91714   -13910.123    34.127462    1.1339035 
    9900    247.69567   -553.71755    132762.87   -12899.401     999.7039   -13899.105    34.889544    1.1339035 
   10000    241.56643   -381.75783    132762.87   -12847.971    974.96618   -13822.937    35.309341    1.1339035 
Loop time of 11.864 on 64 procs for 10000 steps with 6871 atoms

Performance: 364.127 ns/day, 0.066 hours/ns, 842.888 timesteps/s
98.9% CPU use with 64 MPI tasks x no OpenMP threads

MPI task timing breakdown:
Section |  min time  |  avg time  |  max time  |%varavg| %total
---------------------------------------------------------------
Pair    | 0.0022144  | 3.8182     | 9.1412     | 166.8 | 32.18
Neigh   | 0.007622   | 0.22237    | 0.48433    |  35.7 |  1.87
Comm    | 1.1569     | 4.4415     | 8.9941     | 115.8 | 37.44
Output  | 0.1618     | 0.16305    | 0.16517    |   0.2 |  1.37
Modify  | 0.35544    | 2.936      | 9.2908     | 167.0 | 24.75
Other   |            | 0.2828     |            |       |  2.38

Nlocal:        107.359 ave         207 max           0 min
Histogram: 16 0 9 7 0 0 0 1 16 15
Nghost:        864.781 ave        1071 max         646 min
Histogram: 13 3 0 0 9 16 7 0 7 9
Neighs:         0.00000 ave           0 max           0 min
Histogram: 64 0 0 0 0 0 0 0 0 0
FullNghs:      11340.1 ave       25039 max           0 min
Histogram: 17 15 0 0 0 0 0 12 15 5

Total # of neighbors = 725766
Ave neighs/atom = 105.62742
Neighbor list builds = 560
Dangerous builds = 0
write_data 	    ${DIR}/data.${NAME}_eq
write_data 	    run_4/data.${NAME}_eq
write_data 	    run_4/data.ibeam_cooling_4_eq
System init for write_data ...

undump              1
unfix               4



################################################
#######         Run Simulation         #########
################################################

reset_timestep      0
timestep	    10.0
log                 ${DIR}/log.run_${NAME}
log                 run_4/log.run_${NAME}
log                 run_4/log.run_ibeam_cooling_4
