
# Set production fixes - Nose/Hoover
#
fix                 4 water temp/csvr ${START_TEMP} ${END_TEMP} 500.0 928347
fix                 4 water temp/csvr 240 ${END_TEMP} 500.0 928347
fix                 4 water temp/csvr 240 227 500.0 928347


## divide "droplet" into core and surface
#region		core_reg cylinder z 135 135 44.6 20 INF units box
#region		surface_reg cylinder z 135 135 44.6 20 INF units box side out
#group		core dynamic all region core_reg
#group		surface dynamic all region surface_reg

## compute pressure core
#compute        peratom_core core stress/atom NULL
#compute        p_core core reduce sum c_peratom_core[1] c_peratom_core[2] c_peratom_core[3]
#variable       press_core equal -(c_p_core[1]+c_p_core[2]+c_p_core[3])/(3*1249982.5)


## compute pressure surface
#compute        peratom_surf surface stress/atom NULL
#compute        p_surf surface reduce sum c_peratom_surf[1] c_peratom_surf[2] #c_peratom_surf[3]
#variable       press_surf equal -(c_p_surf[1]+c_p_surf[2]+c_p_surf[3])/(3*42395)

## compute total pressure of drop
compute        peratom water stress/atom NULL
compute        p water reduce sum c_peratom[1] c_peratom[2] c_peratom[3]
variable       press equal -(c_p[1]+c_p[2]+c_p[3])/(3*58301)


# compute order parameter
compute        3 all orientorder/atom nnn NULL cutoff 3.5

# compute center of mass of bridge
compute 	4 water com

# Run simulation
thermo_style        custom step c_2 press vol etotal ke pe v_press c_1[4] c_4[*]
thermo              200
dump		     1 water custom 400 ${DIR}/prod.${NAME}.dump id type x y z vx vy vz c_3[*] c_peratom[*]
dump		     1 water custom 400 run_8/prod.${NAME}.dump id type x y z vx vy vz c_3[*] c_peratom[*]
dump		     1 water custom 400 run_8/prod.ibeam_cooling_8.dump id type x y z vx vy vz c_3[*] c_peratom[*]
run                 ${STEPS}
run                 5200000
Neighbor list info ...
  update every 1 steps, delay 0 steps, check yes
  max neighbors/atom: 2000, page size: 100000
  master list distance cutoff = 6.6747184
  ghost atom cutoff = 6.6747184
  binsize = 3.3373592, bins = 48 11 14
  2 neighbor lists, perpetual/occasional/extra = 1 1 0
  (1) pair sw, perpetual
      attributes: full, newton on
      pair build: full/bin/atomonly
      stencil: full/bin/3d
      bin: standard
  (2) compute orientorder/atom, occasional, copy from (1)
      attributes: full, newton on
      pair build: copy
      stencil: none
      bin: none
Per MPI rank memory allocation (min/avg/max) = 6.105 | 6.802 | 7.323 Mbytes
Step c_2 Press Volume TotEng KinEng PotEng v_press c_1[4] c_4[1] c_4[2] c_4[3] 
       0    241.68523   -285.32648    263624.46   -25791.195    1955.9342   -27747.129   -734.43911    36.572861    78.606077    18.377325    27.387201 
     200    238.45241   -134.69854    263624.46   -25822.802    1929.7714   -27752.573   -78.959319    37.768257    78.605591     18.37569    27.367554 
     400     235.2463   -256.27888    263624.46   -25791.651    1903.8247   -27695.475    -619.9102    38.145473    78.605329     18.37536    27.371775 
     600    240.90654   -186.51156    263624.46   -25656.849    1949.6324   -27606.481   -340.60847    39.877832     78.60428    18.375498    27.384423 
     800    239.52809   -317.28648    263624.46   -25648.948    1938.4767   -27587.425   -897.41303    41.378893    78.604001    18.375498    27.403387 
    1000    236.10497   -309.19276    263624.46   -25712.526    1910.7737     -27623.3   -848.14125    42.966063    78.604245    18.376511    27.410615 
    1200    238.95887   -159.91402    263624.46   -25696.501      1933.87   -27630.371   -194.15725    43.984442    78.604201    18.377952    27.418536 
    1400    244.27649   -177.69193    263624.46   -25712.647     1976.905   -27689.552   -277.58372    46.180505     78.60222    18.377885    27.423718 
    1600    234.98015   -255.22608    263624.46   -25719.714    1901.6707   -27621.384   -677.68319    47.362015    78.602263    18.376435    27.427501 
    1800    244.92893   -213.79016    263624.46   -25673.528    1982.1852   -27655.713    -458.6296    49.066822    78.602146    18.375408    27.436244 
    2000    244.85651   -299.42349    263624.46   -25630.625    1981.5991   -27612.224   -814.27519    50.288821     78.60317    18.374337    27.433668 
    2200    239.25543   -298.76461    263624.46   -25676.627    1936.2701   -27612.897   -852.29436    51.720829    78.602766    18.372291    27.432708 
    2400    243.35427   -351.79267    263624.46   -25650.416    1969.4416   -27619.858   -1048.8279    52.593677    78.603829    18.373232    27.431062 
    2600    236.00229   -98.162913    263624.46    -25707.87    1909.9427   -27617.813     81.72503    53.937264    78.604511    18.374144    27.444249 
    2800     247.8967   -209.37881    263624.46   -25618.963     2006.203   -27625.166   -412.08624     54.77287    78.604681    18.376159    27.453117 
    3000     242.8682   -240.48939    263624.46   -25625.599    1965.5079   -27591.107   -579.62722    56.397926    78.604359    18.378033    27.452779 
    3200     242.6315   -92.178275    263624.46   -25712.875    1963.5923   -27676.467     96.09102    57.918073    78.605532    18.377405    27.455645 
    3400    237.87294   -127.91796    263624.46   -25689.879    1925.0817   -27614.961   -65.990799    59.475781    78.606133    18.376415    27.454247 
    3600    240.51194   -267.27676    263624.46   -25687.084    1946.4389   -27633.523   -696.00324    62.024522    78.606319     18.37634    27.464051 
    3800    242.26736   -173.78871    263624.46   -25650.728    1960.6453   -27611.374   -226.46193    63.344332    78.606011    18.375194    27.449023 
    4000    239.45606   -90.634436    263624.46    -25687.86    1937.8938   -27625.754    128.15039    65.374263    78.606454    18.376282    27.447721 
    4200    238.00647   -254.35057    263624.46   -25665.921    1926.1624   -27592.083   -618.22549    66.604396     78.60732     18.37628    27.449036 
    4400     239.7631   -243.48644    263624.46   -25713.224    1940.3786   -27653.603   -534.74527    68.419824    78.606136    18.375996    27.443509 
    4600    238.78912   -224.84793    263624.46   -25834.448    1932.4963   -27766.944   -495.75462     69.79083    78.605708    18.376018    27.405417 
    4800    244.77111   -288.81646    263624.46   -25755.999    1980.9079   -27736.906   -784.75975    70.495294    78.604209    18.378504    27.420655 
    5000    237.92576   -286.94898    263624.46   -25806.695    1925.5092   -27732.204   -778.12227     71.82032    78.604059    18.379577    27.417561 
    5200    238.01992   -328.87869    263624.46   -25786.369    1926.2713   -27712.641   -946.51095     74.16983    78.603955    18.379905    27.398513 
    5400    238.61644   -236.05334    263624.46   -25797.738    1931.0988   -27728.837   -549.24247    75.749865    78.605374    18.383256    27.388513 
    5600    241.89252   -368.14625    263624.46   -25826.009    1957.6118   -27783.621   -1112.4107      77.5682    78.607116    18.383596    27.415418 
    5800    243.71292   -244.19452    263624.46    -25776.79    1972.3442   -27749.134   -566.89248    79.467257    78.607279    18.385754    27.433058 
    6000    242.21163   -248.83728    263624.46   -25794.915    1960.1943   -27755.109   -585.63852    79.620333    78.607829    18.387318    27.412987 
    6200    236.96973   -159.01936    263624.46   -25815.834    1917.7722   -27733.606   -209.22215    80.464155    78.606774    18.389873    27.399349 
    6400    234.62362   -410.41687    263624.46   -25788.605    1898.7854    -27687.39   -1356.6564    82.194669    78.605639    18.388321    27.375879 
    6600    233.54229   -417.22259    263624.46   -25776.121    1890.0342   -27666.155    -1379.122    83.746354    78.606577    18.388941    27.375828 
    6800    240.56944   -352.19461    263624.46   -25802.124    1946.9042   -27749.028   -1105.9255     84.61697    78.606914    18.385618    27.373851 
    7000    244.68328   -357.74286    263624.46   -25746.796    1980.1971   -27726.994   -1088.8327    85.642285    78.606845     18.38424    27.375551 
    7200    229.13605   -346.17902    263624.46   -25863.331     1854.375   -27717.705   -1088.0155    87.349965    78.606899    18.383057    27.386795 
    7400    235.20495    -222.3655    263624.46   -25804.252    1903.4899   -27707.742   -519.39467    89.496191    78.608815    18.380791    27.377864 
    7600    246.99711   -324.56522    263624.46    -25674.56    1998.9227   -27673.482   -952.39638    90.534234    78.610655    18.380745    27.366378 
    7800    234.93418    -291.5281    263624.46   -25820.529    1901.2987   -27721.828   -787.34751    92.164363    78.610188    18.379362    27.354387 
    8000    238.03587   -159.24306    263624.46   -25625.168    1926.4003   -27551.568   -229.09646    93.513873     78.61017    18.381129     27.36301 
    8200    242.46533    -171.0795    263624.46   -25607.173    1962.2475    -27569.42   -232.99753    95.323389    78.610826    18.382501    27.373383 
    8400    245.18619   -360.90219    263624.46   -25575.986    1984.2671   -27560.253   -1072.8613    96.789025    78.612516    18.384562    27.375123 
    8600    244.60287   -313.69084    263624.46   -25631.368    1979.5464   -27610.915   -890.18909    99.363638    78.614266    18.383277    27.385668 
    8800    245.60281   -286.64683    263624.46   -25665.643    1987.6388   -27653.282   -763.05788    100.71086    78.613976    18.382889     27.37154 
    9000    245.35718   -266.08904    263624.46   -25698.069     1985.651    -27683.72   -700.16662    102.69583    78.615387    18.382283    27.354445 
    9200    243.02089   -207.92202    263624.46   -25656.081    1966.7436   -27622.824   -395.38741    104.45571    78.614813    18.381447    27.361511 
    9400     235.3351   -308.40804    263624.46   -25744.335    1904.5432   -27648.878   -879.34919    106.45102    78.613177    18.381227    27.364816 
    9600    236.24667    -361.3966    263624.46   -25777.235    1911.9205   -27689.156   -1097.3362      106.793    78.612296     18.37982    27.355914 
    9800    244.81406   -512.67866    263624.46   -25706.111    1981.2555   -27687.366     -1800.61    108.66616    78.612165    18.379929    27.347636 
   10000    244.60389    -175.7886    263624.46   -25770.856    1979.5547    -27750.41   -258.61526    110.55195    78.612912    18.380442    27.360907 
   10200    242.04814    -195.9488    263624.46   -25687.454    1958.8712   -27646.325   -356.75233    112.70281    78.614014    18.381639    27.372458 
   10400    240.43517   -214.51501    263624.46   -25680.609    1945.8176   -27626.426   -445.86838    114.73234    78.612908    18.383082    27.369577 
   10600    236.45872   -310.09706    263624.46   -25744.756    1913.6366   -27658.393   -868.72822    116.36136    78.612362    18.386541    27.353495 
   10800    243.57485    -290.3396    263624.46   -25818.087    1971.2268   -27789.313   -779.07613    118.31922    78.612916    18.386411    27.344179 
   11000    240.56302   -259.74899    263624.46   -25777.706    1946.8523   -27724.559   -657.00585    120.26118    78.614425    18.384623     27.35193 
   11200    231.60746   -215.35277    263624.46   -25761.603    1874.3758   -27635.979   -428.56576    121.23445    78.613131    18.382349     27.36642 
   11400    244.28061   -207.43943    263624.46    -25703.07    1976.9384   -27680.009   -402.04721    122.73847     78.61447    18.381175    27.372934 
   11600    240.00698   -381.83091    263624.46   -25634.939    1942.3524   -27577.292   -1156.8667     123.9227    78.615202    18.380774    27.362228 
   11800    241.89205   -190.65995    263624.46   -25668.545     1957.608   -27626.153   -368.58592    125.35708    78.615233    18.378826    27.386316 
   12000    238.87996   -292.22429    263624.46   -25673.992    1933.2314   -27607.223    -784.5403    126.36697    78.614566    18.378606    27.390728 
   12200    246.20805   -303.25001    263624.46   -25725.385    1992.5369   -27717.922   -821.18264    127.58038    78.613964    18.379455    27.383838 
   12400     239.2167   -223.68858    263624.46   -25767.914    1935.9566   -27703.871    -484.2072    129.24277    78.615052    18.380433     27.39432 
   12600    243.07135   -334.47806    263624.46   -25677.394     1967.152   -27644.546   -999.96036    130.42958    78.615706    18.381004    27.402084 
   12800    237.67189   -200.52477    263624.46   -25694.749    1923.4547   -27618.203   -381.25481    132.73695    78.615298    18.380035    27.383079 
   13000    242.22556   -224.40387    263624.46   -25732.634    1960.3071   -27692.941   -503.42516    134.64661    78.615268    18.380182     27.37528 
   13200    239.03804   -393.88776    263624.46   -25780.268    1934.5108   -27714.779   -1284.2594    134.71367    78.614095    18.380459    27.378262 
   13400    234.06897   -365.70427    263624.46   -25828.762    1894.2966   -27723.058   -1122.2917    134.69665    78.612413    18.379832    27.368065 
   13600    237.15518   -289.56171    263624.46    -25760.83     1919.273   -27680.103   -822.37886      137.581    78.611831     18.38015    27.373291 
   13800    241.28779   -173.69711    263624.46   -25667.258    1952.7178   -27619.976   -278.07009    139.25747    78.611142    18.381556    27.385978 
   14000    247.84414   -336.88135    263624.46   -25647.906    2005.7777   -27653.684   -1004.9564    139.01812    78.613712    18.381807    27.380058 
   14200    233.89423    -214.8062    263624.46   -25770.061    1892.8825   -27662.943   -454.07922    138.97881    78.615431    18.380859    27.383374 
   14400    236.22741   -237.34626    263624.46   -25765.351    1911.7647   -27677.116   -532.77611    140.52558    78.617523    18.383517    27.406555 
   14600    240.09192   -252.15721    263624.46    -25753.71    1943.0397    -27696.75   -618.79941    141.75901    78.617763    18.383623    27.398613 
   14800    244.19855   -332.94978    263624.46   -25692.976    1976.2743    -27669.25   -1002.0549    143.11426    78.617064    18.383063    27.410789 
   15000    244.08418   -326.23438    263624.46   -25675.016    1975.3487   -27650.365   -956.44788    145.74424    78.618638    18.385099    27.413606 
   15200    246.74564   -247.43103    263624.46   -25674.787    1996.8876   -27671.675   -581.30247    147.99196    78.619522    18.384474    27.402711 
   15400     240.6287    -169.8145    263624.46   -25764.366    1947.3838    -27711.75   -263.25515     148.6789    78.619267     18.38335    27.404727 
   15600    240.64464   -297.93143    263624.46   -25609.647    1947.5128    -27557.16   -823.76095    150.42818    78.618241    18.381389    27.413608 
   15800    243.56704   -174.65221    263624.46   -25636.103    1971.1635   -27607.267   -256.79261    152.01476    78.619419     18.37935    27.413513 
   16000    239.85671    -403.7439    263624.46   -25671.798    1941.1362   -27612.934   -1316.8747    154.95335    78.620501    18.377768    27.401518 
   16200    242.89875   -209.57695    263624.46   -25623.402    1965.7551   -27589.158   -419.87119    155.62218    78.620419    18.376779    27.406407 
   16400    237.03316   -248.51385    263624.46   -25685.697    1918.2855   -27603.982   -627.60692    157.76754     78.62007    18.375404    27.417803 
   16600    241.42552   -339.94461    263624.46   -25621.593    1953.8324   -27575.426   -1031.7229    161.08543      78.6199    18.374886    27.439076 
   16800     243.3862   -249.43709    263624.46   -25675.509       1969.7   -27645.209   -595.19276    163.20401    78.619729    18.376715    27.421693 
   17000    239.04277   -186.03393    263624.46   -25733.934    1934.5491   -27668.483   -363.05615    163.64113    78.618943    18.377316    27.435886 
   17200    241.68761   -250.55226    263624.46    -25721.37    1955.9535   -27677.323   -652.03708    164.74063    78.618834    18.379296    27.436383 
   17400    235.17936   -386.81925    263624.46   -25832.063    1903.2829   -27735.346   -1276.4903     167.0566    78.620023    18.380358    27.437423 
   17600    239.62179   -400.11008    263624.46   -25729.051     1939.235   -27668.286   -1325.4575    169.09677     78.62037    18.381552    27.445513 
   17800    232.12813   -335.29163    263624.46   -25760.687    1878.5896   -27639.277   -997.19635    172.74524    78.621429    18.383231    27.434409 
   18000    234.34082   -245.19864    263624.46   -25719.929    1896.4966   -27616.426      -625.84    174.81169    78.621441    18.383332    27.422257 
   18200     238.4786   -259.75469    263624.46   -25748.301    1929.9833   -27678.284   -656.17578    175.42037    78.620241    18.384803    27.420885 
   18400    242.03493   -283.78111    263624.46   -25715.683    1958.7643   -27674.447   -790.22018    177.12059    78.620196    18.386301    27.414677 
   18600     240.7335   -270.97134    263624.46   -25684.914     1948.232   -27633.146   -709.93984    179.35415    78.621482    18.387932    27.417336 
   18800    235.62126   -390.88521    263624.46   -25740.715    1906.8592   -27647.574   -1289.3082    179.01887    78.621292     18.38955    27.418773 
   19000    241.13388   -218.79062    263624.46   -25661.873    1951.4722   -27613.345   -485.80297    177.97227     78.62092      18.3876    27.438234 
   19200    235.81741   -304.65957    263624.46   -25688.275    1908.4466   -27596.721   -858.13782    179.10485    78.621523    18.387827    27.425932 
   19400    247.85073   -318.69398    263624.46   -25577.292     2005.831   -27583.124   -911.23185    181.02582    78.619767    18.388408    27.415452 
   19600     242.2637   -337.02603    263624.46   -25631.989    1960.6157   -27592.605   -974.61322    181.05456    78.618691    18.389153    27.427046 
   19800    242.27787   -197.60805    263624.46   -25644.261    1960.7304   -27604.991   -352.64858    182.05044    78.618046    18.389359    27.436998 
   20000    241.78334    -477.8445    263624.46   -25653.693    1956.7282   -27610.422   -1655.4702    182.99474     78.61595    18.391021     27.43976 
   20200     240.9873    -255.5113    263624.46   -25773.193    1950.2859   -27723.479   -619.34587    185.52335    78.616013    18.392327    27.447133 
   20400     243.7957   -260.70865    263624.46   -25683.521     1973.014   -27656.535   -682.80005    186.75492    78.615072    18.394895    27.450782 
   20600    239.61577   -495.84949    263624.46   -25747.971    1939.1863   -27687.157   -1739.3208    188.74497    78.615752    18.394095    27.447994 
   20800    245.73125   -277.35083    263624.46   -25647.368    1988.6782   -27636.046   -741.93107     191.0893    78.616188    18.395567    27.459807 
   21000    233.78347   -294.97914    263624.46   -25647.579    1891.9861   -27539.565    -805.7891    194.45157    78.618072    18.394357    27.429079 
   21200    243.48354   -321.89565    263624.46    -25635.46    1970.4878   -27605.948   -957.96807    195.17766    78.617988    18.393459    27.421436 
   21400    241.77415   -200.89758    263624.46   -25684.589    1956.6538   -27641.243   -396.13022    196.53831    78.618113    18.393318    27.428753 
   21600    245.56235   -284.27893    263624.46   -25569.805    1987.3114   -27557.116   -779.70121    197.11427    78.617664    18.394796    27.434545 
   21800    236.33143   -335.35022    263624.46   -25686.633    1912.6065    -27599.24   -1002.4343    197.86001    78.618479    18.394923    27.445382 
   22000    239.10512   -273.34347    263624.46   -25752.347    1935.0537   -27687.401   -742.10248    198.81044    78.618902    18.394276    27.442439 
   22200    236.47788   -278.97853    263624.46   -25820.864    1913.7917   -27734.656    -725.2923    201.15747    78.616254    18.393261     27.44872 
   22400    239.86978   -237.67312    263624.46   -25669.195     1941.242   -27610.437    -565.5115    203.81023    78.615898    18.393792    27.442032 
   22600    236.59266   -301.41022    263624.46   -25667.307    1914.7206   -27582.027   -887.10548    205.53813    78.613814    18.393806    27.430857 
   22800    245.85579    -235.3806    263624.46    -25612.23    1989.6861   -27601.916   -564.90708    207.91043    78.614079    18.392842    27.435509 
   23000    240.27829    -161.6617    263624.46   -25694.882     1944.548    -27639.43   -222.05122     208.8545     78.61269    18.391991    27.436357 
   23200    239.21948   -191.24295    263624.46    -25652.39    1935.9791   -27588.369   -323.21648    210.81649    78.613754    18.392172    27.417761 
   23400    244.47592   -260.28133    263624.46   -25655.434     1978.519   -27633.953    -684.3629    213.06906    78.614685    18.393788     27.41936 
   23600    243.57807   -265.79309    263624.46   -25595.718    1971.2528   -27566.971   -691.39607    214.73856    78.614559    18.394274    27.431662 
   23800    244.54781   -157.35223    263624.46   -25623.789    1979.1008    -27602.89   -255.30997    216.88852    78.615819    18.393209    27.432985 
   24000    240.04162   -242.35043    263624.46   -25649.757    1942.6326    -27592.39   -610.97203    219.43335    78.614848    18.391424    27.429002 
   24200    240.56006   -358.62875    263624.46   -25665.347    1946.8284   -27612.175   -1105.1002    222.02985    78.614264    18.393299    27.408968 
   24400    239.49744   -125.33026    263624.46   -25725.067    1938.2286   -27663.295   -65.219446    225.99862    78.614886    18.393593    27.412768 
   24600    234.03413   -475.67506    263624.46   -25792.319    1894.0146   -27686.333   -1625.8053    227.24596    78.615897    18.393064    27.402742 
   24800    235.85164   -297.86927    263624.46   -25778.696    1908.7236    -27687.42   -850.87587    228.72742    78.615744    18.392302    27.411935 
   25000    239.22313   -373.86275    263624.46   -25785.566    1936.0087   -27721.575   -1182.7793    229.13931    78.617434    18.391507    27.430348 
   25200    235.69202   -190.89112    263624.46   -25944.341    1907.4318   -27851.773   -382.81874    229.89069    78.618329    18.392931    27.447665 
   25400    236.58615   -347.28512    263624.46   -25827.357    1914.6679   -27742.025   -1076.2085    233.47983    78.617893    18.394985    27.434793 
   25600    247.06615   -36.331877    263624.46   -25659.588    1999.4815    -27659.07    348.16932    233.92184    78.616756    18.394729    27.409543 
   25800     243.8506   -359.71057    263624.46   -25640.972    1973.4584   -27614.431   -1149.3658    234.18989    78.614488    18.394746    27.402179 
   26000    245.81524   -214.93648    263624.46   -25649.618     1989.358   -27638.976   -479.41253    233.51786    78.613285    18.393444    27.406863 
   26200    240.46754   -304.73484    263624.46   -25702.576    1946.0796   -27648.655   -834.72812    234.56672    78.613487    18.389643    27.396746 
   26400    240.94994   -293.24325    263624.46   -25737.423    1949.9836   -27687.407   -822.01334     236.4668    78.612765    18.389207    27.402644 
   26600    244.41767   -256.72886    263624.46   -25632.619    1978.0476   -27610.667   -669.20699    240.15633    78.612209    18.388663    27.401899 
   26800    237.06264   -201.30994    263624.46   -25666.797    1918.5241   -27585.321   -383.56639    243.60001    78.610339    18.388775    27.372111 
   27000     238.5507   -315.53371    263624.46   -25634.034    1930.5668   -27564.601   -927.01887     247.4263    78.608879    18.388456    27.400768 
   27200     238.0675   -319.19342    263624.46   -25639.818    1926.6563   -27566.474   -899.85652     251.0055    78.608899    18.387523    27.391732 
   27400    240.75156   -98.267811    263624.46   -25587.936    1948.3781   -27536.314    46.527924    254.99285     78.60835    18.386796    27.394232 
   27600    236.93185    -331.3503    263624.46   -25732.731    1917.4656   -27650.197   -984.83943    258.49494    78.607587    18.387639    27.397462 
   27800    242.68557   -82.565689    263624.46   -25590.281    1964.0299   -27554.311    147.80278    259.43638     78.60622     18.38833    27.409263 
   28000    235.08981   -321.09838    263624.46   -25686.131    1902.5581   -27588.689   -924.85498     262.5711    78.607171    18.388634    27.424058 
   28200    242.06149    -267.1797    263624.46   -25620.428    1958.9792   -27579.408   -726.83669    262.77989    78.608137    18.388076    27.412701 
   28400    245.32411   -383.12419    263624.46   -25612.203    1985.3833   -27597.587   -1216.1562    266.75103    78.607084    18.387259    27.417034 
   28600    237.70539   -224.48851    263624.46   -25717.873    1923.7258   -27641.599   -462.18157    270.93179    78.605973    18.385941    27.426094 
   28800    235.78142   -243.25325    263624.46   -25738.314    1908.1553    -27646.47   -603.41773     272.3278    78.605769     18.38728    27.429623 
   29000    243.42104   -281.23753    263624.46   -25691.652     1969.982   -27661.634   -781.70952    274.67818    78.604696    18.386875    27.420448 
   29200    244.14848   -268.28774    263624.46   -25679.392     1975.869   -27655.261   -725.79413    277.12845    78.605408     18.38789    27.415386 
   29400    236.24407   -311.79864    263624.46   -25701.871    1911.8994    -27613.77   -871.60343    280.89218     78.60683    18.389232    27.416959 
   29600    240.52366   -226.50007    263624.46   -25693.062    1946.5337   -27639.595   -468.23322    283.86292     78.60831    18.391689    27.410307 
   29800    233.62129   -281.77533    263624.46   -25808.839    1890.6736   -27699.513    -752.1979    285.16513    78.608565    18.393868    27.430643 
   30000    233.35794   -307.59447    263624.46   -25843.012    1888.5423   -27731.554   -895.90769     285.8738    78.608764     18.39459    27.431002 
   30200    235.07628    -241.6336    263624.46   -25812.237    1902.4486   -27714.685   -599.27505    286.26695    78.609107      18.3943     27.43637 
   30400    240.05403   -249.12075    263624.46   -25798.235    1942.7331   -27740.968   -628.82859    289.77614    78.608462    18.395155    27.454861 
   30600    241.10738   -269.75402    263624.46   -25803.282    1951.2577   -27754.539   -717.08014    290.93038    78.608457    18.394833     27.45289 
   30800    233.04575   -343.94926    263624.46    -25768.79    1886.0158   -27654.806   -1041.0547    293.05111    78.607098    18.394491    27.454328 
   31000    237.02034   -293.88309    263624.46   -25718.085    1918.1818   -27636.266   -822.18874    295.61624    78.606015     18.39434    27.447361 
   31200    240.61985   -290.96584    263624.46   -25707.059    1947.3122   -27654.371   -804.73383    296.86283    78.605012    18.395202    27.454851 
   31400    240.41561   -308.22132    263624.46   -25693.213    1945.6593   -27638.873   -881.08613    302.62191     78.60567    18.396358    27.457187 
   31600    241.62962   -200.71998    263624.46   -25686.483    1955.4842   -27641.967   -398.99135    305.84881    78.604483    18.397352    27.451716 
   31800     238.5962   -239.47842    263624.46   -25667.131     1930.935   -27598.066   -602.37336     307.4491    78.604396    18.396365    27.450354 
   32000    233.33674   -309.97578    263624.46   -25671.386    1888.3708   -27559.756   -872.09941     310.3662     78.60474    18.397565    27.439683 
   32200    238.26355   -286.42295    263624.46    -25808.99    1928.2429   -27737.233   -780.29384    313.65752     78.60429    18.398421     27.44549 
   32400    237.35857   -271.91066    263624.46   -25745.435     1920.919   -27666.354   -752.98264    314.83831    78.603553    18.398023    27.445243 
   32600    244.38572   -356.69314    263624.46   -25643.478     1977.789   -27621.267    -1095.438    314.27026    78.603252      18.3971    27.446352 
   32800    240.72783   -296.10547    263624.46   -25673.821    1948.1861   -27622.007   -835.42184    314.02767    78.603314    18.397549    27.472465 
   33000    245.67356   -323.81136    263624.46    -25692.67    1988.2114   -27680.882   -928.08162    314.95311    78.602649    18.397884    27.460456 
   33200    236.98086   -192.76045    263624.46   -25756.051    1917.8622   -27673.914    -353.7803    314.52804    78.600423      18.3967    27.470099 
   33400    238.30979    -250.1119    263624.46   -25755.922    1928.6172   -27684.539   -609.70593    315.79834    78.601878    18.393312    27.447212 
   33600    238.85258   -130.77132    263624.46   -25800.481    1933.0098   -27733.491   -102.11673    317.35242    78.603076    18.394696    27.418912 
   33800    243.82141   -330.58786    263624.46   -25639.409    1973.2221   -27612.631   -978.11239    319.45606     78.60573    18.394256    27.437095 
   34000    239.52179   -278.66977    263624.46   -25714.309    1938.4257   -27652.735   -725.22546    321.47668    78.605968    18.393449    27.427567 
   34200     241.2559   -314.34015    263624.46   -25743.593    1952.4597   -27696.052   -911.49302    324.11367    78.606421    18.394236      27.4315 
   34400    236.69899   -283.87949    263624.46   -25735.178    1915.5811   -27650.759   -782.55878    329.95977    78.605546    18.393436    27.436748 
   34600    248.07293   -256.50845    263624.46   -25627.993    2007.6292   -27635.623   -631.58193    334.27945    78.605307    18.391104    27.427732 
   34800    236.96744   -229.97658    263624.46   -25705.587    1917.7536    -27623.34   -536.77247    337.25158    78.606014     18.38956    27.419442 
   35000    240.85577   -245.12997    263624.46   -25724.962    1949.2214   -27674.183    -548.7094    343.00868    78.607129    18.390519    27.427052 
   35200    237.49652   -316.35386    263624.46   -25709.247    1922.0354   -27631.282   -895.80108    344.01596    78.609209    18.392703    27.423766 
   35400    236.27704   -215.01943    263624.46   -25713.581    1912.1662   -27625.748    -403.5116    343.88011     78.61093    18.394622    27.420108 
   35600    236.72077   -299.28772    263624.46   -25688.492    1915.7574   -27604.249   -795.66575    341.79403    78.611481    18.394143    27.413869 
   35800    246.13296   -185.81244    263624.46   -25559.155    1991.9292   -27551.084   -283.66142    342.29107    78.611691    18.396242    27.392614 
   36000    240.15862   -242.31867    263624.46    -25723.76    1943.5795    -27667.34   -605.21079    346.37573    78.610827    18.396106    27.370264 
   36200     241.5049   -126.90318    263624.46   -25750.718    1954.4749   -27705.193   -53.693023     349.9196    78.610944    18.397987    27.354084 
   36400    242.59044   -123.04273    263624.46   -25729.317      1963.26   -27692.577    -55.45836    350.51977     78.61088    18.399573    27.347971 
   36600    234.56878   -204.02485    263624.46   -25673.159    1898.3415   -27571.501   -399.69397    350.04834    78.608492    18.401178    27.348722 
   36800    231.46109   -379.02622    263624.46   -25768.109    1873.1913     -27641.3    -1206.158    351.62318    78.608048    18.402166    27.351433 
   37000    245.66745   -346.92189    263624.46   -25699.277    1988.1619   -27687.438    -1089.711    353.05509    78.607311    18.403311    27.357102 
   37200    240.42671   -266.12032    263624.46   -25785.617    1945.7491   -27731.366   -680.31161    352.02435    78.605418    18.402633     27.36557 
   37400    236.53127   -290.89287    263624.46   -25768.883    1914.2238   -27683.107   -805.37641    350.61961     78.60468     18.40261    27.353861 
   37600    238.37186   -215.63499    263624.46   -25730.791    1929.1194   -27659.911   -451.38623    348.88101    78.604362    18.403824    27.371442 
   37800    234.59479   -227.98027    263624.46   -25826.767     1898.552   -27725.319    -476.8768     350.5441    78.606162    18.404505    27.379995 
   38000    238.09534   -294.97187    263624.46   -25713.459    1926.8816   -27640.341   -790.07783    351.38146    78.604725    18.405617    27.388917 
   38200    239.80618   -199.40409    263624.46   -25680.596    1940.7273   -27621.323   -408.80901     351.5404    78.604505     18.40626    27.389816 
   38400    240.96468   -204.81722    263624.46   -25642.699    1950.1029   -27592.802   -440.36529    353.00318    78.604472    18.404588    27.393859 
   38600    242.39466    -311.5399    263624.46   -25667.466    1961.6756   -27629.142   -904.76836    350.95051    78.605419    18.403295    27.394642 
   38800    235.00968   -239.89529    263624.46   -25752.037    1901.9096   -27653.947   -595.10085    353.82919    78.605175    18.403005    27.412928 
   39000    242.77424   -301.28083    263624.46   -25633.267    1964.7475   -27598.015   -864.66575    355.77908    78.604721    18.404131     27.41229 
   39200    238.88567   -281.47153    263624.46   -25731.112    1933.2776   -27664.389   -770.79359    358.66961    78.604618    18.406471    27.431827 
   39400    241.90305   -289.74908    263624.46   -25639.892    1957.6971   -27597.589   -779.54049    362.55182    78.605531    18.407782    27.407045 
   39600    241.32433   -265.60059    263624.46   -25672.074    1953.0135   -27625.088   -663.56391    363.48429    78.606338    18.409262    27.407204 
   39800    239.41816   -316.28233    263624.46   -25688.528    1937.5871   -27626.115   -908.78434     361.9151    78.605742    18.409589    27.420784 
   40000    236.98599     -262.727    263624.46   -25728.757    1917.9037    -27646.66   -594.94742     361.7383    78.605614    18.409687    27.421762 
   40200    244.44541   -308.92144    263624.46   -25714.222     1978.272   -27692.494   -882.38881    362.23312    78.606628    18.409581    27.436558 
   40400    238.45757    -192.5795    263624.46   -25778.477    1929.8131    -27708.29   -342.54419    363.46823    78.606113    18.408408     27.43313 
   40600    236.40421   -216.74444    263624.46   -25676.752    1913.1955   -27589.948     -436.503    366.51854    78.606291     18.40936     27.43311 
   40800    243.98395   -289.11111    263624.46   -25652.614    1974.5375   -27627.152   -739.41812    367.27144    78.607922    18.410468    27.444344 
   41000    242.89802   -214.55401    263624.46   -25706.479    1965.7492   -27672.228   -438.13793    365.37097    78.607934    18.411842     27.44974 
   41200    240.83078   -337.12783    263624.46   -25619.458    1949.0192   -27568.478   -989.79811    368.09858    78.606608    18.413103    27.457103 
   41400    237.65189    -140.4458    263624.46   -25697.372    1923.2928   -27620.665   -148.76249    366.57532    78.604825    18.411763    27.465335 
   41600    246.82985    -436.1463    263624.46   -25641.697    1997.5691   -27639.266   -1444.6562    368.26162    78.603839    18.412183    27.453892 
   41800    237.76505   -226.05543    263624.46   -25656.575    1924.2086   -27580.783   -468.03959    369.51417    78.602514    18.412646    27.444119 
   42000    238.53831   -442.76397    263624.46    -25741.85    1930.4665   -27672.317   -1434.5874    370.78563    78.603212    18.411958    27.440925 
   42200    235.56819   -131.45499    263624.46   -25752.957    1906.4296   -27659.386   -73.820818    372.78073    78.604164    18.413723    27.437892 
   42400    242.18002   -233.81376    263624.46   -25741.138    1959.9385   -27701.077   -545.72405    375.78195    78.604654     18.41364     27.42715 
   42600    237.75181   -213.78973    263624.46   -25734.984    1924.1015   -27659.085   -476.84689    378.53924     78.60435    18.412101      27.4106 
   42800     240.3798   -194.67408    263624.46   -25730.448    1945.3695   -27675.817   -337.30278    379.91804    78.605045    18.412307    27.415091 
   43000    240.29578   -257.86071    263624.46   -25742.144    1944.6895   -27686.833   -601.49672    378.04065    78.607132    18.412501    27.411976 
   43200    244.71418   -319.66969    263624.46   -25727.591    1980.4472   -27708.039   -899.93351    379.08653    78.606793    18.411863    27.403824 
   43400    238.26069   -404.11336    263624.46   -25751.694    1928.2198   -27679.914   -1306.2056    381.21513     78.60656    18.413111    27.420416 
   43600    238.22657   -159.14855    263624.46   -25753.648    1927.9436   -27681.591   -200.46091    384.96652    78.609491    18.413495    27.423123 
   43800    238.98532   -299.85571    263624.46   -25785.767    1934.0841   -27719.851   -824.70374    388.92152    78.607487    18.413747    27.428146 
   44000    234.77222   -391.75975    263624.46   -25812.486    1899.9879   -27712.474   -1211.8933    390.96343    78.606855    18.412352    27.402211 
   44200    240.84242   -165.67565    263624.46   -25750.033    1949.1134   -27699.147   -211.06608    390.30437    78.606546    18.413297    27.399189 
   44400    235.23229   -309.03844    263624.46    -25763.25    1903.7112   -27666.961   -868.28497    391.96282    78.605514    18.413033    27.396141 
   44600    241.23041   -100.94934    263624.46   -25798.959    1952.2534   -27751.212    41.027039    392.49685    78.605002    18.412793    27.402697 
   44800    241.69379   -377.99192    263624.46   -25737.663    1956.0035   -27693.666   -1199.5432    392.74974    78.605088    18.412188    27.394164 
   45000    236.16414   -213.53709    263624.46   -25725.764    1911.2526   -27637.017   -494.09743    395.78394    78.605648    18.413201    27.391616 
   45200       236.77    -405.5886    263624.46   -25717.803    1916.1558   -27633.959   -1340.9526    399.05274    78.607016     18.41584    27.403564 
   45400    234.48266   -350.76149    263624.46    -25749.69    1897.6446   -27647.335   -1062.6818    401.46986    78.608574    18.416346    27.392259 
   45600    246.21301   -298.33512    263624.46   -25683.889    1992.5771   -27676.466   -840.57861    405.09325    78.610038    18.417024      27.4166 
   45800     243.9558   -205.44294    263624.46   -25673.563    1974.3097   -27647.873   -435.93114     407.0722    78.611028    18.417878    27.427999 
   46000    248.27265   -377.49866    263624.46   -25697.633    2009.2456   -27706.878   -1185.6054    409.10882     78.61133    18.419043    27.413217 
   46200     240.6018   -174.21966    263624.46   -25697.419    1947.1662   -27644.585   -302.17657    412.13499    78.610907    18.420622    27.420364 
   46400    243.05285   -264.70917    263624.46   -25716.416    1967.0022   -27683.418    -680.1679        416.8     78.61248    18.420935    27.424707 
   46600    235.77962   -265.51422    263624.46   -25721.836    1908.1407   -27629.977    -678.9156    422.23103    78.612099    18.419187    27.412769 
   46800    240.57397   -328.04835    263624.46   -25624.999    1946.9409    -27571.94   -978.49132    426.42951    78.612599    18.419192    27.428389 
   47000    244.06964   -210.21729    263624.46   -25702.868     1975.231   -27678.099   -436.68799    426.74207     78.61341    18.418899    27.433872 
   47200    240.11293   -290.46705    263624.46   -25762.072    1943.2097   -27705.281   -794.18264    423.85404    78.614567    18.415405    27.422505 
   47400    239.47949   -214.20928    263624.46    -25719.33    1938.0834   -27657.413   -465.16022    426.09549    78.615737    18.415583    27.413731 
   47600    234.19511   -203.72493    263624.46   -25728.301    1895.3175   -27623.618   -392.16451    428.13703    78.616148    18.415266    27.413079 
   47800    239.78204   -181.25792    263624.46    -25752.99    1940.5319   -27693.522   -315.02033     431.1331    78.617265    18.415368    27.414015 
   48000    240.36294   -270.17347    263624.46   -25788.133     1945.233   -27733.366   -689.46744    435.21161     78.61755    18.415481    27.425418 
   48200    237.44343     -177.505    263624.46   -25815.918    1921.6058   -27737.523   -285.59982    438.29022    78.617208    18.417219    27.418589 
   48400    238.26984   -153.78733    263624.46   -25802.314    1928.2938   -27730.607   -199.66245    436.98467    78.615788    18.417585    27.411082 
   48600    240.49614   -383.99711    263624.46   -25850.012     1946.311   -27796.323   -1200.2313    436.15584     78.61541    18.419211    27.404829 
   48800    236.28067   -289.13582    263624.46   -25828.622    1912.1956   -27740.818   -747.26955    436.92149     78.61485    18.419425    27.406195 
   49000    242.33097   -282.90303    263624.46   -25835.229    1961.1601   -27796.389   -760.89835    437.34407    78.613607    18.419014    27.413851 
   49200    239.49149   -418.26916    263624.46    -25795.42    1938.1805   -27733.601   -1388.5234    440.53733    78.612091    18.414412    27.421757 
   49400    241.75898   -185.46396    263624.46   -25890.998    1956.5311   -27847.529   -284.34912    440.04665    78.611862    18.413503    27.431295 
   49600    241.21985   -152.61855    263624.46   -25864.525     1952.168   -27816.693   -174.90721    440.10566    78.610915    18.413181    27.423206 
   49800    237.36553   -211.56245    263624.46   -25828.379    1920.9753   -27749.355   -444.43757    442.03934     78.61002    18.413022    27.428202 
   50000    236.40434   -436.11025    263624.46   -25794.591    1913.1965   -27707.788   -1458.7407    443.42162    78.608686    18.411139    27.437114 
   50200    234.94941   -337.34838    263624.46   -25739.718    1901.4219    -27641.14   -954.55155    444.73414    78.607983    18.412886    27.452426 
   50400    234.06981   -261.53309    263624.46   -25757.939    1894.3034   -27652.242   -677.43329    446.57732    78.607244    18.414346    27.450454 
   50600    246.73149   -46.514696    263624.46   -25597.046    1996.7731   -27593.819    286.75699    449.34475    78.607135    18.415655    27.447674 
   50800    244.77225    -54.72893    263624.46   -25758.007    1980.9172   -27738.924    240.09646    449.85805    78.606969    18.414933    27.441213 
   51000    236.94455   -339.35687    263624.46   -25774.483    1917.5684   -27692.051   -981.04656    451.75824     78.60704    18.416214    27.434174 
   51200    235.79426   -254.66437    263624.46   -25834.611    1908.2592    -27742.87   -624.58054     455.9238    78.606316    18.416577    27.431575 
   51400     237.2037   -237.27251    263624.46   -25809.107    1919.6657   -27728.773   -503.10396    457.24574    78.604643    18.415325    27.439319 
   51600    244.98707   -237.05151    263624.46   -25754.246    1982.6557   -27736.902   -559.14751     460.8099     78.60687    18.414824    27.440758 
   51800    242.31841   -212.16098    263624.46   -25737.979    1961.0585   -27699.038   -415.66468     463.3191     78.60674    18.416444    27.444916 
   52000    239.44193    -123.6501    263624.46   -25814.312    1937.7794   -27752.092   -19.960228    463.86779     78.60682    18.416025    27.450486 
   52200    236.55445   -307.70604    263624.46   -25882.126    1914.4113   -27796.537   -816.63944    466.89468     78.60608    18.415146    27.455224 
   52400    229.18678   -398.08267    263624.46   -25919.208    1854.7855   -27773.994   -1289.5468    470.32319    78.606311    18.415531    27.449176 
   52600    242.39417   -78.609128    263624.46   -25744.062    1961.6716   -27705.733    171.93325    474.14777    78.605792    18.413739    27.432295 
   52800    241.64539   -89.498771    263624.46   -25673.822    1955.6118   -27629.434    124.28979     475.0955     78.60366    18.412756    27.436679 
   53000    238.17918   -308.33975    263624.46   -25661.547    1927.5601   -27589.107   -885.19017    474.35432    78.602758    18.411821    27.443798 
   53200      237.276   -318.52414    263624.46   -25817.603    1920.2507   -27737.854   -919.79356      476.258     78.60241    18.412858    27.427069 
   53400     245.1018   -422.93083    263624.46   -25695.018    1983.5842   -27678.602   -1405.2686    478.38539     78.60281    18.416748    27.421478 
   53600    239.36023   -362.92059    263624.46    -25814.38    1937.1183   -27751.499   -1100.3545    479.68562    78.601088    18.419239    27.414138 
   53800    236.21074   -306.97953    263624.46   -25743.294    1911.6297   -27654.924   -897.87607    479.94729    78.600618     18.41827    27.413881 
   54000    236.22426   -430.69166    263624.46   -25777.011    1911.7392    -27688.75    -1429.644    480.94853     78.60072    18.416537    27.405751 
   54200    243.87871   -60.544821    263624.46   -25665.518    1973.6858   -27639.204    285.43236    480.87484    78.600499     18.41436    27.397891 
   54400    241.13308   -267.18345    263624.46   -25656.675    1951.4658    -27608.14   -690.26892    482.44367    78.601096    18.414001     27.39985 
   54600    245.16553   -347.26247    263624.46   -25685.236    1984.0999   -27669.336   -1074.7049    485.87586    78.600065    18.412349    27.420348 
   54800    237.58084   -93.479959    263624.46   -25652.336    1922.7178   -27575.054    96.948181    484.40981    78.600133    18.412287    27.405404 
   55000    241.84615    -434.9846    263624.46   -25638.263    1957.2365   -27595.499   -1380.5211    482.75284    78.601366    18.413943    27.400597 
   55200    236.52578   -184.09409    263624.46   -25745.794    1914.1793   -27659.974   -341.50767    480.47554    78.601646    18.414066     27.41212 
   55400    239.32662   -242.23608    263624.46   -25751.972    1936.8462   -27688.819   -546.10472    483.64109    78.599821    18.414674     27.40868 
   55600    240.30545   -204.76412    263624.46    -25712.74    1944.7678   -27657.508   -419.58724    486.39674    78.598837     18.41513    27.428372 
   55800    237.79904   -247.11094    263624.46   -25683.267    1924.4837   -27607.751   -596.02741    490.40915    78.599881    18.415271    27.401886 
   56000    243.02712   -283.39649    263624.46   -25675.684     1966.794   -27642.478   -730.79065    497.50841    78.599564    18.415468    27.391024 
   56200    237.78252   -373.70548    263624.46   -25734.547      1924.35   -27658.897   -1197.9606    501.02111    78.600526    18.416478    27.382492 
   56400    241.73173   -255.65049    263624.46   -25850.954    1956.3106   -27807.264   -598.19339    502.40266    78.601893    18.414733    27.384382 
   56600    237.07701   -207.87999    263624.46   -25887.507    1918.6403   -27806.147   -346.91076    504.51369    78.601816    18.412346    27.363295 
   56800    238.45559   -361.91123    263624.46   -25781.594    1929.7971   -27711.391   -1129.8445    505.70702    78.600236    18.409592     27.35423 
   57000    235.53391   -249.28207    263624.46   -25844.673    1906.1522   -27750.825   -614.30636    508.65889    78.598455    18.406692    27.350026 
   57200    243.82633   -310.77642    263624.46   -25724.164     1973.262   -27697.426     -844.889    508.68048    78.596707    18.406609    27.364812 
   57400    232.52942   -163.79735    263624.46   -25806.983    1881.8371    -27688.82   -189.24072    510.98384    78.597168    18.408763    27.372014 
   57600    241.11788   -98.231327    263624.46   -25863.343    1951.3427   -27814.686    65.738115    513.70732    78.597248    18.410619    27.373656 
   57800    242.29612   -74.640484    263624.46   -25748.478    1960.8781   -27709.356    195.29462    516.61062    78.601238    18.410987    27.370723 
   58000    242.44248   -137.92873    263624.46   -25767.132    1962.0626   -27729.195   -104.95232    519.27846    78.602065    18.411161    27.368792 
   58200    243.21311   -210.72359    263624.46   -25728.851    1968.2992    -27697.15    -453.0253    518.38201    78.602929    18.409934    27.386888 
   58400    237.01412   -567.61851    263624.46   -25762.817    1918.1314   -27680.948   -2015.9673    520.87492    78.603742    18.410442    27.392993 
   58600     238.7104   -385.23125    263624.46   -25779.712    1931.8592   -27711.571   -1213.1164    522.55154    78.603347    18.411468     27.37851 
   58800    234.61809   -343.90367    263624.46   -25746.785    1898.7406   -27645.526   -1001.8094    522.34989    78.603385    18.413209    27.375484 
   59000    245.75407   -316.94993    263624.46   -25612.108     1988.863   -27600.971   -928.42031    520.81323    78.602993    18.414968    27.367844 
   59200    239.70534   -173.96587    263624.46   -25637.392    1939.9111   -27577.303   -286.77461    523.53306     78.60205    18.413493    27.357286 
   59400    241.85952   -5.7617026    263624.46   -25655.078    1957.3448   -27612.423    494.34463     524.5554    78.601079     18.41293    27.349583 
   59600    240.14168    -312.8455    263624.46   -25691.053    1943.4424   -27634.496    -905.4861    524.12102    78.600889    18.411629    27.341603 
   59800    232.92765   -265.19805    263624.46   -25771.008      1885.06   -27656.068    -646.3515    524.73094    78.602854    18.407984     27.35138 
   60000    236.72205   -293.23438    263624.46    -25701.55    1915.7677   -27617.318   -767.22129    523.59692    78.603678    18.405767    27.347989 
   60200    236.36075   -227.99376    263624.46   -25703.543    1912.8437   -27616.387   -507.47088    521.96912    78.604755     18.40678    27.338013 
   60400    242.71097   -290.34314    263624.46   -25641.981    1964.2355   -27606.217   -802.36456    520.17443    78.604969    18.405802    27.353212 
   60600    237.79184    -151.3552    263624.46   -25715.123    1924.4254   -27639.549   -194.30755    521.67962    78.606463    18.405085    27.356637 
   60800    243.93425   -215.14128    263624.46    -25638.02    1974.1353   -27612.155   -410.09556    522.14712    78.605879    18.404742    27.358502 
   61000    237.03105   -214.14316    263624.46   -25704.242    1918.2684   -27622.511   -481.19465     526.3311    78.606635    18.402952    27.362583 
   61200    240.76051   -276.03444    263624.46   -25718.759    1948.4505    -27667.21   -710.31802    530.50104    78.604889    18.404881    27.374586 
   61400    236.68025   -179.81123    263624.46   -25732.967    1915.4294   -27648.397    -285.5103    531.35252    78.602954    18.404385    27.376713 
   61600    235.50481    -403.0579    263624.46   -25761.526    1905.9167   -27667.442   -1314.2658    536.72882    78.603617    18.404299    27.395145 
   61800    240.30429   -185.44382    263624.46   -25746.679    1944.7584   -27691.437   -331.23998    537.79441    78.602009     18.40444    27.393093 
   62000    241.82674   -269.62061    263624.46    -25682.78    1957.0794   -27639.859   -671.58452    537.47473    78.601158    18.404628     27.38738 
   62200     240.5105      -360.54    263624.46   -25642.699    1946.4273   -27589.126   -1071.9622    540.86975     78.59951    18.407437    27.368323 
   62400    241.33103   -326.86122    263624.46   -25684.358    1953.0678   -27637.426   -964.52895    543.73883    78.597977    18.406717    27.340441 
   62600    237.64284    -376.2748    263624.46   -25712.311    1923.2196   -27635.531   -1193.2962    548.09859    78.597455    18.406862    27.348256 
   62800    237.84859   -248.89075    263624.46   -25753.292    1924.8847   -27678.177    -591.8333    547.81256    78.594825    18.406886    27.331648 
   63000    239.73978   -238.70566    263624.46   -25787.174    1940.1899   -27727.364   -526.01305    545.11553    78.593332    18.404299    27.332516 
   63200    233.65855   -35.583416    263624.46   -25678.253    1890.9751   -27569.228    329.64182    545.01283     78.59225    18.401387     27.34456 
   63400     235.7475   -234.90969    263624.46   -25789.169    1907.8808    -27697.05   -561.81632    547.88988    78.592596     18.40014    27.352517 
   63600    235.44785   -320.14253    263624.46   -25785.325    1905.4557   -27690.781   -930.28575    550.79114    78.592287    18.399695    27.361831 
   63800    236.30079   -283.28984    263624.46   -25858.689    1912.3585   -27771.047   -774.95058    549.16184    78.593046    18.400529    27.357982 
   64000    235.15739   -214.16144    263624.46   -25744.894    1903.1051   -27647.999   -477.49815    544.65501    78.592659    18.401587     27.37022 
   64200    239.78156   -368.21542    263624.46   -25734.641     1940.528    -27675.17   -1154.0255    544.35698    78.594211    18.402493    27.366049 
   64400     232.7104   -179.77923    263624.46    -25745.73    1883.3018   -27629.032   -292.29393    547.38584    78.596193    18.407016    27.362253 
   64600     237.7585   -248.57798    263624.46   -25754.044    1924.1556     -27678.2   -621.13059    549.24651    78.596387    18.409175      27.3697 
   64800    237.31596   -207.16825    263624.46   -25703.804    1920.5742   -27624.378   -407.54649    549.75434    78.596371    18.409254    27.374408 
   65000    246.66075   -386.45488    263624.46   -25647.179    1996.2006   -27643.379   -1175.5552    555.65243    78.595396    18.408363    27.380787 
   65200    240.68806   -61.046084    263624.46    -25737.99    1947.8642   -27685.854    214.62984    558.61401    78.593167    18.406932    27.360847 
   65400    240.36589   -455.99516    263624.46   -25701.972    1945.2569   -27647.228   -1487.1391    563.76621      78.5939    18.406053    27.374428 
   65600    234.11364   -404.15107    263624.46   -25660.932    1894.6581   -27555.591   -1281.2516    564.86816    78.595468    18.404263    27.358628 
   65800     239.1626   -190.72446    263624.46   -25748.961    1935.5188   -27684.479   -325.58954    563.85689    78.596458    18.404028    27.365968 
   66000    245.74849   -390.09567    263624.46   -25778.929    1988.8178   -27767.747   -1209.9115    565.56317    78.597087    18.404054    27.383477 
   66200    238.94983   -244.96166    263624.46    -25789.47    1933.7969   -27723.267   -579.86828     564.5138    78.598034    18.403426    27.399534 
   66400    243.21748   -390.68968    263624.46   -25774.959    1968.3346   -27743.294   -1211.9584    564.75561     78.59734     18.40168    27.384929 
   66600    235.19947   -216.41353    263624.46   -25777.847    1903.4456   -27681.293   -475.66177    562.72376    78.596818     18.40169    27.390941 
   66800    235.48843   -226.87194    263624.46   -25808.946    1905.7842    -27714.73   -499.89195    563.65809    78.598262    18.402214    27.379783 
   67000    231.90323   -272.29631    263624.46   -25818.334    1876.7695   -27695.104   -747.59398    565.09805    78.597335      18.3999     27.38306 
   67200    231.67368   -439.41012    263624.46   -25757.442    1874.9118   -27632.354   -1456.9863     567.2716     78.59756     18.39859    27.389447 
   67400    241.25148    -192.8597    263624.46   -25692.241    1952.4239   -27644.665   -389.84535    569.21095    78.598355    18.399669     27.39494 
   67600    243.99068   -227.95795    263624.46   -25616.235     1974.592   -27590.827   -520.11118    575.03567    78.599504    18.398368    27.395636 
   67800    240.50526   -188.62154    263624.46   -25741.917    1946.3849   -27688.302   -326.84698     575.1906    78.598746    18.395879    27.383619 
   68000    235.25514   -193.76297    263624.46    -25773.62    1903.8962   -27677.516   -351.36523    575.98184    78.597908    18.399234    27.374513 
   68200    237.02296   -262.77437    263624.46   -25783.421     1918.203   -27701.624   -694.35101    578.79005    78.597976    18.401694    27.355363 
   68400    246.21799   -172.46366    263624.46   -25681.272    1992.6174   -27673.889   -241.36259    582.94388    78.597236    18.401938     27.35488 
   68600    234.92706   -235.62651    263624.46   -25735.431    1901.2411   -27636.672    -523.0646    585.35404    78.595582    18.400577    27.356252 
   68800    241.41255   -152.24047    263624.46   -25740.985    1953.7275   -27694.712     -194.668    585.46959    78.594385    18.399769    27.359001 
   69000    241.53455    -310.7912    263624.46   -25767.013    1954.7148   -27721.727   -851.18975    588.55662    78.594396    18.400022    27.377227 
   69200     236.0312   -102.32159    263624.46   -25812.532    1910.1767   -27722.709    55.570945    589.00244    78.594801    18.401971    27.374617 
   69400    230.67641   -250.94292    263624.46   -25880.824    1866.8409   -27747.665    -585.0346    590.73311    78.593809    18.404123    27.368586 
   69600     246.4212   -286.49928    263624.46   -25694.882     1994.262   -27689.144   -753.00018    594.54573    78.593325    18.406427    27.374716 
   69800    235.97954   -353.95365    263624.46   -25821.529    1909.7587   -27731.287    -1075.943    595.37079    78.592311    18.408799    27.375964 
   70000    243.02618   -277.65043    263624.46   -25762.565    1966.7864   -27729.352   -722.78559    593.59974    78.593579    18.407094    27.376896 
   70200    242.13894   -247.56343    263624.46   -25741.261    1959.6061   -27700.867   -589.00479    593.65673    78.592838    18.409409    27.367549 
   70400    244.14081   -234.16272    263624.46   -25734.426     1975.807   -27710.233   -560.12069    594.96845    78.592109    18.412207    27.373082 
   70600    245.26265   -215.96525    263624.46    -25862.52    1984.8859   -27847.406    -432.8738    603.20077    78.592037    18.410802    27.344433 
   70800    232.25318    -204.6941    263624.46     -25800.3    1879.6016   -27679.901   -413.30831    606.12155    78.593721     18.41126    27.346643 
   71000    241.76642   -403.37913    263624.46   -25806.463    1956.5913   -27763.054   -1332.6555     609.1103    78.592781    18.411355    27.328155 
   71200    236.54171    -173.6637    263624.46   -25814.673    1914.3083   -27728.981   -233.84544    609.72199    78.592173    18.410682    27.329614 
   71400    238.55643   -462.60383    263624.46    -25846.64    1930.6131   -27777.253   -1594.0387    607.84657    78.592395    18.410729    27.338647 
   71600    239.45008   -274.19121    263624.46   -25817.218    1937.8454   -27755.064   -731.62779    604.06444    78.596106    18.409582    27.341177 
   71800    230.88103   -264.23913    263624.46   -25908.012     1868.497   -27776.509   -694.72269    599.38609    78.597473     18.40802     27.34324 
   72000    235.63736   -250.89062    263624.46   -25850.776    1906.9894   -27757.765   -624.24795    595.78787    78.598639    18.409333    27.339113 
   72200    250.22471   -248.17226    263624.46   -25681.453    2025.0434   -27706.497   -598.53919    594.26995    78.599537     18.40938    27.337125 
   72400    235.95099   -145.08584    263624.46   -25846.384    1909.5276   -27755.911   -121.24754    591.17496     78.60077    18.409675    27.358189 
   72600    243.22935    62.686541    263624.46   -25733.193    1968.4307   -27701.624    821.35803    589.56249    78.601254    18.409745    27.351769 
   72800    241.05424   -357.79154    263624.46   -25782.979    1950.8277   -27733.806   -1060.5987    590.32468    78.600445    18.408556    27.375173 
   73000     243.6027   -193.26133    263624.46    -25769.74    1971.4521   -27741.192   -358.90778    592.37839    78.601206    18.409032    27.364091 
   73200    244.65333   -399.39579    263624.46   -25668.626    1979.9548   -27648.581   -1310.3609    594.14312    78.600423     18.41066    27.364629 
   73400    234.32632   -339.44785    263624.46   -25641.126    1896.3793   -27537.505   -981.91051    595.04088    78.601629    18.411364    27.373668 
   73600    243.70207   -300.39102    263624.46   -25642.565    1972.2563   -27614.821   -864.66486    598.53392    78.603082    18.410972    27.368973 
   73800    237.73434    -275.1293    263624.46   -25820.267    1923.9601   -27744.227   -724.18878    600.47642    78.603219    18.411906     27.36661 
   74000    233.29766   -254.62902    263624.46   -25819.737    1888.0545   -27707.791   -623.70546    599.90239    78.602247    18.413095     27.37788 
   74200    236.20482   -332.02425    263624.46   -25791.045    1911.5818   -27702.627   -971.77128    600.90449    78.602961    18.414357    27.378464 
   74400    242.06975   -189.87299    263624.46   -25727.343    1959.0461   -27686.389   -319.11126    600.53867    78.603401    18.415545    27.362985 
   74600    240.82139   -484.21139    263624.46   -25785.761    1948.9433   -27734.704   -1716.7774      604.335    78.604084    18.415877    27.372243 
   74800    239.35549   -279.05164    263624.46   -25737.106    1937.0799   -27674.185   -762.26289    605.55462    78.603445    18.414232    27.372658 
   75000    241.96565   -359.92541    263624.46   -25777.239    1958.2037   -27735.443   -1112.6328    607.32346    78.601957    18.413494    27.391626 
   75200    243.92035   -316.02937    263624.46   -25718.224    1974.0228   -27692.247   -904.11533    610.64655    78.602453    18.414152    27.395486 
   75400     236.2487   -149.79593    263624.46   -25791.422     1911.937   -27703.359   -120.96997     610.2209    78.602862     18.41349    27.390238 
   75600    240.84416    -424.5893    263624.46   -25719.366    1949.1275   -27668.493   -1402.2672    609.26886    78.602491    18.414097    27.381635 
   75800    242.80505   -239.46465    263624.46   -25653.393    1964.9968    -27618.39   -520.91792    607.98869    78.601869    18.414344    27.381853 
   76000    237.56302    -312.1686    263624.46   -25630.938    1922.5736   -27553.511   -876.74332    607.89425    78.601012    18.412634    27.386615 
   76200    237.16258   -226.12294    263624.46   -25750.584    1919.3329   -27669.917   -504.34701    608.64121    78.600447    18.411029    27.376927 
   76400    237.16956    -257.5255    263624.46   -25719.049    1919.3893   -27638.438   -622.65622    609.79972    78.599253    18.410702    27.389353 
   76600    240.89595   -464.46483    263624.46   -25683.991    1949.5467   -27633.537   -1562.5604    611.66368    78.598653    18.411555    27.388685 
   76800     232.0905   -322.49323    263624.46   -25718.529     1878.285   -27596.814   -964.20968    610.56459    78.598936    18.410342    27.386262 
   77000    245.84138   -251.76959    263624.46   -25650.528    1989.5695   -27640.098   -600.72004    609.73091    78.598776    18.407665    27.375036 
   77200     241.1775   -267.87267    263624.46   -25686.229    1951.8252   -27638.055   -629.79556    606.37904    78.600028    18.405403    27.372202 
   77400    239.39698   -350.98416    263624.46   -25712.812    1937.4156   -27650.228   -1078.9743    602.68083    78.599583    18.406284    27.348511 
   77600     235.7892   -107.99834    263624.46    -25792.95    1908.2183   -27701.169    20.499769    603.08337    78.598343    18.405404    27.332794 
   77800    231.82341   -226.63299    263624.46   -25754.377    1876.1235     -27630.5   -496.43687    602.91246    78.597831    18.403751    27.311787 
   78000    239.82644   -298.81725    263624.46   -25765.393    1940.8912   -27706.284   -830.07089     603.4353    78.596635     18.40041    27.302311 
   78200     241.2571   -387.07088    263624.46   -25790.333    1952.4694   -27742.802   -1215.9374    603.52422    78.597534    18.399741    27.303918 
   78400    238.19428   -377.93719    263624.46   -25720.925    1927.6823   -27648.608    -1205.015     604.4343     78.59647    18.400706    27.294367 
   78600    239.86512   -359.72121    263624.46    -25674.99    1941.2042   -27616.195   -1097.0165    608.84491    78.594887    18.400039    27.304224 
   78800    235.46762   -307.30169    263624.46   -25671.815    1905.6157   -27577.431   -881.23883    610.71778    78.593136    18.400487     27.29656 
   79000    233.78349   -285.34178    263624.46   -25670.349    1891.9862   -27562.335   -749.85221    614.81086    78.591092    18.398669    27.277337 
   79200    240.63123   -319.61114    263624.46   -25640.205    1947.4043   -27587.609    -936.6537    618.48019     78.59068    18.399769     27.28112 
   79400    244.53402   -292.63536    263624.46    -25620.49    1978.9892   -27599.479   -801.97041    621.75777    78.592259    18.399982    27.284628 
   79600    243.05191   -279.25926    263624.46   -25711.323    1966.9946   -27678.317    -706.4486    627.02424    78.592353     18.40116    27.275208 
   79800    236.03077   -168.29573    263624.46   -25729.229    1910.1732   -27639.402   -241.18302    632.44336    78.592616    18.402103    27.278978 
   80000    243.22368   -181.83839    263624.46   -25779.651    1968.3847   -27748.036   -315.71222    638.01861    78.594808    18.401619     27.26876 
   80200    239.46887   -209.34338    263624.46    -25814.55    1937.9975   -27752.548   -414.55985    640.84277    78.596435    18.400209    27.262269 
   80400    238.44011    -209.4207    263624.46   -25811.575    1929.6718   -27741.247   -403.52161     642.5725    78.597432    18.397744    27.257664 
   80600    240.00329   -236.79348    263624.46   -25713.328    1942.3225   -27655.651   -562.95697    640.69682    78.598331     18.39623    27.276813 
   80800    232.40646    -206.5253    263624.46   -25724.302     1880.842   -27605.144   -413.31564    639.41195    78.599165    18.395677    27.263162 
   81000    238.19413   -141.06473    263624.46   -25702.403    1927.6811   -27630.084   -119.72538    642.37183    78.599117    18.395522    27.266734 
   81200    240.85415   -365.26904    263624.46   -25694.567    1949.2084   -27643.775   -1119.4022    645.04834    78.598944    18.395192    27.257731 
   81400    243.41746   -258.00515    263624.46   -25704.129     1969.953   -27674.082    -614.8049    645.61399     78.59838    18.395618    27.236335 
   81600    240.15571   -64.020426    263624.46   -25786.218     1943.556   -27729.774    239.92725    646.76168    78.597911    18.394277     27.24295 
   81800     237.8388   -309.31923    263624.46    -25853.68    1924.8054   -27778.485    -862.1308      647.664    78.597309     18.39411    27.254221 
   82000    240.44772   -231.49483    263624.46   -25733.846    1945.9192   -27679.766   -558.83872      645.669    78.598111    18.394906    27.241076 
   82200    243.37846   -320.19641    263624.46   -25714.197    1969.6374   -27683.834   -920.76494    648.02538    78.598247    18.392831    27.254998 
   82400    237.20609   -51.003566    263624.46   -25728.039     1919.685   -27647.724     278.7611     645.1007    78.597954     18.39096    27.259309 
   82600    244.01328   -115.38796    263624.46   -25662.464    1974.7749   -27637.239   -1.4050751    643.00799    78.597167    18.390666     27.28019 
   82800    232.81195   -383.54371    263624.46   -25757.115    1884.1237   -27641.239   -1184.3069    645.73902    78.595842    18.390485    27.269741 
   83000    241.06279   -267.11819    263624.46   -25619.666    1950.8969   -27570.562   -671.61667    643.89484     78.59522    18.390899    27.278561 
   83200    238.32308    -362.7481    263624.46   -25673.483    1928.7247   -27602.207   -1113.3519    643.75282    78.595052    18.389142    27.279816 
   83400    238.99203   -172.65074    263624.46   -25708.819    1934.1384   -27642.957   -242.17762    639.19171    78.594722    18.388307    27.277104 
   83600    234.92532   -159.10488    263624.46   -25794.321     1901.227   -27695.548   -238.52557    641.60961    78.595107    18.387936    27.272209 
   83800     238.9948   -70.847992    263624.46   -25712.425    1934.1608   -27646.586    189.05441    643.51792    78.595233    18.385853    27.263324 
   84000    238.23979   -299.21763    263624.46   -25693.793    1928.0506   -27621.843   -850.40899     645.9211    78.594739    18.385192     27.27009 
   84200    237.70277   -243.21256    263624.46   -25656.093    1923.7046   -27579.797   -575.30751    648.42349     78.59525    18.385181    27.273968 
   84400    235.79033   -380.67028    263624.46   -25716.395    1908.2274   -27624.622    -1198.309    651.52017      78.5961    18.386126    27.260555 
   84600    241.58333   -365.26568    263624.46   -25649.138    1955.1096   -27604.248   -1111.7389    654.04408    78.595504    18.389334    27.273839 
   84800    241.90314   -178.89621    263624.46    -25728.07    1957.6977   -27685.768   -354.69114    654.08225    78.596959    18.391679    27.258973 
   85000    235.97702   -412.90172    263624.46   -25743.122    1909.7383    -27652.86   -1357.6971    654.77675    78.597362    18.393167    27.260623 
   85200    233.52119    -200.6036    263624.46   -25723.933    1889.8635   -27613.797   -386.28362    656.28314    78.598034    18.392957     27.28855 
   85400    236.68445   -407.30328    263624.46   -25766.515    1915.4634   -27681.978   -1310.2272    658.92579    78.599079    18.395038    27.293771 
   85600    234.93737   -295.75073    263624.46   -25745.254    1901.3245   -27646.578   -799.64111     660.6384    78.596376    18.396429    27.315645 
   85800    239.42891   -300.16431    263624.46   -25705.453     1937.674   -27643.127   -830.08484    660.97996    78.595291    18.397556    27.310202 
   86000    238.03619   -217.90491    263624.46   -25720.374    1926.4029   -27646.776   -472.08038    660.42606     78.59537    18.399342    27.303314 
   86200     241.2203   -355.86185    263624.46    -25710.84    1952.1716   -27663.011   -1098.9625    663.37544    78.596032    18.400817    27.305962 
   86400    231.50849   -328.44211    263624.46   -25769.982    1873.5749   -27643.557   -950.81884     663.9791    78.596169    18.401159    27.299358 
   86600    243.32796   -180.58152    263624.46   -25665.448    1969.2286   -27634.677   -305.07391    663.18864    78.595161    18.400652    27.297395 
   86800    233.57387   -352.02103    263624.46   -25759.507    1890.2898   -27649.797   -1073.3692    660.84734    78.595275    18.400269    27.315813 
   87000    248.30876   -246.40391    263624.46     -25656.6    2009.5378   -27666.138   -593.72047    659.71703    78.594638    18.399936    27.302632 
   87200     240.1906   -292.30415    263624.46    -25663.43    1943.8384   -27607.268   -817.06374    657.82966    78.593164     18.40018    27.310164 
   87400    237.63204    -342.8973    263624.46   -25743.003    1923.1322   -27666.135   -1040.9926    658.51362    78.593866    18.401523    27.328365 
   87600    241.30428   -230.57065    263624.46   -25679.533    1952.8512   -27632.384   -537.16239    658.77054     78.59374    18.401038    27.344013 
   87800    241.34691   -268.71104    263624.46   -25723.275    1953.1962   -27676.471   -676.92943    661.24446    78.595468    18.399374    27.335202 
   88000     238.7361   -234.29866    263624.46   -25745.044    1932.0672   -27677.111   -563.50319    661.33477    78.594452    18.396396    27.328988 
   88200    238.38544   -279.98577    263624.46   -25802.974    1929.2294   -27732.203   -790.80956    665.55795    78.594694    18.394277    27.341023 
   88400    239.54141   -311.10387    263624.46   -25717.326    1938.5845   -27655.911   -902.60998     667.5552    78.593566     18.39502    27.333251 
   88600    238.67002   -321.83941    263624.46   -25743.294    1931.5324   -27674.826    -907.1814    670.38037    78.593931    18.395072    27.335444 
   88800    235.79462   -261.86233    263624.46   -25734.704    1908.2621   -27642.966   -661.77113    675.74936    78.593604    18.394707    27.326898 
   89000    240.38789   -338.05946    263624.46   -25719.171     1945.435   -27664.606   -1021.3048    680.67593    78.593032    18.394606    27.326696 
   89200    238.28078   -198.35543    263624.46   -25752.327    1928.3824   -27680.709   -356.02001     683.1644    78.593047    18.396249    27.325395 
   89400    247.23667   -267.48087    263624.46   -25775.005    2000.8615   -27775.867   -729.85836    688.17831    78.590102     18.39565    27.317501 
   89600    232.21878   -316.11552    263624.46   -25845.643    1879.3232   -27724.966   -945.31409    694.04315    78.589916    18.396841    27.311205 
   89800    238.71041   -349.42363    263624.46   -25743.658    1931.8593   -27675.517   -1089.3363     697.7471     78.58966    18.396221    27.285358 
   90000    235.05897   -265.69719    263624.46   -25730.423    1902.3086   -27632.731   -647.81868    698.96443     78.58859    18.397033    27.297134 
   90200    236.94085   -474.68639    263624.46   -25768.868    1917.5385   -27686.407   -1631.0868    701.88872    78.589522    18.397312    27.288982 
   90400    244.26368   -322.79521    263624.46   -25780.529    1976.8013    -27757.33    -932.6871     701.8056    78.589835    18.398269    27.296411 
   90600    238.28865   -297.77986    263624.46   -25731.635     1928.446   -27660.081   -873.06902    705.27593    78.589956    18.399518    27.283782 
   90800    233.04033   -200.59795    263624.46   -25755.717    1885.9719   -27641.689   -385.97456    709.33423    78.590034     18.40144    27.279715 
   91000    236.51753   -331.95507    263624.46   -25758.269    1914.1126   -27672.381   -1024.9709    712.64211    78.589823    18.401111    27.271308 
   91200    232.75696   -359.56333    263624.46   -25834.808    1883.6786   -27718.486   -1120.9505    717.95747    78.590223    18.399473     27.27635 
   91400     236.3166   -344.90043    263624.46   -25765.502    1912.4864   -27677.988   -1068.6208    717.02897    78.591002     18.39942    27.270709 
   91600    247.74527   -302.68383    263624.46     -25657.9    2004.9775   -27662.878   -864.02913    716.66352    78.589709     18.39941    27.281215 
   91800    240.92335   -261.62814    263624.46   -25654.475    1949.7684   -27604.243   -656.97442    718.08155    78.588991    18.400193    27.301071 
   92000    243.94462   -251.50875    263624.46   -25685.787    1974.2192   -27660.006   -664.03097    721.02502    78.590864    18.400093     27.31109 
   92200    232.04878   -461.31866    263624.46   -25736.113    1877.9474   -27614.061   -1596.9804     725.0773    78.591512    18.398839    27.299692 
   92400    241.39857    -287.2222    263624.46   -25666.267    1953.6143   -27619.881   -823.01138    725.07671    78.593334     18.39792    27.305971 
   92600    244.50095   -382.92288    263624.46   -25619.583    1978.7215   -27598.305   -1213.2816    729.16697    78.594051    18.399678    27.315697 
   92800    238.60869   -218.71276    263624.46   -25706.652    1931.0361   -27637.688   -476.54566     727.7024    78.594949    18.400324    27.332383 
   93000    239.94856   -307.41435    263624.46   -25752.896    1941.8795   -27694.775   -888.54184    722.97406    78.595832    18.399782    27.345106 
   93200    240.90551    -391.5948    263624.46   -25742.091     1949.624   -27691.715   -1235.5212    719.61058    78.595759    18.400542    27.334401 
   93400    234.77491   -212.60709    263624.46   -25814.881    1900.0097   -27714.891   -453.13383    719.17911    78.593572    18.400268    27.368428 
   93600    240.45794   -334.48436    263624.46   -25735.729    1946.0019   -27681.731   -988.17251    719.98525    78.593826    18.401553    27.373278 
   93800    239.28939   -125.66715    263624.46   -25746.489    1936.5449   -27683.034   -81.489215    722.93744    78.592345    18.404588    27.369851 
   94000    237.28015   -128.38663    263624.46   -25756.594    1920.2844   -27676.878   -80.252665    726.54359    78.591683    18.403695    27.370877 
   94200    239.33595   -360.48387    263624.46   -25662.859    1936.9218   -27599.781    -1082.428    728.38345    78.590925    18.403449    27.357731 
   94400    242.96982   -183.83728    263624.46   -25736.735    1966.3303   -27703.065   -321.54158    729.08415    78.592389    18.402993    27.363699 
   94600    236.14961   -96.727238    263624.46   -25757.738     1911.135   -27668.873    103.96675    730.19003    78.594077    18.403101    27.358466 
   94800    237.19729   -214.94749    263624.46   -25741.571    1919.6138   -27661.185   -438.15786    728.26482    78.596086    18.402824      27.3507 
   95000    239.44965   -298.83564    263624.46   -25769.224    1937.8419   -27707.066   -836.79605    728.44608    78.596429    18.403285    27.358974 
   95200    236.55078   -445.83651    263624.46   -25767.155    1914.3816   -27681.537   -1485.9892    728.81983    78.595826    18.404358    27.362648 
   95400    235.51617   -323.37158    263624.46   -25739.255    1906.0086   -27645.264   -923.41729    728.54356     78.59698    18.404282    27.379295 
   95600     237.9614   -420.04398    263624.46   -25696.491    1925.7976   -27622.289   -1373.3386    728.25478    78.597539    18.404315    27.371722 
   95800    244.32635   -255.06185    263624.46   -25697.931    1977.3085   -27675.239   -602.86838    725.79339    78.599579    18.405103    27.362072 
   96000    242.56542    -298.7268    263624.46   -25669.313    1963.0575    -27632.37   -855.52417    723.81418    78.597602    18.400965    27.366932 
   96200    242.09578   -242.60339    263624.46   -25616.261    1959.2568   -27575.518   -584.08733    722.23782    78.597148    18.401038      27.3682 
   96400    239.39354    -318.6846    263624.46    -25678.96    1937.3878   -27616.348   -921.60203    722.13995    78.596471    18.401428    27.377624 
   96600    238.15731   -305.54593    263624.46   -25747.093    1927.3831   -27674.476   -910.75067    722.84434    78.595824     18.40091    27.379292 
   96800    244.83736   -254.67266    263624.46   -25705.787    1981.4441   -27687.231   -628.76762    718.66405    78.595571    18.399839    27.373452 
   97000    236.63604   -448.32932    263624.46   -25739.118    1915.0716    -27654.19    -1532.637    717.25079    78.595856     18.40124    27.388418 
   97200    237.97978   -127.95317    263624.46   -25736.331    1925.9464   -27662.277    -68.86045    717.62783    78.596903    18.401998    27.399947 
   97400    244.57629   -248.53789    263624.46    -25695.07    1979.3313   -27674.402   -569.23358    720.49559    78.597136    18.401682    27.387218 
   97600    240.11153   -204.75678    263624.46   -25619.247    1943.1984   -27562.445   -385.80213    721.69381    78.596582    18.402746    27.393054 
   97800    238.15514   -267.73485    263624.46   -25649.936    1927.3655   -27577.301   -673.04026    725.31948    78.595766     18.40404    27.402896 
   98000    236.46242   -286.84976    263624.46   -25739.479    1913.6665   -27653.146   -818.66021    726.49132    78.595703    18.404229    27.413785 
   98200    243.05619   -268.16747    263624.46   -25743.561    1967.0293    -27710.59   -703.42721    726.84798    78.595671     18.40496    27.422863 
   98400    238.26186   -379.66416    263624.46   -25745.977    1928.2293   -27674.207   -1216.0931    731.87217    78.596821    18.404916    27.426731 
   98600     233.0958   -348.23122    263624.46   -25748.772    1886.4208   -27635.193   -1064.9933     729.4202    78.595036    18.404048    27.411831 
   98800     243.0875   -250.19208    263624.46   -25686.065    1967.2827   -27653.348   -625.50966    727.19009    78.595277    18.404901     27.40728 
   99000    238.60843   -387.94316    263624.46   -25708.304     1931.034   -27639.338   -1208.4186     728.6474    78.596009    18.406667     27.40328 
   99200    241.00503   -210.67571    263624.46   -25676.078    1950.4295   -27626.507   -469.73974    727.90748    78.594881    18.407681    27.397151 
   99400    231.50426   -294.92787    263624.46   -25717.109    1873.5407    -27590.65   -831.30984    729.94134    78.593963    18.407529    27.403312 
   99600    242.15144   -228.04615    263624.46   -25667.941    1959.7072   -27627.649   -477.11065    734.26689    78.593234    18.405387    27.394808 
   99800    238.48017   -294.80067    263624.46   -25684.466     1929.996   -27614.462   -819.44608    737.76519    78.593367    18.405154    27.401945 
  100000    235.52245   -438.41253    263624.46   -25682.937    1906.0595   -27588.997   -1473.8415    737.63004    78.594017    18.405099    27.398913 
  100200    237.66465   -275.36273    263624.46   -25830.653    1923.3961   -27754.049   -732.39301    735.61728    78.594502    18.406627     27.42489 
  100400    241.23888   -297.30265    263624.46   -25758.102    1952.3219   -27710.424   -796.63097    734.77089    78.594445    18.406936    27.431149 
  100600    238.50214    -437.2027    263624.46   -25743.182    1930.1738   -27673.356   -1461.1549    736.63859     78.59342    18.406298    27.426942 
  100800     241.2243   -222.82632    263624.46   -25809.612     1952.204   -27761.816   -521.86975    737.80132    78.592875    18.403913    27.427911 
[...]
 5176000    226.98491   -1077.6562    263624.46   -28527.929     1836.966   -30364.895   -4188.1183    5398.5614    78.777003    18.945152    27.489352 
 5176200    224.75055   -986.69165    263624.46   -28483.144    1818.8835   -30302.028   -3750.0241    5395.2168    78.777438    18.946813    27.495372 
 5176400     223.8325   -1050.3032    263624.46   -28492.897    1811.4539   -30304.351   -4045.4551    5397.6365    78.777446    18.948344    27.489107 
 5176600    228.09974   -981.39881    263624.46   -28426.299    1845.9882   -30272.288   -3736.9581    5396.3441    78.776697    18.949003    27.497395 
 5176800    230.31491   -1068.3093    263624.46   -28462.108    1863.9154   -30326.024   -4139.4382    5398.0473     78.77629     18.94978    27.491912 
 5177000    226.46821   -1032.1161    263624.46    -28466.53    1832.7845   -30299.314   -3968.9987    5396.3625    78.776845     18.95045    27.494136 
 5177200     227.5173   -998.65196    263624.46   -28429.669    1841.2746   -30270.944   -3809.1945     5395.157    78.776512    18.949921     27.49306 
 5177400    229.78363   -975.08239    263624.46   -28403.065    1859.6158   -30262.681   -3686.2754    5396.1273    78.776221     18.94901    27.494817 
 5177600    229.60471   -995.81009    263624.46   -28400.023    1858.1678   -30258.191   -3803.3794    5396.7522    78.775805     18.95131    27.497421 
 5177800     227.7023   -951.87846    263624.46   -28468.113    1842.7718   -30310.885   -3611.8299    5397.3997    78.775181    18.950884    27.495331 
 5178000    218.45471   -1057.7851    263624.46    -28504.19     1767.932   -30272.122   -4110.4577    5396.1994    78.774203    18.952535    27.497312 
 5178200    229.67744   -1099.6988    263624.46   -28464.381    1858.7564   -30323.137   -4296.9622    5398.5019    78.775928    18.952085      27.4929 
 5178400    226.24553   -918.47317    263624.46   -28455.263    1830.9823   -30286.245   -3468.3144    5394.8711    78.776102    18.954054    27.494749 
 5178600    226.57009   -1000.1669    263624.46    -28476.96    1833.6089   -30310.569   -3814.2078    5395.4549    78.775947     18.95425    27.496788 
 5178800    223.51259   -1060.5996    263624.46   -28447.561    1808.8649   -30256.426   -4079.8049    5396.5108    78.774313    18.955587    27.491001 
 5179000    222.24083    -935.7839    263624.46   -28507.532    1798.5727   -30306.104   -3540.7678    5394.4391    78.774608    18.956389    27.496432 
 5179200    223.53571   -1010.7782    263624.46   -28526.963     1809.052   -30336.015   -3849.8967    5397.2113     78.77452    18.956451    27.493706 
 5179400     232.4767   -967.76523    263624.46   -28410.862    1881.4105   -30292.272   -3682.5395    5395.8859    78.775172    18.957915     27.49335 
 5179600    226.34759    -1074.683    263624.46   -28497.432    1831.8083    -30329.24   -4135.2898    5396.3375    78.776078    18.956827    27.493083 
 5179800    223.72532   -1045.0194    263624.46   -28530.288    1810.5865   -30340.875   -4001.2831    5396.6469    78.774381    18.958592    27.495201 
 5180000    221.30075   -902.22039    263624.46   -28595.957    1790.9647   -30386.922   -3346.6237    5395.0402    78.775162    18.958332    27.494129 
 5180200    225.71963   -1113.0572    263624.46   -28549.336    1826.7262   -30376.062   -4319.0986    5399.1484    78.773909    18.960108    27.491264 
 5180400    229.28648   -965.04903    263624.46   -28445.598    1855.5924   -30301.191   -3606.7843    5395.0116    78.773111    18.960177    27.499449 
 5180600    229.21994   -945.07851    263624.46   -28481.173    1855.0539   -30336.227   -3523.7621    5397.3769    78.773451    18.962233    27.501415 
 5180800    224.86067   -1007.2856    263624.46   -28542.368    1819.7747   -30362.143   -3806.1477    5395.2655    78.773406    18.962704    27.495662 
 5181000    225.78698   -1013.4548    263624.46   -28445.752    1827.2713   -30273.023   -3871.5214    5396.9263    78.773447    18.963794    27.498802 
 5181200    221.81772   -1111.4951    263624.46    -28520.44    1795.1485   -30315.589   -4320.8978    5397.1864    78.771757    18.965598    27.497566 
 5181400    220.70532    -982.9157    263624.46   -28478.226     1786.146   -30264.372   -3775.1357    5394.5421    78.771144    18.966096    27.497861 
 5181600    220.64465   -1100.0283    263624.46   -28510.787     1785.655   -30296.442   -4290.4864    5398.9011    78.770707    18.967262    27.498156 
 5181800    226.98098   -996.06391    263624.46   -28459.656    1836.9342   -30296.591   -3764.0517    5396.7391     78.76871    18.966858    27.496522 
 5182000    224.89863   -1006.5907    263624.46   -28462.481     1820.082   -30282.563   -3825.6911    5396.5697    78.769232    18.967903    27.498424 
 5182200    226.99356   -1095.9458    263624.46   -28435.586     1837.036   -30272.622   -4276.4014    5397.9267    78.767587    18.967656    27.496267 
 5182400    228.37774   -938.15515    263624.46   -28516.955     1848.238   -30365.193   -3531.7533      5395.08    78.767757    18.967639    27.494999 
 5182600    220.40604   -1106.5489    263624.46   -28506.388    1783.7239   -30290.112   -4303.3339    5399.9137     78.76839    18.966526    27.497971 
 5182800    233.00787   -945.20629    263624.46   -28475.123    1885.7092   -30360.833   -3572.2389    5395.3179    78.767233    18.967375    27.492469 
 5183000    224.07823   -1018.8275    263624.46   -28424.951    1813.4426   -30238.394   -3892.4591    5398.1705     78.76655    18.967364    27.494263 
 5183200     229.4169   -991.92641    263624.46   -28468.137    1856.6479   -30324.785   -3764.1872    5397.4793    78.765687     18.96891    27.491249 
 5183400    223.51327   -990.81809    263624.46   -28560.111    1808.8704   -30368.982   -3741.1382    5396.8624    78.765782    18.969544     27.49368 
 5183600    221.39406   -1035.4011    263624.46   -28529.324    1791.7198   -30321.043   -3958.4049    5398.4017    78.764485    18.971384    27.490351 
 5183800    226.08242   -967.54304    263624.46   -28517.111    1829.6622   -30346.773   -3664.0824    5396.6413    78.764191    18.972382    27.488932 
 5184000    223.08496   -988.24394    263624.46   -28467.176    1805.4041   -30272.581   -3757.3493    5397.4283    78.763209    18.973233    27.492515 
 5184200    228.10998    -1015.697    263624.46   -28472.443    1846.0711   -30318.514   -3862.9846    5396.7305    78.762338    18.972924    27.488263 
 5184400    222.51744   -1004.4656    263624.46   -28479.508    1800.8112   -30280.319   -3839.2411    5397.3327    78.762664    18.972271     27.49058 
 5184600    225.28353   -995.13079    263624.46   -28480.289    1823.1969   -30303.486    -3778.406    5398.3466    78.763209    18.973595    27.489716 
 5184800    224.43409   -1044.9865    263624.46   -28480.897    1816.3225    -30297.22   -4020.7974    5397.5217    78.763293    18.972928    27.490118 
 5185000    225.63769   -958.02893    263624.46   -28470.264    1826.0631   -30296.327    -3610.972    5395.3142    78.764133    18.973099    27.492429 
 5185200    225.08171   -1072.8709    263624.46   -28512.839    1821.5636   -30334.402   -4124.9992    5399.0393    78.765029    18.973337    27.489757 
 5185400    220.90552   -1002.2582    263624.46   -28482.022    1787.7661   -30269.788    -3827.802    5396.3324    78.764366    18.973876    27.491174 
 5185600    222.82547   -1059.8651    263624.46   -28500.728    1803.3041   -30304.032   -4092.7076    5398.4157    78.765128    18.973509     27.48994 
 5185800    227.91631   -1003.7552    263624.46   -28463.718    1844.5037   -30308.222   -3815.6816    5398.5248    78.765152    18.974386    27.491634 
 5186000    236.37045   -953.60561    263624.46   -28425.007    1912.9222   -30337.929   -3626.4286    5398.7661    78.765498    18.975041     27.49188 
 5186200    231.99037    -1062.286    263624.46   -28460.037    1877.4747   -30337.512   -4122.4791    5398.0831    78.764992    18.976559    27.487762 
 5186400    225.47595     -1045.63    263624.46   -28477.314    1824.7542   -30302.068   -4046.7996    5397.5331    78.764226    18.977141    27.493046 
 5186600     225.8496    -1042.786    263624.46   -28495.866    1827.7781   -30323.644   -4029.9318    5398.2098    78.764167    18.977598    27.493594 
 5186800    232.60755   -1030.4452    263624.46    -28409.74    1882.4695   -30292.209   -3973.9068    5398.5943    78.763393    18.978445    27.491415 
 5187000    234.78745   -981.31402    263624.46   -28410.599    1900.1112   -30310.711   -3733.3207    5399.4452    78.763619    18.978336    27.494195 
 5187200    221.29268   -1023.4958    263624.46   -28560.013    1790.8993   -30350.912   -3977.5554    5398.3206    78.762478    18.979925    27.495781 
 5187400    217.79719   -1013.6633    263624.46   -28560.753    1762.6107   -30323.364    -3867.582     5399.119     78.76372    18.981125    27.492906 
 5187600    226.56067   -989.40437    263624.46   -28467.942    1833.5327   -30301.475   -3758.6949    5397.6281    78.764097    18.982187    27.494713 
 5187800    226.61474   -984.49512    263624.46   -28493.115    1833.9703   -30327.085   -3788.5359    5399.1081    78.765331    18.983536    27.492706 
 5188000    230.26587   -1031.8449    263624.46   -28410.963    1863.5185   -30274.481   -3970.3047    5397.5641    78.766388    18.983977    27.492505 
 5188200    229.65121   -1035.8547    263624.46   -28436.958    1858.5441   -30295.502   -3978.7974    5397.9134    78.765147    18.985822    27.493747 
 5188400    227.38573   -1009.6741    263624.46   -28489.361    1840.2098   -30329.571   -3868.6485    5398.2215    78.766017    18.985264      27.4914 
 5188600    228.17754   -1011.0262    263624.46   -28534.213    1846.6179   -30380.831   -3878.8349    5396.9818     78.76492    18.986232    27.495131 
 5188800    230.48946   -1009.8822    263624.46   -28509.056    1865.3279   -30374.384    -3856.377    5398.3605    78.766128    18.985264    27.493704 
 5189000    230.42392   -995.02252    263624.46   -28480.961    1864.7976   -30345.759    -3793.524    5397.5481    78.765356    18.985508    27.491252 
 5189200    223.20796   -1017.4412    263624.46   -28578.858    1806.3995   -30385.257   -3917.6388    5399.7105    78.763976    18.986185    27.491863 
 5189400    223.03256   -1031.8894    263624.46   -28513.641    1804.9801   -30318.621   -3992.4043    5399.5728    78.763517     18.98631    27.488752 
 5189600    231.47919   -992.02299    263624.46   -28476.333    1873.3377    -30349.67   -3785.7597    5398.7745    78.761405    18.986866     27.48654 
 5189800    225.64674   -1019.0531    263624.46   -28522.718    1826.1363   -30348.855   -3876.2043     5397.758    78.762286    18.986698    27.486107 
 5190000    223.82868   -1055.0085    263624.46   -28505.381     1811.423   -30316.804   -4062.7908    5399.7326     78.76198    18.988115    27.490269 
 5190200    224.63342   -960.43039    263624.46   -28534.652    1817.9356   -30352.588    -3629.871     5397.397    78.761786    18.988776    27.487839 
 5190400    235.07112   -1096.7855    263624.46   -28376.353    1902.4069   -30278.759   -4263.4106    5398.7231    78.761434    18.988654    27.487823 
 5190600    227.09828   -1040.2313    263624.46    -28495.64    1837.8835   -30333.524   -4001.2289    5399.7975    78.760917    18.989702     27.48818 
 5190800    223.28379   -974.10607    263624.46    -28483.87    1807.0132   -30290.883    -3690.705    5397.0958    78.761604    18.990395    27.488462 
 5191000    225.40645   -1044.0809    263624.46   -28523.579    1824.1917   -30347.771   -4009.6473    5400.2849    78.761124    18.990177    27.489437 
 5191200    222.63216   -929.94236    263624.46   -28489.758    1801.7396   -30291.498   -3479.1612    5395.8408    78.761556     18.99131    27.488981 
 5191400     227.6809   -1132.1989    263624.46   -28500.193    1842.5986   -30342.791   -4375.8684    5399.1358    78.759567    18.991291    27.490432 
 5191600    225.75437   -981.05928    263624.46    -28523.11    1827.0074   -30350.117   -3691.6863    5399.6143    78.760492    18.990791    27.486006 
 5191800    230.80316    -963.7186    263624.46   -28417.134    1867.8667       -30285   -3632.0411    5395.7916     78.75941    18.991002    27.488649 
 5192000    233.12872   -1061.3417    263624.46   -28411.778    1886.6872   -30298.465   -4101.9976     5401.032    78.758703    18.992041    27.488617 
 5192200    224.74571   -964.55882    263624.46   -28471.013    1818.8444   -30289.857   -3705.4633    5396.8254    78.758321    18.993531    27.488608 
 5192400    229.90727   -1055.7035    263624.46   -28453.321    1860.6164   -30313.937   -4068.6995    5400.5179    78.758348    18.993878    27.491638 
 5192600    223.57032   -1005.8826    263624.46   -28523.787    1809.3321   -30333.119   -3819.4383    5396.9097    78.758476    18.993994    27.491004 
 5192800    228.36541   -1074.9604    263624.46   -28463.795    1848.1383   -30311.934   -4120.6775    5400.1676    78.758933    18.994083    27.494754 
 5193000    224.42202   -1011.9379    263624.46   -28501.907    1816.2248   -30318.132   -3886.6309    5396.6553    78.759792    18.996632    27.493054 
 5193200    231.39242   -1007.2958    263624.46   -28446.157    1872.6356   -30318.793   -3879.9165    5396.0499    78.761393    18.994949    27.485882 
 5193400    223.33552   -1107.4751    263624.46   -28520.534    1807.4319   -30327.966   -4317.0925    5400.5832    78.760215    18.997033    27.489002 
 5193600     231.4673   -909.57295    263624.46   -28423.585    1873.2416   -30296.826   -3432.5801    5396.3584    78.760081    18.997263    27.484329 
 5193800    224.89082   -1049.6264    263624.46   -28518.304    1820.0188   -30338.322   -4041.3426    5401.0526    78.758459    18.998094    27.489505 
 5194000    223.25268    -1007.482    263624.46   -28598.288    1806.7614   -30405.049   -3870.8225    5398.5905    78.758753    18.999007    27.484877 
 5194200    224.71567   -947.12996    263624.46   -28534.384    1818.6013   -30352.985   -3558.7756    5397.5391    78.758818    19.000315     27.48328 
 5194400    229.55226   -1085.7434    263624.46   -28454.397    1857.7433    -30312.14   -4180.8826     5401.674    78.758463    19.001957    27.491703 
 5194600    230.22369   -957.42378    263624.46   -28448.434    1863.1772   -30311.611    -3621.631    5395.3019    78.758139    19.002681    27.488627 
 5194800    234.10873   -1057.5378    263624.46   -28453.851    1894.6184   -30348.469   -4081.8777     5399.962    78.757189    19.003384    27.490464 
 5195000    231.38124   -971.54453    263624.46   -28480.104    1872.5451   -30352.649   -3673.8463    5398.6944    78.757342    19.003036    27.486514 
 5195200    231.03173   -973.89104    263624.46   -28452.903    1869.7165    -30322.62   -3684.7982    5396.2412    78.757556    19.004728    27.491651 
 5195400    230.51019   -1082.1122    263624.46   -28435.589    1865.4958   -30301.085   -4197.4062    5400.1062    78.757463    19.004069    27.490255 
 5195600     225.9536   -978.93729    263624.46   -28526.085    1828.6197   -30354.705   -3736.1225    5396.7709    78.757488    19.005453    27.483711 
 5195800    233.26469    -1002.541    263624.46   -28382.567    1887.7877   -30270.355   -3827.3818    5399.0577    78.757019    19.006101    27.490566 
 5196000    229.18088   -1025.3864    263624.46   -28465.922    1854.7378    -30320.66   -3949.0893    5397.8049    78.758436    19.005412    27.489144 
 5196200    223.80252   -1022.2092    263624.46   -28466.417    1811.2112   -30277.628   -3941.0097    5400.9369    78.758525    19.006536    27.498396 
 5196400    231.02252   -1033.1849    263624.46   -28445.658     1869.642     -30315.3   -3992.3695    5398.4954    78.758952     19.00722    27.494409 
 5196600    227.36325   -944.13178    263624.46   -28492.709    1840.0279   -30332.736   -3561.7699    5397.6901    78.758354     19.00686    27.494975 
 5196800     227.8603   -924.23023    263624.46    -28461.82    1844.0504    -30305.87   -3476.1907    5398.5184    78.758757    19.006373    27.498478 
 5197000    224.43153   -1027.8295    263624.46   -28417.284    1816.3017   -30233.586   -3969.8943    5400.5134    78.759632    19.007229    27.492341 
 5197200    221.75135   -942.22981    263624.46   -28475.581    1794.6114   -30270.193   -3585.6704    5397.9239    78.758768    19.008997    27.499245 
 5197400    229.43396   -1033.1915    263624.46   -28442.815     1856.786   -30299.601    -3965.913    5398.6365    78.759754    19.009104    27.496469 
 5197600    223.44876   -1050.6921    263624.46   -28500.255    1808.3483   -30308.604   -4013.6369    5399.9582    78.758739    19.009822    27.495172 
 5197800    222.17095   -1018.6201    263624.46   -28564.831    1798.0071   -30362.839   -3879.6898    5397.8065    78.758369    19.010967    27.498485 
 5198000    224.41541   -1020.1201    263624.46   -28439.411    1816.1713   -30255.582    -3891.919     5400.457    78.757198     19.01136    27.495821 
 5198200    228.56907   -927.23807    263624.46    -28430.07    1849.7865   -30279.856   -3477.7211    5396.2295    78.757196    19.011576    27.489693 
 5198400     227.5203   -1015.1902    263624.46   -28516.211    1841.2988    -30357.51   -3875.8285    5400.4202    78.756674    19.011046    27.490685 
 5198600    226.78538   -968.56632    263624.46   -28553.204    1835.3513   -30388.555   -3654.8736    5398.4506    78.757031    19.011869    27.498225 
 5198800    220.89456     -998.073    263624.46   -28483.362    1787.6774    -30271.04   -3788.6614    5395.8357    78.757026    19.011213    27.494923 
 5199000    228.67299   -992.14816    263624.46    -28410.61    1850.6275   -30261.237   -3743.6369    5398.7764    78.756956    19.010617    27.495066 
 5199200    230.06444   -963.98169    263624.46    -28463.98    1861.8883   -30325.868   -3648.9407    5397.1633    78.757219    19.010004    27.491804 
 5199400    229.46447   -992.26546    263624.46   -28488.893    1857.0328   -30345.926   -3757.9243    5401.2418    78.757314    19.010697    27.493037 
 5199600    226.57806   -955.25447    263624.46   -28466.674    1833.6734   -30300.348   -3582.4619    5396.4791    78.758379    19.010936    27.493249 
 5199800    228.30452   -1040.8767    263624.46   -28454.205    1847.6455   -30301.851   -4013.7462    5398.3172    78.758958    19.012417    27.497903 
 5200000    226.98625   -975.16068    263624.46    -28455.57    1836.9769   -30292.546   -3702.9239    5400.0588    78.759757    19.013047    27.497272 
Loop time of 16577.4 on 80 procs for 5200000 steps with 9436 atoms

Performance: 271.020 ns/day, 0.089 hours/ns, 313.681 timesteps/s
98.0% CPU use with 80 MPI tasks x no OpenMP threads

MPI task timing breakdown:
Section |  min time  |  avg time  |  max time  |%varavg| %total
---------------------------------------------------------------
Pair    | 0.26714    | 3643.7     | 13887      |7573.2 | 21.98
Neigh   | 0.47683    | 229.79     | 842.94     |1939.0 |  1.39
Comm    | 11.919     | 5328.2     | 14918      |6580.7 | 32.14
Output  | 173.47     | 173.58     | 175.51     |   1.7 |  1.05
Modify  | 277.61     | 7106.8     | 16323      |7605.8 | 42.87
Other   |            | 95.41      |            |       |  0.58

Nlocal:        117.950 ave         374 max           0 min
Histogram: 35 5 20 0 0 0 0 0 3 17
Nghost:        751.538 ave        1216 max           0 min
Histogram: 10 2 2 2 4 0 30 6 6 18
Neighs:         0.00000 ave           0 max           0 min
Histogram: 80 0 0 0 0 0 0 0 0 0
FullNghs:      11462.0 ave       44436 max           0 min
Histogram: 50 10 0 0 0 0 0 1 8 11

Total # of neighbors = 916962
Ave neighs/atom = 97.176982
Neighbor list builds = 551609
Dangerous builds = 0
write_data 		${DIR}/data.${NAME}_run
write_data 		run_8/data.${NAME}_run
write_data 		run_8/data.ibeam_cooling_8_run
System init for write_data ...
Total wall time: 4:36:51
