
### Dimensions ###


### IMPORT ATOMS ###
read_data ../Box_Setup/data.Ibeam_240K
Reading data file ...
  orthogonal box = (0.0000000 0.0000000 0.0000000) to (157.50400 36.487659 45.872046)
  10 by 2 by 4 MPI processor grid
  reading atoms ...
  9436 atoms
  reading velocities ...
  9436 velocities
  read_data CPU = 0.027 seconds
group water type 2
2716 atoms in group water
group graphite type 1
6720 atoms in group graphite


# Define potential
#
pair_style          sw
pair_coeff * * MLC_e.sw C mW

# Add velocity/set timestep
#

fix		1 graphite setforce 0.0 0.0 0.0
velocity 	graphite set 0.0 0.0 0.0
velocity            water create ${START_TEMP} ${SEED} rot yes dist gaussian
velocity            water create 240 ${SEED} rot yes dist gaussian
velocity            water create 240 16438 rot yes dist gaussian
timestep            5.0

# Define output
#
compute 1 water msd
compute 2 water temp


thermo	            100
thermo_style custom step c_2 press vol etotal ke pe c_1[4] density

# Neighbor lists
#
neigh_modify        delay 0 every 1 check yes


# Set fixes
#
fix                 2 water momentum 10 linear 1 1 1 rescale
fix                 3 all nve
fix                 4 water temp/csvr ${START_TEMP} ${START_TEMP} 500.0 928347
fix                 4 water temp/csvr 240 ${START_TEMP} 500.0 928347
fix                 4 water temp/csvr 240 240 500.0 928347

# Run 0.05 ns equilibration
#
dump                1 all custom 100 ${DIR}/eq.${NAME}.dump id type x y z vx vy vz
dump                1 all custom 100 run_8/eq.${NAME}.dump id type x y z vx vy vz
dump                1 all custom 100 run_8/eq.ibeam_cooling_8.dump id type x y z vx vy vz
run                 10000
Neighbor list info ...
  update every 1 steps, delay 0 steps, check yes
  max neighbors/atom: 2000, page size: 100000
  master list distance cutoff = 6.6747184
  ghost atom cutoff = 6.6747184
  binsize = 3.3373592, bins = 48 11 14
  1 neighbor lists, perpetual/occasional/extra = 1 0 0
  (1) pair sw, perpetual
      attributes: full, newton on
      pair build: full/bin/atomonly
      stencil: full/bin/3d
      bin: standard
Per MPI rank memory allocation (min/avg/max) = 3.597 | 4.372 | 4.790 Mbytes
Step c_2 Press Volume TotEng KinEng PotEng c_1[4] Density 
       0          240   -384.81349    263624.46   -25860.227    1942.2958   -27802.523            0   0.81656126 
     100    240.99873    -313.2498    263624.46   -25859.351    1950.3785   -27809.729   0.81119385   0.81656126 
     200    233.24997   -216.27612    263624.46   -25864.672    1887.6685   -27752.341    1.3019617   0.81656126 
     300    242.02087   -274.39755    263624.46   -25856.315    1958.6506   -27814.965    1.7209155   0.81656126 
     400    235.28392   -232.99083    263624.46   -25844.387     1904.129   -27748.516    2.2736204   0.81656126 
     500    242.32323   -276.78057    263624.46   -25814.371    1961.0975   -27775.469    2.6763136   0.81656126 
     600     238.4901   -417.74638    263624.46   -25719.685    1930.0763   -27649.761    3.1538668   0.81656126 
     700    240.89218   -337.55424    263624.46   -25725.387    1949.5161   -27674.903    3.5705736   0.81656126 
     800    243.55172   -146.54129    263624.46    -25711.61    1971.0396    -27682.65    4.2443078   0.81656126 
     900    239.95924   -287.64137    263624.46   -25738.526     1941.966   -27680.492    4.6836283   0.81656126 
    1000    239.95191   -350.72971    263624.46   -25774.387    1941.9066   -27716.294    5.0794604   0.81656126 
    1100    243.18079   -268.93382    263624.46   -25745.055    1968.0377   -27713.093    5.4000649   0.81656126 
    1200    240.78184   -355.13675    263624.46   -25749.065    1948.6232   -27697.688    5.7056359   0.81656126 
    1300    248.24547   -284.98453    263624.46   -25696.294    2009.0256    -27705.32    6.1040889   0.81656126 
    1400    239.79184   -184.70335    263624.46   -25738.877    1940.6112   -27679.488    6.4554333   0.81656126 
    1500    240.38615   -310.20559    263624.46   -25784.514    1945.4209   -27729.935    6.7714746   0.81656126 
    1600    239.70333   -277.44452    263624.46   -25764.998    1939.8949   -27704.893    7.0312495   0.81656126 
    1700    240.50105   -302.37437    263624.46   -25781.584    1946.3508   -27727.935    7.3977372   0.81656126 
    1800    237.89087   -256.69607    263624.46   -25750.684    1925.2269   -27675.911    7.8517843   0.81656126 
    1900    247.51327   -320.16029    263624.46   -25723.285       2003.1   -27726.385    8.3136171   0.81656126 
    2000    246.42447   -425.52333    263624.46   -25707.094    1994.2884   -27701.383    8.6108912   0.81656126 
    2100    241.87128   -289.35008    263624.46   -25808.304    1957.4399   -27765.744    9.0825855   0.81656126 
    2200    236.44403   -273.00017    263624.46   -25775.846    1913.5177   -27689.364     9.333277   0.81656126 
    2300    243.96752   -152.23208    263624.46   -25759.466    1974.4045   -27733.871    9.7734938   0.81656126 
    2400    241.05661   -225.07142    263624.46   -25754.636    1950.8468   -27705.483    10.197622   0.81656126 
    2500    243.49582   -348.17135    263624.46   -25773.785    1970.5872   -27744.372     10.44414   0.81656126 
    2600    238.43939   -310.34582    263624.46   -25762.094    1929.6659    -27691.76    10.837213   0.81656126 
    2700    237.46864   -317.56247    263624.46   -25739.039    1921.8098   -27660.848    11.205615   0.81656126 
    2800    245.05629   -179.62605    263624.46   -25675.179    1983.2158   -27658.395    11.649534   0.81656126 
    2900    242.77256   -249.39141    263624.46   -25680.078    1964.7338   -27644.812    11.827593   0.81656126 
    3000     245.9788   -310.65293    263624.46   -25667.263    1990.6816   -27657.944    12.294112   0.81656126 
    3100    244.15917   -323.19751    263624.46   -25660.102    1975.9556   -27636.057    12.670701   0.81656126 
    3200    240.75427   -380.34325    263624.46   -25725.844       1948.4   -27674.244    12.776821   0.81656126 
    3300    239.27435   -298.78332    263624.46   -25805.588    1936.4232   -27742.011    13.062441   0.81656126 
    3400    239.38618   -309.13258    263624.46   -25748.485    1937.3282   -27685.813    13.244688   0.81656126 
    3500    234.44487   -439.56616    263624.46   -25747.997    1897.3387   -27645.335    13.454622   0.81656126 
    3600    238.60347   -272.31437    263624.46   -25750.313    1930.9939   -27681.307    13.856975   0.81656126 
    3700    240.04469   -279.95056    263624.46   -25716.908    1942.6575   -27659.565    14.123687   0.81656126 
    3800    242.85643   -225.79062    263624.46   -25705.921    1965.4126   -27671.334      14.5299   0.81656126 
    3900    235.19535   -410.25818    263624.46   -25704.384    1903.4123   -27607.797    14.813874   0.81656126 
    4000    239.26674   -239.75099    263624.46   -25743.018    1936.3616    -27679.38     15.28783   0.81656126 
    4100    242.70806   -149.21301    263624.46   -25726.954    1964.2119   -27691.166    15.582874   0.81656126 
    4200     238.8986    -140.1379    263624.46   -25711.184    1933.3823   -27644.566    15.932395   0.81656126 
    4300    235.15296   -245.22541    263624.46   -25777.346    1903.0692   -27680.416    16.308028   0.81656126 
    4400    238.41515    -450.0603    263624.46   -25730.866    1929.4698   -27660.336    16.749521   0.81656126 
    4500     242.8061    -269.6488    263624.46    -25772.97    1965.0053   -27737.975    17.244845   0.81656126 
    4600    240.64886   -188.92473    263624.46   -25824.419     1947.547   -27771.966    17.739135   0.81656126 
    4700    241.31078   -262.14931    263624.46   -25774.912    1952.9038   -27727.816    18.197439   0.81656126 
    4800    239.70368   -300.28561    263624.46   -25740.569    1939.8977   -27680.467    18.384129   0.81656126 
    4900    246.33614   -359.91007    263624.46   -25680.836    1993.5735    -27674.41    18.814841   0.81656126 
    5000    240.14884   -415.01514    263624.46   -25746.554    1943.5003   -27690.054     19.01082   0.81656126 
    5100    245.49583   -282.60071    263624.46   -25721.452     1986.773   -27708.225    19.362598   0.81656126 
    5200     239.8495   -256.29686    263624.46    -25752.36    1941.0779   -27693.438    19.551649   0.81656126 
    5300    237.15848   -376.52302    263624.46   -25816.109    1919.2997   -27735.408    19.853245   0.81656126 
    5400    235.22217   -163.41527    263624.46   -25803.847    1903.6293   -27707.476    20.199604   0.81656126 
    5500     238.7963    -380.4874    263624.46   -25796.939    1932.5544   -27729.494    20.638144   0.81656126 
    5600    236.39948   -331.17237    263624.46   -25814.671    1913.1572   -27727.828    21.214844   0.81656126 
    5700    239.99053   -271.90707    263624.46   -25803.602    1942.2192   -27745.821    21.652084   0.81656126 
    5800    240.74611    -286.9686    263624.46   -25783.878     1948.334   -27732.212    21.776288   0.81656126 
    5900    236.40165   -174.62002    263624.46   -25827.725    1913.1747     -27740.9    21.857792   0.81656126 
    6000    236.91636   -171.68986    263624.46   -25843.222    1917.3403   -27760.563    22.229576   0.81656126 
    6100    234.95432   -347.15592    263624.46   -25846.229    1901.4616    -27747.69    22.413346   0.81656126 
    6200    234.63239   -245.11296    263624.46   -25821.303    1898.8563   -27720.159    22.884766   0.81656126 
    6300    242.75788    -264.6249    263624.46   -25761.667    1964.6151   -27726.282    23.523832   0.81656126 
    6400    238.69063   -175.09798    263624.46   -25805.155    1931.6992   -27736.854    23.991902   0.81656126 
    6500    242.31675    -481.8998    263624.46   -25837.321    1961.0451   -27798.366    24.304798   0.81656126 
    6600    241.82143   -280.03626    263624.46   -25841.101    1957.0365   -27798.138    24.696366   0.81656126 
    6700    235.45638   -405.53758    263624.46     -25866.9    1905.5248   -27772.424    24.767672   0.81656126 
    6800    238.54259   -293.34009    263624.46    -25858.51    1930.5012   -27789.011    24.943051   0.81656126 
    6900    238.24147   -176.48836    263624.46   -25815.237    1928.0643   -27743.301    25.474591   0.81656126 
    7000    237.86215   -153.63813    263624.46   -25803.054    1924.9944   -27728.048    25.837772   0.81656126 
    7100    240.86556   -288.99826    263624.46   -25804.033    1949.3008   -27753.334    26.126008   0.81656126 
    7200    237.89796   -249.84833    263624.46    -25879.22    1925.2842   -27804.504    26.635813   0.81656126 
    7300     234.7266   -287.75059    263624.46    -25917.43    1899.6188   -27817.049    26.994276   0.81656126 
    7400    242.18737    -300.8371    263624.46   -25862.827     1959.998   -27822.825    27.239988   0.81656126 
    7500    242.01173    -161.7973    263624.46   -25833.113    1958.5766    -27791.69    27.494607   0.81656126 
    7600    244.92338   -208.65624    263624.46   -25797.748    1982.1402   -27779.889    27.859581   0.81656126 
    7700    233.55937   -191.97107    263624.46   -25830.161    1890.1724   -27720.334    27.950864   0.81656126 
    7800    233.00948   -237.20712    263624.46    -25885.24    1885.7223   -27770.962    27.936822   0.81656126 
    7900    236.31789   -354.08925    263624.46   -25836.891    1912.4968   -27749.388    28.214807   0.81656126 
    8000    243.73759   -220.55316    263624.46   -25776.106    1972.5437    -27748.65    28.378933   0.81656126 
    8100      244.815   -222.22231    263624.46   -25769.235    1981.2631   -27750.498    28.675178   0.81656126 
    8200    244.77779    -157.7587    263624.46   -25782.347     1980.962   -27763.309    28.899579   0.81656126 
    8300     247.6711   -164.28951    263624.46   -25756.903    2004.3773   -27761.281    29.469422   0.81656126 
    8400    241.81392   -302.52494    263624.46    -25738.62    1956.9757   -27695.595    29.986955   0.81656126 
    8500    240.76364    -435.7504    263624.46   -25769.483    1948.4759   -27717.958    30.605474   0.81656126 
    8600    238.21631   -449.55863    263624.46   -25766.079    1927.8606   -27693.939    31.010258   0.81656126 
    8700     242.7007   -434.04048    263624.46   -25783.636    1964.1523   -27747.789    31.515907   0.81656126 
    8800    238.84557   -270.33999    263624.46    -25789.86    1932.9532   -27722.814    31.917091   0.81656126 
    8900    239.26454   -226.74913    263624.46   -25812.882    1936.3438   -27749.226    32.236541   0.81656126 
    9000    241.12112   -240.63407    263624.46   -25787.254     1951.369   -27738.622    32.804744   0.81656126 
    9100    239.19046   -235.80887    263624.46   -25807.878    1935.7443   -27743.623    33.237258   0.81656126 
    9200    237.91236   -217.74814    263624.46   -25737.171    1925.4007   -27662.572    33.696785   0.81656126 
    9300    237.83542   -363.46548    263624.46   -25796.258    1924.7781   -27721.036    34.111814   0.81656126 
    9400    241.70922   -235.21898    263624.46   -25778.056    1956.1284   -27734.184    34.238148   0.81656126 
    9500     236.1293   -162.04077    263624.46   -25808.993    1910.9706   -27719.964    34.434781   0.81656126 
    9600    240.93744   -372.95058    263624.46   -25827.236    1949.8824   -27777.119    34.587391   0.81656126 
    9700    241.18601   -305.30134    263624.46   -25813.105    1951.8941       -27765    34.895111   0.81656126 
    9800    240.29806   -330.40789    263624.46   -25759.355     1944.708   -27704.063    35.435926   0.81656126 
    9900    243.32303   -298.38634    263624.46   -25787.162    1969.1887   -27756.351    35.943183   0.81656126 
   10000    241.68523   -285.32648    263624.46   -25791.195    1955.9342   -27747.129    36.572861   0.81656126 
Loop time of 33.7684 on 80 procs for 10000 steps with 9436 atoms

Performance: 127.930 ns/day, 0.188 hours/ns, 296.135 timesteps/s
97.9% CPU use with 80 MPI tasks x no OpenMP threads

MPI task timing breakdown:
Section |  min time  |  avg time  |  max time  |%varavg| %total
---------------------------------------------------------------
Pair    | 0.00056529 | 7.8413     | 28.951     | 374.8 | 23.22
Neigh   | 0.00051403 | 0.24957    | 0.92751    |  62.8 |  0.74
Comm    | 0.013267   | 10.121     | 30.407     | 349.8 | 29.97
Output  | 0.17877    | 0.17904    | 0.18608    |   0.2 |  0.53
Modify  | 0.56338    | 15.165     | 33.417     | 382.6 | 44.91
Other   |            | 0.2127     |            |       |  0.63

Nlocal:        117.950 ave         373 max           0 min
Histogram: 36 0 19 5 0 0 0 0 2 18
Nghost:        754.950 ave        1258 max           0 min
Histogram: 12 0 0 4 0 22 18 0 10 14
Neighs:         0.00000 ave           0 max           0 min
Histogram: 80 0 0 0 0 0 0 0 0 0
FullNghs:      11526.4 ave       45122 max           0 min
Histogram: 48 12 0 0 0 0 0 2 10 8

Total # of neighbors = 922112
Ave neighs/atom = 97.722764
Neighbor list builds = 586
Dangerous builds = 0
write_data 	    ${DIR}/data.${NAME}_eq
write_data 	    run_8/data.${NAME}_eq
write_data 	    run_8/data.ibeam_cooling_8_eq
System init for write_data ...

undump              1
unfix               4



################################################
#######         Run Simulation         #########
################################################

reset_timestep      0
timestep	    10.0
log                 ${DIR}/log.run_${NAME}
log                 run_8/log.run_${NAME}
log                 run_8/log.run_ibeam_cooling_8
