
### Dimensions ###


### IMPORT ATOMS ###
read_data ../Box_Setup/data.Ibeam_240K
  orthogonal box = (0 0 0) to (189.989 26.9999 39.8504)
  15 by 2 by 4 MPI processor grid
  reading atoms ...
  8482 atoms
  reading velocities ...
  8482 velocities
group water type 2
2436 atoms in group water
group graphite type 1
6046 atoms in group graphite


# Define potential
#
pair_style          sw
pair_coeff * * MLC_e.sw C mW

# Add velocity/set timestep
#

fix		1 graphite setforce 0.0 0.0 0.0
velocity 	graphite set 0.0 0.0 0.0
velocity            water create ${START_TEMP} ${SEED} rot yes dist gaussian
velocity            water create 240 ${SEED} rot yes dist gaussian
velocity            water create 240 26709 rot yes dist gaussian
timestep            5.0

# Define output
#
compute 1 water msd
compute 2 water temp


thermo	            100
thermo_style custom step c_2 press vol etotal ke pe c_1[4] density

# Neighbor lists
#
neigh_modify        delay 0 every 1 check yes


# Set fixes
#
fix                 2 water momentum 10 linear 1 1 1 rescale
fix                 3 all nve
fix                 4 water temp/csvr ${START_TEMP} ${START_TEMP} 500.0 928347
fix                 4 water temp/csvr 240 ${START_TEMP} 500.0 928347
fix                 4 water temp/csvr 240 240 500.0 928347

# Run 0.05 ns equilibration
#
dump                1 all custom 100 ${DIR}/eq.${NAME}.dump id type x y z vx vy vz
dump                1 all custom 100 run_22/eq.${NAME}.dump id type x y z vx vy vz
dump                1 all custom 100 run_22/eq.ibeam_cooling_22.dump id type x y z vx vy vz
run                 10000
Neighbor list info ...
  update every 1 steps, delay 0 steps, check yes
  max neighbors/atom: 2000, page size: 100000
  master list distance cutoff = 6.67472
  ghost atom cutoff = 6.67472
  binsize = 3.33736, bins = 57 9 12
  1 neighbor lists, perpetual/occasional/extra = 1 0 0
  (1) pair sw, perpetual
      attributes: full, newton on
      pair build: full/bin/atomonly
      stencil: full/bin/3d
      bin: standard
Per MPI rank memory allocation (min/avg/max) = 0.4705 | 3.837 | 4.747 Mbytes
Step c_2 Press Volume TotEng KinEng PotEng c_1[4] Density 
       0          240   -262.64038    204420.41   -23347.773    1741.9854   -25089.758            0   0.94632332 
     100      240.894   -273.43965    204420.41   -23357.469    1748.4743   -25105.944   0.86866243   0.94632332 
     200    233.18381   -345.15148    204420.41   -23371.141    1692.5116   -25063.652    1.3180328   0.94632332 
     300    239.86763   -339.60967    204420.41     -23340.4    1741.0246   -25081.425    1.7067897   0.94632332 
     400    235.76645   -306.05994    204420.41   -23331.295    1711.2571   -25042.552     2.119366   0.94632332 
     500    239.48774    -162.0687    204420.41   -23311.766    1738.2672   -25050.033    2.4789709   0.94632332 
     600    241.91986   -349.20777    204420.41   -23253.398    1755.9202   -25009.318     2.914716   0.94632332 
     700    239.87136   -357.13738    204420.41    -23267.32    1741.0517   -25008.372    3.2150916   0.94632332 
     800    236.82704   -367.73226    204420.41   -23240.548    1718.9552   -24959.503    3.5227214   0.94632332 
     900    229.09811   -522.97791    204420.41   -23250.245    1662.8565   -24913.102    3.8488654   0.94632332 
    1000    236.40018   -221.01154    204420.41   -23258.966    1715.8569   -24974.823     4.236034   0.94632332 
    1100    244.86129   -236.06423    204420.41    -23238.54      1777.27    -25015.81    4.7270877   0.94632332 
    1200    247.19863   -404.83688    204420.41   -23244.692     1794.235   -25038.927     5.140009   0.94632332 
    1300    242.54117   -370.36681    204420.41   -23199.047    1760.4299   -24959.477    5.4403525   0.94632332 
    1400    239.37903   -189.67159    204420.41   -23225.277    1737.4782   -24962.755    5.7404576   0.94632332 
    1500    230.68689   -439.44158    204420.41   -23242.544    1674.3883   -24916.932    6.2184074   0.94632332 
    1600    239.17318   -370.64448    204420.41   -23219.472    1735.9841   -24955.456     6.569541   0.94632332 
    1700    234.52586   -425.87779    204420.41   -23241.791    1702.2526   -24944.044    6.9712392   0.94632332 
    1800    243.70265   -439.95112    204420.41   -23206.116    1768.8602   -24974.976    7.5120613   0.94632332 
    1900    242.63653   -484.97791    204420.41   -23169.934     1761.122   -24931.056    7.6742968   0.94632332 
    2000    241.25272   -436.68395    204420.41   -23152.547    1751.0779   -24903.625    8.0945876   0.94632332 
    2100    243.25939   -278.71342    204420.41   -23261.535    1765.6429   -25027.178     8.596963   0.94632332 
    2200    245.70804   -237.14348    204420.41   -23224.985    1783.4159   -25008.401     9.031523   0.94632332 
    2300    240.84234   -244.93294    204420.41   -23225.729    1748.0993   -24973.829    9.4642501   0.94632332 
    2400    240.08469   -259.34109    204420.41   -23226.465    1742.6001   -24969.065    9.9377165   0.94632332 
    2500    236.99642    -274.4164    204420.41   -23247.436    1720.1846   -24967.621    10.270638   0.94632332 
    2600    233.18461   -431.50775    204420.41   -23240.381    1692.5175   -24932.899    10.611784   0.94632332 
    2700    239.91413   -456.35273    204420.41   -23240.403    1741.3622   -24981.765    11.005305   0.94632332 
    2800    241.93981    -422.3028    204420.41   -23175.708     1756.065   -24931.773    11.224704   0.94632332 
    2900    239.64109   -357.23979    204420.41   -23168.935    1739.3803   -24908.315    11.517472   0.94632332 
    3000    246.00893   -180.23563    204420.41   -23159.821    1785.5998   -24945.421    12.042655   0.94632332 
    3100    245.62586   -442.31199    204420.41   -23144.732    1782.8194   -24927.552    12.551183   0.94632332 
    3200    240.83303   -388.51458    204420.41   -23199.346    1748.0317   -24947.378    12.938116   0.94632332 
    3300    233.34833   -325.54658    204420.41   -23283.341    1693.7058   -24977.047    13.412277   0.94632332 
    3400    239.06663   -118.76952    204420.41   -23232.646    1735.2107   -24967.857    13.676294   0.94632332 
    3500    241.84276   -277.26983    204420.41   -23236.477    1755.3607   -24991.837    14.089807   0.94632332 
    3600    244.99957   -282.99512    204420.41   -23248.472    1778.2736   -25026.745    14.514348   0.94632332 
    3700    243.40667   -316.23899    204420.41   -23217.851    1766.7119   -24984.563    15.182284   0.94632332 
    3800    237.70731   -262.33442    204420.41   -23199.036    1725.3444   -24924.381    15.583967   0.94632332 
    3900     251.0194   -308.42113    204420.41   -23196.626    1821.9672   -25018.593    15.850718   0.94632332 
    4000    246.60436   -391.89618    204420.41     -23242.2    1789.9216   -25032.122    16.237642   0.94632332 
    4100    237.44707   -332.30266    204420.41   -23235.118    1723.4555   -24958.573    16.618548   0.94632332 
    4200    249.10257   -370.05211    204420.41   -23229.766    1808.0543    -25037.82    17.086182   0.94632332 
    4300    238.69501   -384.71515    204420.41     -23302.4    1732.5134   -25034.913    17.394487   0.94632332 
    4400    242.73387   -218.31136    204420.41   -23285.599    1761.8286   -25047.428    17.613146   0.94632332 
    4500    240.46394   -298.57497    204420.41   -23321.361    1745.3528   -25066.713     17.90691   0.94632332 
    4600    237.06869   -339.26621    204420.41   -23369.167    1720.7092   -25089.876    18.297391   0.94632332 
    4700    236.86272    -367.2435    204420.41   -23300.129    1719.2142   -25019.343    18.760634   0.94632332 
    4800    244.74918   -209.22357    204420.41   -23270.219    1776.4562   -25046.675    19.283898   0.94632332 
    4900    237.31061   -352.38013    204420.41   -23219.039    1722.4651   -24941.504    19.397554   0.94632332 
    5000    239.49915   -412.01739    204420.41   -23266.728    1738.3501   -25005.078    19.663413   0.94632332 
    5100    249.57025   -424.26056    204420.41   -23220.563    1811.4489   -25032.012    19.969283   0.94632332 
    5200    235.43964   -422.49741    204420.41    -23251.32    1708.8851   -24960.205    20.391316   0.94632332 
    5300    236.61286   -309.35185    204420.41    -23323.38    1717.4006    -25040.78    20.478773   0.94632332 
    5400    242.60106   -294.99122    204420.41   -23315.816    1760.8646    -25076.68    20.916453   0.94632332 
    5500     243.8293   -433.70689    204420.41   -23316.567    1769.7795   -25086.347    21.408445   0.94632332 
    5600    240.80063   -227.57399    204420.41     -23337.4    1747.7966   -25085.196    21.661273   0.94632332 
    5700    239.37563   -164.22827    204420.41   -23316.096    1737.4535    -25053.55    22.023987   0.94632332 
    5800    238.62598    -42.16884    204420.41   -23293.154    1732.0124   -25025.166    22.359202   0.94632332 
    5900    239.04956   -214.21039    204420.41    -23317.06    1735.0868   -25052.147     22.55208   0.94632332 
    6000     241.3667   -306.13973    204420.41   -23328.872    1751.9053   -25080.777    22.612734   0.94632332 
    6100    234.89009   -466.07804    204420.41   -23345.861    1704.8963   -25050.758    23.119954   0.94632332 
    6200    236.93518   -287.99278    204420.41   -23343.179    1719.7401   -25062.919    23.616041   0.94632332 
    6300    242.60978   -307.81775    204420.41   -23275.436    1760.9279   -25036.364    23.874123   0.94632332 
    6400    239.05438    -427.1022    204420.41   -23316.042    1735.1218   -25051.164    24.229928   0.94632332 
    6500     235.0696   -413.53433    204420.41    -23317.78    1706.1992    -25023.98    24.806751   0.94632332 
    6600    238.70257    -612.3702    204420.41   -23311.627    1732.5683   -25044.196    24.929633   0.94632332 
    6700    231.38681   -431.15958    204420.41   -23342.617    1679.4685   -25022.085    25.389216   0.94632332 
    6800    237.05542   -475.54021    204420.41   -23327.851    1720.6128   -25048.464    25.423128   0.94632332 
    6900    237.83823   -346.41107    204420.41   -23281.017    1726.2947   -25007.312    26.106263   0.94632332 
    7000    241.31786   -65.458588    204420.41    -23287.61    1751.5508   -25039.161     26.38522   0.94632332 
    7100    240.51909    -294.6514    204420.41   -23309.202    1745.7531   -25054.956    26.808802   0.94632332 
    7200    229.50326   -236.95659    204420.41    -23376.47    1665.7972   -25042.268    26.976238   0.94632332 
    7300    235.89501   -78.814065    204420.41   -23413.037    1712.1903   -25125.228    27.085804   0.94632332 
    7400     235.9651    -420.5562    204420.41   -23385.737     1712.699   -25098.436    27.533915   0.94632332 
    7500    235.87864   -175.87067    204420.41   -23361.698    1712.0714   -25073.769    28.216569   0.94632332 
    7600    236.42119   -439.00505    204420.41    -23314.44    1716.0094   -25030.449    28.428434   0.94632332 
    7700    236.00332   -521.27132    204420.41   -23327.902    1712.9764   -25040.879    28.900822   0.94632332 
    7800    231.24129    -397.4566    204420.41   -23388.739    1678.4123   -25067.152    29.182809   0.94632332 
    7900    230.42129   -200.93022    204420.41   -23346.464    1672.4605   -25018.924    29.832311   0.94632332 
    8000    244.52013   -294.83653    204420.41   -23274.298    1774.7937   -25049.091    30.270178   0.94632332 
    8100    240.71464   -295.94495    204420.41   -23253.359    1747.1724   -25000.531    30.539538   0.94632332 
    8200    244.05338   -387.92568    204420.41   -23278.351    1771.4059   -25049.757    30.849174   0.94632332 
    8300    245.17315   -341.63088    204420.41   -23237.296    1779.5335   -25016.829    31.427271   0.94632332 
    8400    243.75499   -291.62765    204420.41   -23229.107    1769.2401   -24998.347    32.023847   0.94632332 
    8500    237.85012   -450.19526    204420.41   -23273.126     1726.381   -24999.507    32.493854   0.94632332 
    8600    247.04747   -507.35577    204420.41   -23285.299    1793.1378   -25078.437    32.692214   0.94632332 
    8700     243.8828   -462.39161    204420.41   -23314.348    1770.1678   -25084.516    32.794856   0.94632332 
    8800    245.13282   -420.96437    204420.41   -23308.554    1779.2408   -25087.794    33.045618   0.94632332 
    8900    236.64707   -374.04932    204420.41   -23350.032    1717.6489    -25067.68    33.231686   0.94632332 
    9000    239.26618   -302.52443    204420.41   -23312.234    1736.6591   -25048.893    33.540389   0.94632332 
    9100    240.69749   -291.51991    204420.41   -23316.835     1747.048   -25063.883    33.892458   0.94632332 
    9200    237.23375    -306.6418    204420.41   -23269.992    1721.9072   -24991.899     34.75305   0.94632332 
    9300    234.80867   -386.71226    204420.41   -23326.646    1704.3053   -25030.951    35.153183   0.94632332 
    9400    238.90823   -268.67208    204420.41   -23304.221    1734.0611   -25038.282    35.520342   0.94632332 
    9500    239.69424   -267.88807    204420.41   -23350.199    1739.7661   -25089.965    35.997535   0.94632332 
    9600    239.90341   -437.81551    204420.41     -23357.5    1741.2843   -25098.785    36.037738   0.94632332 
    9700    235.29379   -447.03732    204420.41   -23321.103    1707.8265   -25028.929    36.560203   0.94632332 
    9800    240.93643   -467.04091    204420.41   -23253.547    1748.7823    -25002.33    36.728217   0.94632332 
    9900    240.60471   -323.95447    204420.41   -23286.075    1746.3746    -25032.45    37.303036   0.94632332 
   10000    241.46348   -372.51614    204420.41    -23288.33    1752.6077   -25040.938    37.974387   0.94632332 
Loop time of 17.3117 on 120 procs for 10000 steps with 8482 atoms

Performance: 249.542 ns/day, 0.096 hours/ns, 577.644 timesteps/s
97.9% CPU use with 120 MPI tasks x no OpenMP threads

MPI task timing breakdown:
Section |  min time  |  avg time  |  max time  |%varavg| %total
---------------------------------------------------------------
Pair    | 0.00044155 | 4.4386     | 14.653     | 251.5 | 25.64
Neigh   | 0.00038886 | 0.12952    | 0.49428    |  42.8 |  0.75
Comm    | 0.010872   | 4.7109     | 13.486     | 242.2 | 27.21
Output  | 0.15498    | 0.15514    | 0.16178    |   0.2 |  0.90
Modify  | 0.52648    | 7.7469     | 17.038     | 264.1 | 44.75
Other   |            | 0.1306     |            |       |  0.75

Nlocal:    70.6833 ave 226 max 0 min
Histogram: 48 3 39 0 0 0 0 0 12 18
Nghost:    610.358 ave 1006 max 0 min
Histogram: 12 4 0 4 2 33 19 12 19 15
Neighs:    0 ave 0 max 0 min
Histogram: 120 0 0 0 0 0 0 0 0 0
FullNghs:  7099.15 ave 28515 max 0 min
Histogram: 64 26 0 0 0 0 0 5 16 9

Total # of neighbors = 851898
Ave neighs/atom = 100.436
Neighbor list builds = 581
Dangerous builds = 0
write_data 	    ${DIR}/data.${NAME}_eq
write_data 	    run_22/data.${NAME}_eq
write_data 	    run_22/data.ibeam_cooling_22_eq

undump              1
unfix               4



################################################
#######         Run Simulation         #########
################################################

reset_timestep      0
timestep	    10.0
log                 ${DIR}/log.run_${NAME}
log                 run_22/log.run_${NAME}
log                 run_22/log.run_ibeam_cooling_22
