

### IMPORT ATOMS ###
read_data ../Box_Setup/data.Ibeam_240K
  orthogonal box = (0 0 0) to (157.504 42.9242 26.8557)
  8 by 4 by 2 MPI processor grid
  reading atoms ...
  9253 atoms
  reading velocities ...
  9253 velocities
group water type 2
1381 atoms in group water
group graphite type 1
7872 atoms in group graphite


# Define potential
#
pair_style          sw
pair_coeff * * MLC_e.sw C mW

# Add velocity/set timestep
#

fix		1 graphite setforce 0.0 0.0 0.0
velocity 	graphite set 0.0 0.0 0.0
velocity            water create ${START_TEMP} ${SEED} rot yes dist gaussian
velocity            water create 240 ${SEED} rot yes dist gaussian
velocity            water create 240 15627 rot yes dist gaussian
timestep            5.0

# Define output
#
compute 1 water msd
compute 2 water temp


thermo	            100
thermo_style custom step c_2 press vol etotal ke pe c_1[4] density

# Neighbor lists
#
neigh_modify        delay 0 every 1 check yes


# Set fixes
#
fix                 2 water momentum 10 linear 1 1 1 rescale
fix                 3 all nve
fix                 4 water temp/csvr ${START_TEMP} ${START_TEMP} 500.0 928347
fix                 4 water temp/csvr 240 ${START_TEMP} 500.0 928347
fix                 4 water temp/csvr 240 240 500.0 928347

# Run 0.05 ns equilibration
#
dump                1 all custom 100 ${DIR}/eq.${NAME}.dump id type x y z vx vy vz
dump                1 all custom 100 run_7/eq.${NAME}.dump id type x y z vx vy vz
dump                1 all custom 100 run_7/eq.ibeam_cooling_7.dump id type x y z vx vy vz
run                 10000
Neighbor list info ...
  update every 1 steps, delay 0 steps, check yes
  max neighbors/atom: 2000, page size: 100000
  master list distance cutoff = 6.67472
  ghost atom cutoff = 6.67472
  binsize = 3.33736, bins = 48 13 9
  1 neighbor lists, perpetual/occasional/extra = 1 0 0
  (1) pair sw, perpetual
      attributes: full, newton on
      pair build: full/bin/atomonly
      stencil: full/bin/3d
      bin: standard
Per MPI rank memory allocation (min/avg/max) = 3.396 | 4.325 | 4.765 Mbytes
Step c_2 Press Volume TotEng KinEng PotEng c_1[4] Density 
       0          240   -344.39513    181563.75    -13284.54    987.24429   -14271.784            0    1.0922001 
     100    240.97015   -274.71912    181563.75   -13244.406    991.23503   -14235.641   0.84846596    1.0922001 
     200    238.84335   -186.72127    181563.75   -13276.881    982.48637   -14259.367    1.3190791    1.0922001 
     300    243.52223   -280.69546    181563.75   -13268.411     1001.733   -14270.144    1.9142164    1.0922001 
     400    233.69917   -424.21545    181563.75   -13278.315     961.3257   -14239.641    2.4138747    1.0922001 
     500    243.79092    -265.4655    181563.75   -13275.559    1002.8383   -14278.398    2.6910766    1.0922001 
     600    229.18437    -301.7532    181563.75   -13351.188      942.754   -14293.942    3.1346995    1.0922001 
     700    236.45762   -357.88756    181563.75   -13337.437    972.67266    -14310.11    3.5109443    1.0922001 
     800    233.09787   -556.15867    181563.75   -13378.049    958.85224   -14336.901    3.7700469    1.0922001 
     900    237.71264   -323.56974    181563.75   -13340.867    977.83518   -14318.703    4.0245716    1.0922001 
    1000    235.98311   -408.98678    181563.75     -13292.5    970.72075   -14263.221    4.5348067    1.0922001 
    1100    232.62887   -416.95189    181563.75   -13302.917    956.92299    -14259.84    4.9191436    1.0922001 
    1200    229.39714   -328.78208    181563.75   -13340.702    943.62925   -14284.332    5.1106214    1.0922001 
    1300    240.52732   -299.42652    181563.75   -13304.106    989.41344    -14293.52    5.4408465    1.0922001 
    1400    244.98213   -336.37068    181563.75   -13245.742    1007.7384    -14253.48    6.0405023    1.0922001 
    1500    243.70769   -365.29761    181563.75   -13256.554    1002.4959    -14259.05    6.4518459    1.0922001 
    1600     240.7029   -170.56184    181563.75   -13237.951    990.13569   -14228.086    7.1183981    1.0922001 
    1700    240.93504   -443.38808    181563.75   -13257.426    991.09059   -14248.516    7.4829803    1.0922001 
    1800    240.49879   -591.38645    181563.75   -13266.691    989.29607   -14255.987    8.0467632    1.0922001 
    1900    244.91248   -340.16348    181563.75   -13206.188    1007.4519    -14213.64    8.4448032    1.0922001 
    2000    260.80367   -302.50906    181563.75   -13187.266    1072.8206   -14260.087    8.9397187    1.0922001 
    2100    248.13527   -350.52923    181563.75   -13197.185    1020.7088   -14217.894     9.434062    1.0922001 
    2200    252.53911   -471.40601    181563.75   -13199.071    1038.8241   -14237.895    9.9695629    1.0922001 
    2300    247.82171   -420.25052    181563.75   -13249.221     1019.419    -14268.64    10.387105    1.0922001 
    2400    249.00822   -492.71109    181563.75   -13250.478    1024.2998   -14274.778     10.76417    1.0922001 
    2500    245.26747    -511.1718    181563.75   -13249.085    1008.9121   -14257.997     11.42341    1.0922001 
    2600    241.00915   -449.78656    181563.75   -13279.293    991.39546   -14270.688    11.915134    1.0922001 
    2700    240.61931   -402.88846    181563.75   -13265.181    989.79183   -14254.973    12.329566    1.0922001 
    2800    240.45759    -354.3329    181563.75   -13274.462     989.1266   -14263.588    12.454304    1.0922001 
    2900    235.64416   -344.78827    181563.75   -13328.586    969.32646   -14297.912    13.075494    1.0922001 
    3000    236.56321   -306.59263    181563.75   -13347.349    973.10701   -14320.456    13.604936    1.0922001 
    3100    236.71242   -272.24205    181563.75   -13342.163    973.72078   -14315.884    14.470149    1.0922001 
    3200     239.8909   -397.55323    181563.75   -13351.564    986.79551    -14338.36    14.854914    1.0922001 
    3300    238.34997   -375.24813    181563.75   -13306.603    980.45688   -14287.059    15.198547    1.0922001 
    3400    240.09802   -254.00222    181563.75   -13320.037    987.64748   -14307.684    15.691824    1.0922001 
    3500    232.28358   -223.65799    181563.75   -13318.063    955.50265   -14273.566    15.876472    1.0922001 
    3600    239.73135   -106.61423    181563.75   -13297.842    986.13921   -14283.981    16.515734    1.0922001 
    3700    234.10462   -388.09621    181563.75   -13331.076    962.99356    -14294.07    17.133968    1.0922001 
    3800    241.96668   -432.19508    181563.75   -13318.013    995.33426   -14313.347      17.3827    1.0922001 
    3900    236.93666    -255.5928    181563.75   -13328.895    974.64319   -14303.538    17.948275    1.0922001 
    4000    242.86404   -202.10084    181563.75   -13338.207    999.02558   -14337.233    17.727022    1.0922001 
    4100    245.20889   -292.69093    181563.75   -13302.536    1008.6711   -14311.207    18.050236    1.0922001 
    4200    239.44572   -391.36891    181563.75   -13280.571    984.96425   -14265.535    18.716916    1.0922001 
    4300     244.4346   -486.55211    181563.75   -13213.007    1005.4861   -14218.493    19.101194    1.0922001 
    4400    252.89026   -462.68525    181563.75   -13214.163    1040.2686   -14254.432     19.40689    1.0922001 
    4500    238.84737   -457.38605    181563.75   -13262.872    982.50294   -14245.375    19.905978    1.0922001 
    4600    237.32187   -266.72049    181563.75   -13273.371    976.22775   -14249.598    20.339438    1.0922001 
    4700    239.31516   -351.81001    181563.75   -13277.954    984.42718   -14262.381    20.725633    1.0922001 
    4800     251.0185    -421.5374    181563.75   -13263.998    1032.5691   -14296.567    21.387657    1.0922001 
    4900    242.73465   -505.11596    181563.75   -13294.352    998.49331   -14292.845     22.10696    1.0922001 
    5000    235.28573    -404.9392    181563.75   -13303.645    967.85203   -14271.497    22.843195    1.0922001 
    5100    239.89203   -283.28326    181563.75   -13308.799    986.80015   -14295.599    23.178001    1.0922001 
    5200    237.11572   -420.27826    181563.75   -13311.121    975.37975     -14286.5    23.284312    1.0922001 
    5300    231.37047   -439.52563    181563.75   -13348.846    951.74655   -14300.593    23.681779    1.0922001 
    5400    234.61235   -331.83427    181563.75   -13303.592    965.08208   -14268.675    23.952149    1.0922001 
    5500    231.08166   -159.64661    181563.75   -13336.753    950.55854   -14287.311     24.31433    1.0922001 
    5600    234.48405   -425.76709    181563.75    -13346.83    964.55431   -14311.384    24.682035    1.0922001 
    5700    236.78061   -357.77406    181563.75   -13311.538    974.00126    -14285.54    25.143787    1.0922001 
    5800    249.45422   -295.26879    181563.75    -13244.14    1026.1344   -14270.275    25.628237    1.0922001 
    5900    239.59323   -269.03427    181563.75   -13274.988    985.57101   -14260.559    25.742008    1.0922001 
    6000     242.3987   -487.33518    181563.75   -13345.533    997.11138   -14342.644    26.035768    1.0922001 
    6100     236.1418   -428.68381    181563.75   -13332.642    971.37352   -14304.016     26.12965    1.0922001 
    6200    235.56826   -456.83513    181563.75   -13305.733    969.01425   -14274.748    26.385455    1.0922001 
    6300    238.66012   -414.17019    181563.75   -13276.306    981.73266   -14258.039    26.462772    1.0922001 
    6400    237.44361   -390.95883    181563.75       -13271    976.72854   -14247.729    26.840819    1.0922001 
    6500    244.43946   -296.14901    181563.75   -13283.832    1005.5061   -14289.338    27.504945    1.0922001 
    6600    235.37036   -380.66433    181563.75   -13325.919    968.20017   -14294.119     27.69577    1.0922001 
    6700    234.12481   -419.32109    181563.75   -13336.447    963.07659   -14299.523    28.046105    1.0922001 
    6800    241.71075   -322.50206    181563.75   -13313.106    994.28148   -14307.388    27.918573    1.0922001 
    6900    240.35728   -360.77665    181563.75   -13347.689    988.71398   -14336.403    27.463533    1.0922001 
    7000     238.0294   -268.31327    181563.75   -13346.692     979.1382   -14325.831    27.835178    1.0922001 
    7100    237.89164   -395.43955    181563.75   -13278.643    978.57151   -14257.214    28.147183    1.0922001 
    7200    241.05029   -441.04717    181563.75   -13298.252    991.56467   -14289.817    27.978467    1.0922001 
    7300    243.81106   -316.82821    181563.75   -13364.095    1002.9211   -14367.016    27.878959    1.0922001 
    7400    238.49727   -454.11947    181563.75   -13374.536     981.0628   -14355.599    28.286682    1.0922001 
    7500    226.01127   -379.13071    181563.75   -13380.178    929.70141    -14309.88    28.456834    1.0922001 
    7600    227.67538    -326.0974    181563.75    -13388.83    936.54676   -14325.377    28.450236    1.0922001 
    7700    231.89495   -525.09379    181563.75   -13368.499    953.90404   -14322.403    28.878984    1.0922001 
    7800     232.3588   -301.24279    181563.75   -13326.298    955.81209    -14282.11    29.719446    1.0922001 
    7900    242.59209   -381.63755    181563.75   -13331.324     997.9069   -14329.231     30.13404    1.0922001 
    8000    240.33437   -426.45207    181563.75    -13327.39    988.61972   -14316.009    30.826591    1.0922001 
    8100    235.67023   -520.63766    181563.75   -13348.205    969.43371   -14317.638    30.497757    1.0922001 
    8200     229.4792   -508.39144    181563.75   -13370.654     943.9668    -14314.62    30.651317    1.0922001 
    8300    227.58347   -486.20677    181563.75   -13378.478    936.16869   -14314.647    31.145774    1.0922001 
    8400    237.23862   -374.27284    181563.75   -13374.266    975.88531   -14350.151    31.819528    1.0922001 
    8500      245.484   -407.51804    181563.75   -13355.749    1009.8028   -14365.551    31.675622    1.0922001 
    8600    240.22004   -340.52264    181563.75   -13315.548    988.14944   -14303.697     32.12105    1.0922001 
    8700    231.04321   -508.48479    181563.75   -13375.587    950.40037   -14325.988    32.343872    1.0922001 
    8800    246.31346   -307.02436    181563.75   -13326.155    1013.2148    -14339.37    32.584837    1.0922001 
    8900    244.79872   -353.86237    181563.75   -13355.762    1006.9839   -14362.746    32.675276    1.0922001 
    9000     245.3373    -331.5097    181563.75   -13332.595    1009.1994   -14341.795    33.326705    1.0922001 
    9100    240.74631   -301.80313    181563.75   -13333.746    990.31424    -14324.06    34.217782    1.0922001 
    9200    243.24981   -447.11008    181563.75   -13373.198    1000.6124    -14373.81    34.876771    1.0922001 
    9300    231.06699   -402.71666    181563.75   -13382.568    950.49818   -14333.066    35.871234    1.0922001 
    9400     230.6509   -386.44019    181563.75   -13396.709    948.78658   -14345.495    36.758025    1.0922001 
    9500    241.20943   -320.97072    181563.75   -13376.753     992.2193   -14368.973    37.264036    1.0922001 
    9600    229.59399   -344.78495    181563.75   -13436.324      944.439   -14380.763    37.571731    1.0922001 
    9700    231.11027    -244.9199    181563.75   -13377.742    950.67622   -14328.418    38.195391    1.0922001 
    9800    235.06385   -268.80485    181563.75   -13402.029    966.93935   -14368.968    39.208649    1.0922001 
    9900     234.4038   -364.36306    181563.75   -13349.413    964.22422   -14313.638    40.397221    1.0922001 
   10000    245.11728   -380.96735    181563.75   -13305.669    1008.2943   -14313.963    40.734753    1.0922001 
Loop time of 11.642 on 64 procs for 10000 steps with 9253 atoms

Performance: 371.071 ns/day, 0.065 hours/ns, 858.960 timesteps/s
100.0% CPU use with 64 MPI tasks x no OpenMP threads

MPI task timing breakdown:
Section |  min time  |  avg time  |  max time  |%varavg| %total
---------------------------------------------------------------
Pair    | 0.0010198  | 3.3551     | 9.4902     | 171.8 | 28.82
Neigh   | 0.008002   | 0.24542    | 0.5973     |  39.8 |  2.11
Comm    | 0.32304    | 2.9782     | 8.3801     | 150.1 | 25.58
Output  | 0.1577     | 0.15802    | 0.15874    |   0.0 |  1.36
Modify  | 0.25375    | 4.7871     | 11.03      | 206.8 | 41.12
Other   |            | 0.1181     |            |       |  1.01

Nlocal:    144.578 ave 296 max 0 min
Histogram: 18 6 0 8 0 0 0 3 21 8
Nghost:    962.344 ave 1343 max 657 min
Histogram: 13 3 1 14 9 0 13 3 0 8
Neighs:    0 ave 0 max 0 min
Histogram: 64 0 0 0 0 0 0 0 0 0
FullNghs:  15614.1 ave 35867 max 0 min
Histogram: 24 8 0 0 0 0 0 15 13 4

Total # of neighbors = 999302
Ave neighs/atom = 107.998
Neighbor list builds = 558
Dangerous builds = 0
write_data 	    ${DIR}/data.${NAME}_eq
write_data 	    run_7/data.${NAME}_eq
write_data 	    run_7/data.ibeam_cooling_7_eq

undump              1
unfix               4



################################################
#######         Run Simulation         #########
################################################

reset_timestep      0
timestep	    10.0
log                 ${DIR}/log.run_${NAME}
log                 run_7/log.run_${NAME}
log                 run_7/log.run_ibeam_cooling_7
