
# Set production fixes - Nose/Hoover
#
fix                 4 water temp/csvr ${START_TEMP} ${END_TEMP} 500.0 928347
fix                 4 water temp/csvr 235 ${END_TEMP} 500.0 928347
fix                 4 water temp/csvr 235 225 500.0 928347


## divide "droplet" into core and surface
#region		core_reg cylinder z 135 135 44.6 20 INF units box
#region		surface_reg cylinder z 135 135 44.6 20 INF units box side out
#group		core dynamic all region core_reg
#group		surface dynamic all region surface_reg

## compute pressure core
#compute        peratom_core core stress/atom NULL
#compute        p_core core reduce sum c_peratom_core[1] c_peratom_core[2] c_peratom_core[3]
#variable       press_core equal -(c_p_core[1]+c_p_core[2]+c_p_core[3])/(3*1249982.5)


## compute pressure surface
#compute        peratom_surf surface stress/atom NULL
#compute        p_surf surface reduce sum c_peratom_surf[1] c_peratom_surf[2] #c_peratom_surf[3]
#variable       press_surf equal -(c_p_surf[1]+c_p_surf[2]+c_p_surf[3])/(3*42395)

## compute total pressure of drop
compute        peratom water stress/atom NULL
compute        p water reduce sum c_peratom[1] c_peratom[2] c_peratom[3]
variable       press equal -(c_p[1]+c_p[2]+c_p[3])/(3*50402)


# compute order parameter
compute        3 all orientorder/atom nnn NULL cutoff 3.5

# compute center of mass of bridge
compute 	4 water com

# Run simulation
thermo_style        custom step c_2 press vol etotal ke pe v_press c_1[4] c_4[*]
thermo              200
dump		     1 water custom 400 ${DIR}/prod.${NAME}.dump id type x y z vx vy vz c_3[*] c_peratom[*]
dump		     1 water custom 400 run_11/prod.${NAME}.dump id type x y z vx vy vz c_3[*] c_peratom[*]
dump		     1 water custom 400 run_11/prod.ibeam_cooling_11.dump id type x y z vx vy vz c_3[*] c_peratom[*]
run                 ${STEPS}
run                 4000000
Neighbor list info ...
  update every 1 steps, delay 0 steps, check yes
  max neighbors/atom: 2000, page size: 100000
  master list distance cutoff = 6.67472
  ghost atom cutoff = 6.67472
  binsize = 3.33736, bins = 24 25 11
  2 neighbor lists, perpetual/occasional/extra = 1 1 0
  (1) pair sw, perpetual
      attributes: full, newton on
      pair build: full/bin/atomonly
      stencil: full/bin/3d
      bin: standard
  (2) compute orientorder/atom, occasional, copy from (1)
      attributes: full, newton on
      pair build: copy
      stencil: none
      bin: none
Per MPI rank memory allocation (min/avg/max) = 6.15 | 6.791 | 7.276 Mbytes
Step c_2 Press Volume TotEng KinEng PotEng v_press c_1[4] c_4[1] c_4[2] c_4[3] 
       0    233.87315   -407.87626    216156.16   -20164.831    1481.4043   -21646.235   -1095.6212    32.966284    39.426916    39.227142    23.679545 
     200    232.69764   -495.14859    216156.16   -20224.829    1473.9584   -21698.788   -1436.6413     33.76235    39.426755    39.227674    23.672325 
     400    236.02212    -432.3364    216156.16   -20224.181    1495.0164   -21719.197   -1168.8277    34.550026    39.428079    39.228045    23.685309 
     600    233.34842   -333.88351    216156.16   -20090.009    1478.0805   -21568.089   -795.22511    35.347005    39.428628    39.227424    23.659596 
     800    237.19058   -613.73576    216156.16   -20105.822    1502.4176    -21608.24   -1975.6121    35.723859     39.42907    39.226948    23.639688 
    1000    230.60142   -461.01372    216156.16   -20220.075    1460.6804   -21680.755   -1310.3837    37.201829     39.42947    39.226165    23.629382 
    1200    241.85095   -115.93384    216156.16   -20177.213    1531.9375   -21709.151    188.36227    38.580865    39.426431    39.223406    23.614386 
    1400    238.73951   -419.48753    216156.16   -20151.149    1512.2289   -21663.378   -1060.9994    39.550693    39.425973    39.221771    23.587957 
    1600    234.49422   -411.16688    216156.16   -20155.892    1485.3383    -21641.23   -1035.8459    40.543203    39.423282    39.221522    23.600343 
    1800    239.09977   -520.58738    216156.16   -20151.564    1514.5109   -21666.075   -1575.9751    41.498293    39.422967    39.221494    23.594646 
    2000    240.82125   -560.57513    216156.16   -20097.377    1525.4151   -21622.792   -1716.6247    42.980567    39.421323    39.219859    23.585504 
    2200    233.41406   -509.22585    216156.16   -20135.911    1478.4963   -21614.408   -1486.8816    44.586367    39.419824    39.219883     23.56661 
    2400    233.09153     -407.298    216156.16   -20128.919    1476.4534   -21605.372   -1067.6703    46.255642    39.419268    39.221152    23.602972 
    2600    230.98068   -338.44469    216156.16   -20175.652    1463.0828   -21638.735   -727.58629    46.309988    39.420837    39.223519    23.614154 
    2800    242.11329   -350.05776    216156.16   -20072.312    1533.5992   -21605.911    -838.1781    47.135093     39.41727    39.222512    23.622497 
    3000     237.8115   -392.02207    216156.16   -20093.756    1506.3507   -21600.107   -1008.6602    48.526022     39.41829      39.2235    23.617825 
    3200    232.53569   -333.60624    216156.16   -20158.892    1472.9325   -21631.825    -730.3584    50.155602    39.418248    39.224114    23.614076 
    3400    237.41155   -368.97918    216156.16   -20160.778    1503.8173   -21664.596   -876.19299    51.687391    39.418649    39.223463     23.60034 
    3600    230.99838   -289.96087    216156.16   -20133.209    1463.1949   -21596.404   -555.20574    51.757004    39.417938    39.224652    23.591887 
    3800    239.16643   -302.32512    216156.16   -20125.527    1514.9331    -21640.46   -576.07233    53.876905    39.417525    39.221625    23.600869 
    4000    229.61907   -363.87903    216156.16   -20184.421     1454.458   -21638.879   -880.06036    55.275631    39.419385    39.221809     23.58233 
    4200    234.58157    -445.3929    216156.16   -20156.808    1485.8916     -21642.7   -1211.5709    57.070316      39.4234    39.220815    23.594493 
    4400    236.00728    -351.6608    216156.16   -20176.666    1494.9223   -21671.588   -858.03083    57.393793    39.424285    39.224196    23.583035 
    4600    235.45163    -408.4393    216156.16   -20233.855    1491.4028   -21725.258   -1084.6955    57.822444    39.422397    39.224492    23.592944 
    4800     238.2541   -58.414781    216156.16   -20105.448    1509.1542   -21614.602    410.71301    59.130063    39.422286    39.221942     23.60871 
    5000    235.60061   -400.61597    216156.16   -20137.654    1492.3464   -21630.001   -1059.3604    60.428012    39.420777    39.220461    23.627724 
    5200    236.74104   -419.42181    216156.16   -20218.244    1499.5702   -21717.814   -1107.7583    61.560674    39.419684    39.221501    23.623601 
    5400     234.6406   -565.82531    216156.16   -20259.745    1486.2655    -21746.01   -1682.2389    62.852014    39.419814    39.221528    23.626044 
    5600    240.76877   -420.74784    216156.16   -20239.159    1525.0827   -21764.242   -1110.6569    64.059302    39.420801    39.221658    23.622079 
    5800    233.96584   -448.05559    216156.16   -20162.853    1481.9914   -21644.845   -1254.5031    65.559547     39.42408    39.219227    23.641558 
    6000     233.9979   -426.35511    216156.16   -20182.265    1482.1945    -21664.46   -1141.3125    65.678863    39.422908    39.216908    23.629097 
    6200    233.81295     -463.354    216156.16   -20169.933     1481.023   -21650.956   -1301.1607    66.555639    39.423206    39.214236    23.615613 
    6400    234.63674   -366.04923    216156.16   -20135.657    1486.2411   -21621.898   -930.64966     67.51117     39.42264    39.213428    23.601509 
    6600    227.97209   -432.27846    216156.16   -20144.702    1444.0257   -21588.728   -1166.4152     68.68698    39.422281    39.212986    23.599965 
    6800    238.83242   -325.97695    216156.16   -20157.906    1512.8174   -21670.724   -723.59389    70.048745     39.41971      39.2134     23.61287 
    7000    239.22211   -328.81198    216156.16   -20137.163    1515.2858   -21652.448   -733.98899    70.722097    39.420039    39.214745    23.591107 
    7200     223.0976   -515.96882    216156.16   -20258.171    1413.1496    -21671.32   -1489.3141    71.568762    39.423298    39.212188    23.589778 
    7400    231.63632   -471.50878    216156.16   -20216.526    1467.2357   -21683.762   -1301.3771    72.509375    39.423673    39.212443    23.593639 
    7600    237.73547   -290.72452    216156.16    -20128.83    1505.8691   -21634.699   -581.86049    73.062944    39.423906    39.211578    23.580694 
    7800     232.5429   -348.75837    216156.16   -20265.411    1472.9782    -21738.39   -777.67919    74.669669    39.422475    39.212084    23.586524 
    8000    239.40659    -450.5823    216156.16   -20150.228    1516.4544   -21666.682   -1254.9439     75.12584     39.42114    39.211514    23.577956 
    8200    233.95183   -265.35696    216156.16   -20161.439    1481.9026   -21643.341   -466.36819    75.473592    39.420176     39.21371    23.565056 
    8400    243.44999   -363.95573    216156.16   -20136.138    1542.0661   -21678.204   -913.84489    76.214148    39.419868    39.216823    23.573356 
    8600    239.03733   -465.38229    216156.16   -20179.926    1514.1153   -21694.042    -1280.115     76.78288    39.420636    39.216793    23.566106 
    8800    229.83644   -302.78334    216156.16   -20202.207    1455.8349   -21658.042   -618.80654    77.018928    39.421361    39.214698    23.571889 
    9000    241.06915   -423.99958    216156.16   -20166.611    1526.9854   -21693.596   -1140.6734    77.608874    39.421763    39.212955    23.592883 
    9200    238.23669   -219.25544    216156.16   -20107.941    1509.0439   -21616.985   -260.72467    78.315327    39.421877    39.211892    23.578906 
    9400    235.20115   -246.90675    216156.16   -20156.686    1489.8161   -21646.502   -380.32135    78.358383    39.421254    39.212347    23.569445 
    9600    231.16703   -477.45257    216156.16     -20222.8    1464.2631   -21687.063   -1364.4956    79.567536    39.421166    39.213254    23.553577 
    9800    237.16828   -431.41451    216156.16   -20149.774    1502.2764   -21652.051   -1173.0947    80.411482    39.423043    39.212639    23.556567 
   10000    235.53372   -385.95625    216156.16   -20143.492    1491.9227   -21635.414   -933.95645     81.22809    39.421651    39.211426    23.546811 
   10200    239.82397    -210.1685    216156.16   -20064.044    1519.0981   -21583.142    -232.0896    81.869325     39.42181    39.213669    23.564429 
   10400    244.28369   -460.90895    216156.16   -20079.348     1547.347   -21626.695   -1231.7352    83.155581     39.42092    39.213114    23.561073 
   10600    234.79297   -448.12666    216156.16    -20155.95    1487.2307   -21643.181   -1203.7002    84.300599     39.42244    39.213427    23.553534 
   10800    230.13197   -472.71713    216156.16   -20212.532    1457.7068   -21670.239   -1381.1707    86.240232    39.426695    39.216028    23.563252 
   11000    237.70776   -346.08527    216156.16   -20217.185    1505.6936   -21722.878   -829.07055    87.315085    39.429725    39.220098    23.579942 
   11200    234.19374    -396.7365    216156.16    -20192.33     1483.435   -21675.765   -983.01929    88.730041     39.43247    39.220811    23.562005 
   11400      231.303   -290.18469    216156.16   -20162.449    1465.1244   -21627.573   -617.09313    90.078705    39.434043    39.220255      23.5455 
   11600     237.8859   -438.73012    216156.16   -20106.188     1506.822    -21613.01    -1198.852    91.527669    39.434419    39.221189    23.550193 
   11800    234.53377   -339.42865    216156.16   -20117.419    1485.5888   -21603.008   -773.01816    92.545858    39.435098    39.221906    23.575845 
   12000    242.25358   -428.66462    216156.16   -20084.972    1534.4878   -21619.459   -1143.0949    94.434134    39.435954    39.222369    23.559505 
   12200     237.6257   -283.50822    216156.16   -20103.704    1505.1738   -21608.878    -492.5196    95.765012    39.435534    39.222046    23.560048 
   12400    236.84402   -346.99842    216156.16   -20150.723    1500.2224   -21650.945   -802.59941    96.519948    39.435821    39.221239    23.545689 
   12600     240.5867   -372.49074    216156.16   -20092.359    1523.9294   -21616.288    -927.4256    97.307353    39.436478    39.221952    23.538538 
   12800    229.74705   -459.67452    216156.16   -20128.741    1455.2686    -21584.01    -1333.553    97.616932    39.438213    39.221956    23.555963 
   13000    233.99868   -499.05757    216156.16   -20152.655    1482.1994   -21634.855   -1460.9755    98.844594    39.439675    39.221372    23.550409 
   13200    238.42567   -437.75552    216156.16    -20170.28     1510.241   -21680.521   -1170.7339    100.02199     39.43871    39.221911    23.542337 
   13400      229.721   -371.12178    216156.16   -20248.683    1455.1036   -21703.787     -890.306    100.67774    39.438805    39.223316    23.548402 
   13600    238.43676   -207.84821    216156.16    -20257.14    1510.3112   -21767.451    -182.7073    101.16037    39.440002    39.222967    23.549939 
   13800    231.47862   -471.17916    216156.16   -20205.653    1466.2368    -21671.89   -1315.3298    101.37603    39.440457    39.221801    23.565002 
   14000    238.09518   -436.78525    216156.16   -20147.958    1508.1476   -21656.105   -1196.4285    102.53023    39.440278    39.219419    23.585319 
   14200    241.56405   -482.50743    216156.16   -20206.254    1530.1201   -21736.374   -1381.7018    103.68542    39.439347    39.220308    23.578806 
   14400    233.78779   -194.90233    216156.16   -20261.053    1480.8636   -21741.917   -159.55822    103.61437    39.440192    39.220812    23.597997 
   14600    232.79319   -413.80847    216156.16   -20203.845    1474.5636   -21678.408   -1137.6226    104.77133    39.439884    39.218242     23.60881 
   14800    238.32895   -406.80573    216156.16   -20129.468    1509.6283   -21639.097   -1091.9714    106.10324    39.440208    39.216346    23.625462 
   15000    228.02538   -417.70312    216156.16   -20159.961    1444.3632   -21604.324   -1116.2733    107.20977     39.44325    39.215934    23.625975 
   15200    236.86515   -335.33378    216156.16   -20125.796    1500.3563   -21626.152   -748.56149    108.80706    39.445255    39.217289    23.641775 
   15400     232.8152    -424.2113    216156.16   -20212.623     1474.703   -21687.326   -1155.7639    109.42769     39.44361    39.216014    23.652509 
   15600    241.97488   -309.55033    216156.16   -20071.083    1532.7224   -21603.806   -639.57569    110.19284    39.441063    39.215408    23.659666 
   15800    242.56925   -380.85349    216156.16   -20131.115    1536.4873   -21667.603    -963.9135    111.10044    39.442094     39.21769     23.67338 
   16000     237.6024   -499.61649    216156.16   -20167.187    1505.0262   -21672.213   -1549.8396    113.15494     39.44296    39.220848    23.690461 
   16200    237.41727   -310.23228    216156.16   -20130.015    1503.8536   -21633.868   -689.03179    113.84332    39.442867    39.222041    23.681234 
   16400    237.34295   -432.17247    216156.16   -20171.602    1503.3828   -21674.985   -1197.2273    113.97561    39.443339    39.224301    23.685708 
   16600    237.19809   -479.67628    216156.16   -20044.189    1502.4652   -21546.654   -1382.4075    114.70368    39.444255    39.228793    23.691991 
   16800    234.22839    -419.0031    216156.16   -20121.738    1483.6545   -21605.393   -1140.0954    116.13753    39.444307    39.229784    23.689077 
   17000    231.14438   -336.21545    216156.16   -20172.069    1464.1196   -21636.189   -773.09549    117.50153    39.444808    39.229816    23.686558 
   17200    233.39589   -522.38009    216156.16   -20194.665    1478.3812   -21673.046   -1551.4742    118.92071    39.444869    39.230432    23.683019 
   17400    230.57818   -326.01001    216156.16   -20267.437    1460.5332    -21727.97   -672.17222    120.78612    39.445058    39.230266     23.67661 
   17600    234.61877   -391.20973    216156.16   -20192.428    1486.1272   -21678.555   -1006.0251    122.44272    39.446524    39.230102    23.657044 
   17800    236.04948   -343.60092    216156.16   -20223.706    1495.1896   -21718.896   -799.26497    122.51291     39.44672    39.229693     23.65118 
   18000    239.39693   -215.63962    216156.16    -20176.82    1516.3932   -21693.213   -221.17506    124.03891     39.44647    39.231439    23.647841 
   18200    230.72685   -346.98296    216156.16   -20169.451     1461.475   -21630.926   -805.10813    125.16455    39.446491    39.229133    23.651269 
   18400    238.32523   -262.67624    216156.16   -20125.183    1509.6048   -21634.788   -437.25262    125.50342    39.445815    39.226941    23.655802 
   18600    241.48768   -324.72279    216156.16   -20090.806    1529.6364   -21620.442   -702.57837      127.038     39.44604    39.227486    23.658881 
   18800    236.19954    -374.0766    216156.16   -20154.791    1496.1402   -21650.932   -885.57572      127.679    39.447848    39.227247    23.640983 
   19000    235.68996   -518.96782    216156.16   -20130.722    1492.9124   -21623.634   -1521.3394    129.19542    39.448196    39.229287    23.667449 
   19200    235.95071   -475.61531    216156.16   -20163.528     1494.564   -21658.092   -1338.7572    129.63091    39.447401    39.229165    23.666073 
   19400    242.41078   -372.00287    216156.16   -20115.934    1535.4835   -21651.417   -920.83413    130.91701     39.44669    39.227248    23.660323 
   19600     241.8801   -278.85469    216156.16   -20146.037    1532.1221   -21678.159   -499.81593    132.62035    39.447806    39.225954    23.668503 
   19800    239.92598   -310.44038    216156.16    -20134.83    1519.7442   -21654.575   -650.92926    135.05727    39.446986    39.225059    23.677954 
   20000    229.40591   -414.21578    216156.16    -20172.14    1453.1078   -21625.248   -1087.5583    135.29099    39.447753    39.224896    23.651772 
   20200    225.28823   -297.94999    216156.16   -20181.718    1427.0255   -21608.743   -638.31872    138.04173    39.447171    39.223377    23.661753 
   20400    242.39299   -274.69347    216156.16   -20080.685    1535.3709   -21616.056   -528.13204    137.75062    39.447879     39.21979    23.655232 
   20600    230.57126   -373.02258    216156.16    -20168.14    1460.4894    -21628.63   -979.23615    138.31997     39.44894    39.220812    23.657513 
   20800    234.10681   -323.37702    216156.16   -20094.656    1482.8844   -21577.541   -710.83264    138.70686    39.448824    39.221324    23.651553 
   21000     236.6761    -387.2335    216156.16   -20125.741    1499.1588     -21624.9   -1006.6701    139.60161    39.446585    39.221534    23.647377 
   21200    237.90159   -412.95661    216156.16     -20090.6    1506.9213   -21597.522    -1096.591    140.50962    39.445468    39.222091    23.632565 
   21400    236.94313    -351.1883    216156.16   -20108.249    1500.8502     -21609.1   -851.31509    142.90915    39.445793    39.222833    23.644505 
   21600    240.17627   -475.71919    216156.16   -20044.427    1521.3296   -21565.757   -1338.4331    143.84565    39.445949    39.222956    23.658896 
   21800    238.14512   -282.00371    216156.16   -20149.048    1508.4639   -21657.512   -497.82096    143.43183    39.448564     39.22409    23.665132 
   22000    235.18126    -379.3696    216156.16   -20240.495    1489.6902   -21730.185   -972.50449    145.78104    39.447054    39.223023    23.662102 
   22200    221.09705    -322.3183    216156.16   -20287.772    1400.4777    -21688.25   -685.69849    147.90839    39.447278    39.220265    23.652461 
   22400    236.21638   -389.10545    216156.16   -20133.147    1496.2468   -21629.394   -1027.6699     148.9343    39.446376    39.218899    23.632424 
   22600    234.29029   -462.31699    216156.16   -20132.207    1484.0466   -21616.254   -1322.9625    149.97874    39.449216    39.217526    23.639926 
   22800    239.63274   -444.16245    216156.16   -20134.599    1517.8868   -21652.486   -1230.2115    150.39114    39.451005    39.218565    23.659199 
   23000    228.20657   -411.01657    216156.16   -20208.576     1445.511   -21654.087   -1084.5147    151.63622    39.451019    39.218673    23.657678 
   23200    232.81837   -561.67637    216156.16   -20152.365    1474.7231   -21627.088   -1769.6949     151.6162     39.45035    39.215801    23.659468 
   23400    233.67309   -377.33927    216156.16    -20171.92    1480.1371   -21652.058   -940.31524    153.17354    39.448774     39.21647    23.664253 
   23600    231.53889   -450.10982    216156.16   -20107.138    1466.6186   -21573.757   -1252.3113    155.15167    39.445658    39.217636    23.635005 
   23800    237.57048   -343.48495    216156.16   -20129.898     1504.824   -21634.722   -850.65245    155.48751    39.445127     39.21863    23.644817 
   24000    238.50233   -307.06636    216156.16   -20165.583    1510.7265   -21676.309   -645.92988    157.14995    39.445384    39.218697    23.647778 
   24200     235.6585   -432.55526    216156.16   -20163.993    1492.7131   -21656.706   -1201.4868    157.94611    39.446306    39.219441     23.64491 
   24400    237.51671   -308.50341    216156.16   -20219.383    1504.4834   -21723.866    -686.3963    158.92361    39.446872    39.220011    23.638887 
   24600    225.93807   -386.13537    216156.16    -20242.38    1431.1418   -21673.521   -994.00811     160.0024    39.444908    39.219297    23.649364 
   24800    233.69349    -432.5023    216156.16    -20245.55    1480.2663   -21725.817   -1149.8407    160.29669    39.444253    39.220853     23.62906 
   25000    231.06424   -384.16053    216156.16   -20241.534    1463.6121   -21705.146   -980.81991    161.60004     39.44231    39.225388    23.612693 
   25200    232.95532   -285.68497    216156.16   -20369.129    1475.5906    -21844.72   -567.73805      162.806    39.439885    39.227029    23.613282 
   25400    231.74667   -390.81663    216156.16   -20254.614    1467.9347   -21722.549   -1017.6633    163.91144    39.438276    39.227555    23.598243 
   25600     244.4235   -385.76113    216156.16   -20094.516    1548.2326   -21642.749   -964.06358     164.1304    39.439046    39.227935    23.617153 
   25800     237.0546   -207.76253    216156.16   -20131.368    1501.5563   -21632.925   -217.97387    163.91594    39.439484    39.226631    23.601561 
   26000    234.12242   -410.46752    216156.16   -20179.374    1482.9833   -21662.357   -1139.1579    163.49433     39.43912    39.224478     23.60498 
   26200    239.68794   -172.17841    216156.16   -20204.577    1518.2365   -21722.813   -44.848805    164.22241    39.439819    39.226198    23.610089 
   26400    234.71314    -234.3942    216156.16   -20228.233     1486.725   -21714.958   -335.48609    165.24928    39.440589    39.225006    23.601894 
   26600    235.46916    -303.1701    216156.16   -20150.064    1491.5138   -21641.578   -657.64437    165.19777    39.442835    39.223367    23.588187 
   26800    239.18388   -375.57078    216156.16   -20203.877    1515.0436    -21718.92   -1008.8004    167.99341    39.442016    39.222465    23.572373 
   27000    231.63497    -291.7842    216156.16   -20169.165    1467.2272   -21636.393   -567.04554    168.84912    39.443171    39.222529    23.583885 
   27200    239.16104   -285.66407    216156.16   -20180.727    1514.8989   -21695.626   -547.56844    169.93168    39.442752    39.221304    23.587611 
   27400    234.89396   -328.89908    216156.16   -20154.659    1487.8704    -21642.53   -747.83294     170.6215    39.444185    39.222634    23.603919 
   27600    227.30375   -172.57445    216156.16   -20266.499    1439.7923   -21706.291   -76.859429    171.13663    39.446222    39.223225    23.599108 
   27800    239.23189   -414.93713    216156.16   -20154.295    1515.3478   -21669.643   -1122.8089    172.34196    39.447281    39.222495    23.607409 
   28000     234.0079   -342.23349    216156.16   -20281.086    1482.2578   -21763.344   -777.85578    172.11518    39.447197    39.225789    23.574249 
   28200    238.11308   -248.80421    216156.16   -20240.112    1508.2609   -21748.373   -454.26317    171.50136    39.447258    39.223941    23.585505 
   28400    234.87511   -425.78312    216156.16   -20229.123     1487.751   -21716.874   -1120.8915    172.84523    39.448193    39.220958      23.5664 
   28600    230.11275   -209.66512    216156.16   -20241.657    1457.5851   -21699.242   -211.25428    173.91613    39.445328    39.224498    23.542235 
   28800    235.88319   -299.58009    216156.16   -20204.344    1494.1363    -21698.48   -629.63812    175.38537    39.444614    39.228618     23.51178 
   29000    235.16256   -115.25025    216156.16   -20160.494    1489.5717   -21650.065    207.67628    176.59864    39.441057    39.228476    23.508502 
   29200    240.76259   -495.71772    216156.16   -20134.942    1525.0435   -21659.986    -1444.562    177.29869    39.443259    39.230223    23.498103 
   29400    237.47892   -393.00384    216156.16   -20160.964     1504.244   -21665.208   -988.68361    179.31024    39.447378    39.231227    23.515381 
   29600    235.28208   -368.92276    216156.16    -20155.82    1490.3288   -21646.149   -929.69579    181.05225      39.4484    39.231383    23.525117 
   29800    234.08477   -392.75489    216156.16   -20243.211    1482.7447   -21725.956   -980.56254    181.64438    39.447062    39.231767    23.522279 
   30000    238.01896    -395.1956    216156.16   -20241.206    1507.6648   -21748.871   -1008.1508     181.0749    39.445427    39.231156    23.528305 
   30200    238.66588   -314.42464    216156.16   -20192.014    1511.7625   -21703.777   -658.32621    181.74238    39.446017    39.229586    23.514111 
   30400    235.75554   -355.30591    216156.16   -20162.871    1493.3278   -21656.198   -850.17642    183.55547    39.448983    39.227188     23.51136 
   30600    232.67012   -419.41197    216156.16   -20198.869     1473.784   -21672.653   -1122.0754    185.58067    39.451031    39.226733    23.526196 
   30800    236.15572   -419.86272    216156.16   -20135.364    1495.8626   -21631.226   -1103.4282    186.86848     39.45164     39.22723    23.511495 
   31000     233.8999   -412.52909    216156.16   -20130.001    1481.5738   -21611.575   -1040.8557    189.49594    39.450759    39.227006    23.525396 
   31200    239.89323   -376.36184    216156.16   -20108.372    1519.5368   -21627.909   -982.21442    188.72416    39.446396    39.227831     23.52276 
   31400    233.35611   -395.60194    216156.16   -20110.023    1478.1293   -21588.152   -1058.3679    188.51575    39.448043    39.231699     23.51273 
   31600    230.46449   -401.21331    216156.16   -20173.111    1459.8131   -21632.924   -1002.3235    189.64546    39.444498    39.234144    23.502967 
   31800    234.70481   -489.84871    216156.16   -20111.778    1486.6722    -21598.45   -1425.9134    189.93987    39.442276    39.237582    23.497935 
   32000    230.46552   -351.53837    216156.16    -20199.55    1459.8196    -21659.37   -841.92772    191.59485    39.441463    39.239706    23.509197 
   32200    232.24975   -290.53719    216156.16    -20196.73    1471.1213   -21667.851   -567.09603    192.05138    39.437795     39.23943    23.483035 
   32400     226.4078   -398.48687    216156.16    -20214.59    1434.1171   -21648.707   -1002.9999    192.59475    39.437485    39.240699    23.490006 
   32600    246.41001   -513.68063    216156.16   -20128.528    1560.8155   -21689.343   -1530.1793    193.92157    39.438141    39.240537     23.48122 
   32800    232.71337   -464.09964    216156.16   -20153.485     1474.058   -21627.543   -1321.1583    195.75118    39.438159    39.240216    23.501874 
   33000    233.87415   -185.22265    216156.16   -20162.491    1481.4106   -21643.901   -142.94192    196.50303    39.438899    39.239592     23.49829 
   33200    237.12979   -337.16369    216156.16   -20180.735    1502.0325   -21682.767    -775.0403    197.28384    39.442677    39.238228    23.493395 
   33400     235.0841   -292.40902    216156.16   -20203.925    1489.0748       -21693   -604.80385    197.99403    39.443565    39.238938    23.491962 
   33600    231.22478   -416.83383    216156.16   -20236.019    1464.6289   -21700.648   -1121.5929    198.59621    39.444904    39.237967    23.480505 
   33800    235.52578   -365.95759    216156.16   -20093.137    1491.8724   -21585.009   -932.24151     198.9171    39.446775    39.236928    23.468429 
   34000    234.35025   -322.23359    216156.16   -20193.581    1484.4263   -21678.007   -729.21429    199.41662    39.447592    39.239328    23.446939 
   34200    234.79858   -669.27416    216156.16   -20177.906    1487.2662   -21665.172   -2194.3295     199.7118    39.447174     39.24014    23.438936 
   34400    231.31381   -472.03287    216156.16   -20226.253    1465.1929   -21691.446   -1291.5894    200.09281    39.444673    39.242395    23.443437 
   34600    241.90679   -387.58482    216156.16   -20130.661    1532.2912   -21662.952   -968.69551    202.39183     39.44126     39.24454    23.449115 
   34800    233.87438    -277.6504    216156.16   -20226.594    1481.4121   -21708.006   -476.14875     201.5769    39.439193    39.245647    23.444529 
   35000    233.67893   -460.06515    216156.16   -20259.184    1480.1741   -21739.358    -1282.059    201.68073    39.439874    39.245495    23.433006 
   35200    235.60049   -280.10456    216156.16   -20189.735    1492.3457   -21682.081   -523.95958    202.12278     39.44002    39.244939    23.421774 
   35400    237.38615   -322.99132    216156.16   -20189.103    1503.6564    -21692.76   -641.11768    203.35126    39.438674    39.243221    23.426639 
   35600    233.24066   -357.08881    216156.16   -20196.563     1477.398   -21673.961   -855.50091    204.13035    39.440566    39.242005    23.418719 
   35800    237.25912   -394.91356    216156.16   -20118.208    1502.8518    -21621.06   -1017.3335    205.11105    39.440235    39.244032    23.427719 
   36000    228.41054   -552.72555    216156.16   -20245.047    1446.8029    -21691.85   -1668.0679    206.92875    39.442063    39.243249    23.430301 
   36200    230.50809   -291.79933    216156.16   -20259.515    1460.0893   -21719.604   -584.26289      206.684    39.440293     39.24309    23.423623 
   36400    230.62096    -475.0136    216156.16   -20173.282    1460.8042   -21634.086   -1388.5628    206.28354    39.439885    39.242396    23.432684 
   36600    234.57828   -232.62302    216156.16   -20142.816    1485.8707   -21628.687   -346.73325    207.12832    39.440619    39.242183    23.438784 
   36800    227.73849    -208.8332    216156.16   -20209.152     1442.546   -21651.698   -245.84455     207.5664    39.440688    39.240963    23.414586 
   37000    236.61079   -365.31218    216156.16   -20206.276    1498.7451   -21705.022   -860.67456     208.7446    39.440499    39.239253    23.413139 
   37200    233.24528   -420.15491    216156.16    -20222.37    1477.4273   -21699.797   -1157.6801    209.86145    39.440676    39.239022    23.428943 
   37400    232.67276   -389.15953    216156.16   -20241.474    1473.8008   -21715.275   -992.51386    210.10665        39.44    39.239306    23.412221 
   37600    227.86994   -341.60624    216156.16    -20247.73    1443.3786   -21691.108   -806.71259    211.83498    39.440435    39.239686    23.385208 
   37800    229.84665   -296.70623    216156.16   -20267.133    1455.8996   -21723.033   -600.39561    213.05996    39.438788    39.240943    23.387523 
   38000    235.82651   -405.41436    216156.16   -20169.264    1493.7773   -21663.041   -1060.6807    214.97967    39.437177    39.240377    23.366368 
   38200    233.76994   -194.00754    216156.16   -20168.632    1480.7506   -21649.383   -246.05982    214.96826    39.436163    39.242079    23.357434 
   38400    235.59614    -377.7861    216156.16   -20111.369    1492.3181   -21603.687     -943.033    216.58775    39.437713    39.241236    23.361623 
   38600    227.90762   -287.13867    216156.16   -20173.507    1443.6173   -21617.124   -523.05417     216.7861    39.439739    39.241946    23.367641 
   38800    233.09247   -476.42882    216156.16   -20168.432    1476.4593   -21644.891   -1360.6358    216.05337    39.436894    39.240804     23.36037 
   39000    234.98539    -208.3503    216156.16   -20108.203    1488.4495   -21596.652   -187.16931    217.46312    39.436407    39.240571    23.367886 
   39200    237.89347   -272.98696    216156.16   -20181.721    1506.8699   -21688.591   -512.01464     218.5422    39.435426    39.237839    23.379528 
   39400    236.29422   -312.02423    216156.16   -20164.305    1496.7399   -21661.045   -690.53613    220.04792    39.435425    39.236617    23.369897 
   39600    241.29386   -270.76413    216156.16   -20121.556    1528.4087   -21649.965    -474.4748    221.69702    39.436488    39.235455    23.364217 
   39800    231.53497   -423.83829    216156.16       -20203    1466.5937   -21669.594   -1108.8027    224.23306      39.4361    39.238361    23.347721 
   40000    235.39271   -396.85519    216156.16   -20144.416    1491.0295   -21635.446    -1017.502    225.24674    39.439195    39.238611     23.34238 
   40200    238.31625   -321.59797    216156.16   -20142.437    1509.5479   -21651.985    -696.2729    226.34958    39.440208    39.241847    23.352074 
   40400    229.50199   -462.65983    216156.16   -20176.978    1453.7164   -21630.694   -1300.1175    225.50528    39.441753    39.244125    23.348921 
   40600    238.92223   -441.65517    216156.16   -20117.641    1513.3863   -21631.028   -1194.0477    226.58363    39.439933    39.245719    23.350984 
   40800    230.90627    -246.9649    216156.16   -20207.958    1462.6115    -21670.57   -369.87262    228.79618    39.437961    39.243746    23.356145 
   41000    232.05116   -482.92171    216156.16   -20184.347    1469.8634   -21654.211   -1370.6986    229.03285    39.437364    39.244295    23.346788 
   41200    238.83355   -238.08697    216156.16   -20123.009    1512.8246   -21635.834   -404.84283    228.89526      39.4384    39.242521    23.353125 
   41400    235.21527   -500.89222    216156.16   -20151.044    1489.9056   -21640.949   -1415.4854    228.80957    39.438713     39.24251    23.322432 
   41600    235.52101   -338.36519    216156.16   -20155.968    1491.8422    -21647.81     -732.081    229.44828    39.439837    39.244284    23.282762 
   41800    235.05315   -370.10376    216156.16   -20157.363    1488.8787   -21646.242   -895.66999     228.6308    39.438411    39.243349    23.282626 
   42000    232.35969   -270.73633    216156.16   -20188.196    1471.8177   -21660.014    -443.7356    229.76074     39.43849    39.242534    23.289176 
   42200    232.02023   -239.03877    216156.16   -20214.722    1469.6675    -21684.39   -333.99791    230.57422    39.436933    39.242371    23.287079 
   42400    234.89835   -361.52231    216156.16   -20171.837    1487.8982   -21659.735   -894.73332    231.48196    39.435949     39.24268    23.306619 
   42600    232.58618   -335.94967    216156.16   -20203.033    1473.2523   -21676.285   -834.47684    231.94553     39.43632    39.241057    23.325835 
   42800    236.25294   -500.34183    216156.16   -20141.964    1496.4784   -21638.443   -1448.1392    233.42579    39.436537    39.240156    23.341414 
   43000     237.4666   -228.56058    216156.16   -20183.089     1504.166   -21687.255   -355.34821    234.12094    39.437732    39.243308    23.323365 
   43200    233.42831   -367.90283    216156.16   -20218.564    1478.5866    -21697.15   -916.92193    236.07524    39.437271    39.244541    23.317882 
   43400    229.76706   -503.33608    216156.16   -20214.787    1455.3954   -21670.182   -1502.6828    236.65147    39.438808    39.246394    23.323283 
   43600    235.29754   -257.53909    216156.16   -20230.745    1490.4267   -21721.171   -408.28146     235.7929     39.43911    39.246656    23.314272 
   43800     231.5971   -232.42407    216156.16   -20253.028    1466.9873   -21720.015   -269.24586    236.32594    39.439261     39.24842    23.310266 
   44000    232.17216   -336.17853    216156.16   -20270.076    1470.6298   -21740.706   -815.02928    237.82666    39.439187    39.249422    23.295637 
   44200    232.51356   -360.69948    216156.16   -20197.368    1472.7923    -21670.16    -853.4625     237.9919    39.436986    39.247588    23.299437 
   44400    235.61194   -389.26923    216156.16   -20200.994    1492.4182   -21693.412   -978.77179    240.03061    39.435319    39.247196    23.289952 
   44600    234.37599   -409.76651    216156.16   -20247.464    1484.5894   -21732.053   -1077.2606    240.58827    39.433306    39.248514    23.281477 
   44800     233.4902   -355.69419    216156.16   -20268.869    1478.9786   -21747.847   -833.55162     241.2815    39.430948    39.249156    23.251112 
   45000    229.45335   -464.29171    216156.16   -20221.008    1453.4083   -21674.416   -1296.8722    242.45537    39.430136    39.248271    23.238706 
   45200    232.53058   -482.23052    216156.16   -20170.688    1472.9002   -21643.588   -1374.4958    242.71169    39.429219    39.247056    23.237834 
   45400    228.13461   -356.24772    216156.16   -20220.121    1445.0551   -21665.176   -833.38569    243.09161    39.428637    39.247425    23.225445 
   45600    231.33524   -525.37621    216156.16   -20127.484    1465.3286   -21592.812   -1611.7121    244.19353    39.427044    39.247767    23.226875 
   45800    238.01693    -481.7409    216156.16   -20215.345    1507.6519   -21722.997   -1377.8655    244.58915    39.425708    39.247066     23.21478 
   46000    234.52441   -387.81709    216156.16   -20150.044    1485.5295   -21635.573   -1003.3263     245.3848    39.426919    39.246675    23.228071 
   46200    244.12096   -262.67126    216156.16    -20116.78    1546.3162   -21663.097   -497.96495    246.45261    39.427295    39.246303    23.237604 
   46400    233.23412   -282.61737    216156.16   -20165.394    1477.3565   -21642.751   -551.37805    247.24933    39.424807    39.247262    23.238825 
   46600    235.75846   -398.74965    216156.16   -20182.049    1493.3463   -21675.396   -1046.0794    248.16797     39.42454    39.247894    23.253196 
   46800    236.06312   -294.81824    216156.16   -20141.666    1495.2761   -21636.942   -563.21606    250.67963    39.423634    39.247564     23.24744 
   47000    234.17503   -498.91894    216156.16   -20131.296    1483.3165   -21614.613   -1461.2354    252.14205     39.42241    39.245718    23.259088 
   47200     234.8425   -462.86733    216156.16   -20254.424    1487.5444   -21741.968   -1276.6856    252.61029    39.422064    39.244572    23.264583 
   47400    236.29434   -254.29215    216156.16   -20208.015    1496.7407   -21704.756   -401.50138    254.17483    39.423543    39.243937    23.276869 
   47600    237.48483   -418.89558    216156.16   -20220.347    1504.2815   -21724.628   -1103.7079    253.63616    39.421028    39.242622    23.282641 
   47800     234.2531   -279.10702    216156.16   -20217.476     1483.811   -21701.287   -509.41171    255.16575    39.422217    39.243185     23.28129 
   48000    233.80695   -481.18314    216156.16   -20200.841     1480.985   -21681.826   -1413.3291    256.17814    39.422129      39.2419    23.272075 
   48200    234.69381   -361.42969    216156.16   -20184.311    1486.6026   -21670.913   -898.67978    255.96936    39.421763    39.242045     23.27392 
   48400      239.837   -206.44473    216156.16   -20192.231    1519.1806   -21711.412   -152.80643    257.43032     39.42248    39.242279     23.27768 
   48600    231.67161   -455.99975    216156.16   -20296.232    1467.4592   -21763.692   -1276.8301    257.09029    39.422157    39.241709     23.28292 
   48800    232.14435   -381.53928    216156.16   -20256.962    1470.4537   -21727.416   -969.72262    257.65897    39.420848    39.241343     23.30077 
   49000    230.93085   -255.40696    216156.16   -20244.235    1462.7671   -21707.002   -419.68147    258.25734      39.4222    39.241974    23.305782 
   49200    236.43209   -288.63023    216156.16   -20160.182    1497.6132   -21657.795   -555.53691     259.3555    39.423435    39.243543    23.299465 
   49400    234.36371   -395.79598    216156.16   -20224.898    1484.5116   -21709.409   -1028.6848    259.83184    39.423476    39.245104    23.276709 
   49600    231.37696   -337.84875    216156.16   -20227.558    1465.5929   -21693.151   -780.68039    259.50475    39.424074    39.246686    23.295962 
   49800    233.70254   -328.67932    216156.16   -20198.773    1480.3236   -21679.097   -743.89372    260.16554    39.423827    39.247543    23.323169 
   50000     232.8252   -437.10869    216156.16   -20207.902    1474.7664   -21682.668   -1185.0792    262.90229    39.424424    39.245296    23.324892 
   50200    238.88615   -369.37242    216156.16   -20107.137    1513.1577   -21620.295   -906.21711    263.19863    39.424901    39.246515    23.323135 
   50400    238.60585   -359.40341    216156.16   -20155.183    1511.3822   -21666.565   -926.89253    264.23865    39.425694    39.247853     23.33843 
   50600    242.09595   -328.33882    216156.16   -20078.841    1533.4894   -21612.331   -706.97338    265.09001    39.426773    39.252489    23.356772 
   50800    229.73111    -457.0387    216156.16   -20239.137    1455.1677   -21694.305   -1340.0817     265.3048    39.426962     39.25556     23.37466 
   51000    230.21087   -404.05788    216156.16   -20194.542    1458.2066   -21652.748   -1109.5753    266.74255     39.42644    39.256625    23.387524 
   51200    235.16302   -298.35819    216156.16   -20191.424    1489.5746   -21680.999   -639.66873    267.80779    39.426159    39.255758    23.406345 
   51400    236.28248   -333.68745    216156.16   -20173.781    1496.6655   -21670.447   -795.00381    270.25789    39.424744    39.257021    23.415361 
   51600    237.35946   -237.17285    216156.16   -20201.461    1503.4874   -21704.949   -369.72446    270.02977    39.424311    39.259467    23.428219 
   51800    229.30514   -362.06301    216156.16   -20164.298    1452.4695   -21616.767   -876.92417    271.97859    39.424121    39.258544    23.443655 
   52000    233.43775   -304.81226    216156.16   -20240.671    1478.6464   -21719.317    -690.5073    271.54452     39.42178    39.255555    23.452999 
   52200    227.14159   -334.22693    216156.16   -20289.414    1438.7651   -21728.179   -755.48919     272.3998    39.421225    39.252081    23.451696 
   52400    225.07727   -489.63298    216156.16    -20318.47    1425.6892   -21744.159   -1424.9787    273.15984    39.420214     39.25155    23.456692 
   52600    237.04229   -417.47455    216156.16   -20199.217    1501.4784   -21700.695   -1098.3117    273.16456    39.419484    39.250873    23.467864 
   52800    240.08098   -38.068228    216156.16   -20153.061    1520.7261   -21673.787    494.33487    272.64318    39.418143    39.250123    23.469253 
   53000    235.99693   -517.36254    216156.16   -20163.286    1494.8568   -21658.143   -1542.4543     273.8088    39.416154    39.250462    23.478084 
   53200    232.31747   -184.52983    216156.16   -20229.749    1471.5503   -21701.299   -148.09584    273.69304    39.415261    39.250031    23.474118 
   53400    232.55821   -399.06759    216156.16   -20228.206    1473.0752   -21701.281   -1076.0889     274.4094    39.417419    39.248937    23.491475 
   53600    229.11713   -291.49646    216156.16   -20293.336    1451.2786   -21744.615   -558.79022    276.81255     39.41634    39.249414    23.486276 
   53800    235.62931   -323.61468    216156.16    -20245.76    1492.5282   -21738.288   -763.89713     277.3278    39.414895    39.247836     23.48981 
   54000     224.9936   -430.26225    216156.16     -20216.6    1425.1593   -21641.759   -1150.1016    278.40366    39.414249    39.244969    23.492859 
   54200    244.67832   -257.22089    216156.16   -20174.624    1549.8466    -21724.47   -423.72485    279.70652    39.415148      39.2454    23.488343 
   54400    236.11317    -342.2554    216156.16   -20117.361    1495.5931   -21612.954    -805.3123     280.1005    39.417044    39.246157    23.476432 
   54600    240.25707   -401.01868    216156.16   -20131.559    1521.8414     -21653.4   -983.04578    279.80209    39.418324    39.246502     23.46986 
   54800    240.82848   -463.47105    216156.16   -20142.504    1525.4609   -21667.965   -1335.4997    281.22585    39.416863    39.247494    23.479943 
   55000     244.0957   -291.96097    216156.16   -20142.029    1546.1562   -21688.185   -583.97519    281.82734    39.419156    39.249666    23.476258 
   55200    230.18847   -477.97541    216156.16    -20287.51    1458.0647   -21745.575   -1391.8311    282.81701    39.418513    39.250142    23.472835 
   55400     234.0178   -333.14495    216156.16   -20233.286    1482.3205   -21715.607   -835.65986    282.30348    39.417389    39.249901    23.494821 
   55600    234.62148   -363.29063    216156.16   -20209.159    1486.1444   -21695.304   -915.25424    281.54722    39.414995    39.251145    23.494989 
   55800    237.51522   -371.67341    216156.16   -20092.562     1504.474   -21597.036   -954.14647     281.7636    39.414816    39.249938    23.499261 
   56000    240.87024   -386.86247    216156.16   -20160.877    1525.7254   -21686.603   -990.16417    282.61159    39.413221    39.248624    23.524269 
   56200     230.0427   -344.96837    216156.16   -20164.162    1457.1414   -21621.304   -880.60037    282.97205    39.414358    39.246053     23.55161 
   56400    229.63098   -429.57324    216156.16   -20263.145    1454.5334   -21717.678   -1208.4582    284.59315    39.414461    39.245338    23.546485 
   56600    223.65188   -387.46291    216156.16   -20327.305    1416.6605   -21743.965   -972.99979     285.9541    39.416348    39.245401    23.538749 
   56800     231.1805   -384.00167    216156.16   -20248.347    1464.3485   -21712.695   -1031.5722    285.95745    39.417582    39.246469    23.556702 
   57000     228.8953    -278.8592    216156.16   -20303.195    1449.8735   -21753.069   -511.93699      287.153    39.417106    39.247972    23.565287 
   57200     233.8025      -583.94    216156.16   -20221.652    1480.9568   -21702.609   -1815.5002    288.98241    39.418292    39.248013    23.580019 
   57400    232.99744   -616.83512    216156.16   -20234.973    1475.8574   -21710.831   -1964.7252    290.56994    39.416731    39.247253    23.562697 
   57600    234.56993   -548.76503    216156.16    -20256.03    1485.8178   -21741.847   -1658.3723    290.77254    39.417478      39.2477    23.582611 
   57800    239.58454   -450.72086    216156.16   -20210.305    1517.5815   -21727.886    -1233.153    290.68689     39.41823    39.246303    23.601913 
   58000    237.50043   -396.07074    216156.16   -20215.799    1504.3803   -21720.179   -998.97244     293.0358     39.41542    39.249253    23.620935 
   58200     234.6666   -301.40694    216156.16   -20185.217    1486.4302   -21671.647   -618.12823    293.37103     39.41459     39.25044    23.611155 
   58400    230.88122   -309.18327    216156.16   -20187.475    1462.4528   -21649.928   -656.38998    296.32565    39.413271    39.251455    23.582409 
   58600     228.5009   -367.99523    216156.16   -20244.571    1447.3752   -21691.947   -884.46598    297.07492    39.412485    39.253249    23.558816 
   58800    233.33712   -366.25873    216156.16   -20243.287     1478.009   -21721.296   -912.38546    297.41276    39.414561    39.254015    23.548088 
   59000     234.6618   -349.24596    216156.16   -20187.157    1486.3998   -21673.557   -821.39295    297.35779    39.415729    39.253539    23.536473 
   59200    234.69569   -422.59471    216156.16   -20196.101    1486.6145   -21682.716   -1159.6908    298.17237    39.413538    39.254311    23.519732 
   59400    234.55268    -455.9285    216156.16   -20192.998    1485.7086   -21678.706   -1251.1941    298.30136    39.411146     39.25249    23.521241 
   59600    229.75219    -416.9524    216156.16   -20231.787    1455.3012   -21687.088    -1126.263    297.98418    39.411469    39.252921    23.532168 
   59800    232.81412    -637.4586    216156.16    -20181.15    1474.6962   -21655.846   -2070.2527    300.64009    39.410774    39.253503    23.536022 
   60000     234.9515   -342.62589    216156.16   -20137.098    1488.2348   -21625.333   -785.80842    300.61959    39.411546    39.252111    23.538632 
   60200    239.87778   -274.01684    216156.16   -20165.329    1519.4389   -21684.768   -495.73759    302.69783    39.413245    39.251529    23.536471 
   60400    231.03312   -414.34431    216156.16   -20146.275    1463.4149    -21609.69   -1111.2875    304.06873    39.412366    39.249247    23.546861 
   60600    235.75335   -368.39608    216156.16    -20125.05    1493.3139   -21618.364   -862.77419    303.98162    39.409469    39.251376    23.532761 
   60800    235.95215   -311.13994    216156.16   -20068.016    1494.5731   -21562.589   -690.67037    303.94512    39.411841    39.252347     23.55497 
   61000    234.07289    -403.9416    216156.16   -20150.474    1482.6695   -21633.144   -1064.7285    305.91169    39.412171    39.250585    23.560454 
   61200     239.5312   -277.18537    216156.16   -20075.679    1517.2436   -21592.923   -504.70307    304.93915    39.412749    39.247639    23.543494 
   61400    238.86163   -231.90591    216156.16    -20142.39    1513.0024   -21655.392   -357.25126    306.27188    39.412275    39.247875    23.524123 
   61600    236.09006   -453.52655    216156.16   -20149.413    1495.4467    -21644.86   -1264.9436    307.21895    39.411972    39.247756    23.557002 
   61800    233.52349   -394.32496    216156.16   -20235.554    1479.1895   -21714.744   -1069.1872    308.55312     39.41147    39.248357    23.571912 
   62000    237.36458   -407.44993    216156.16   -20171.742    1503.5198   -21675.262   -1092.5293     310.0034    39.411795    39.245579    23.580131 
   62200    238.52714   -417.27476    216156.16   -20178.107    1510.8837    -21688.99   -1145.3526    311.90637    39.412896     39.24461    23.597564 
   62400     231.8487   -275.45265    216156.16    -20156.23     1468.581   -21624.811   -548.20198    311.75227    39.409518    39.244855    23.583124 
   62600    232.55647   -579.38382    216156.16   -20175.129    1473.0642   -21648.193   -1770.3601    312.67535    39.410986    39.245137    23.585919 
   62800    228.07302   -383.64622    216156.16   -20259.314     1444.665   -21703.979   -980.64248    313.57154    39.411885    39.245054    23.596837 
   63000     231.6008   -443.20323    216156.16    -20174.05    1467.0107    -21641.06   -1271.1486    313.33738    39.410989    39.245621    23.616772 
   63200     231.0856   -416.23946    216156.16   -20174.339    1463.7473   -21638.086   -1097.4306    313.77892    39.410604    39.245656    23.603834 
   63400    226.43562   -353.81349    216156.16   -20251.277    1434.2933    -21685.57   -858.95494    314.86443    39.410612    39.243149    23.603919 
   63600    230.22803   -306.06113    216156.16   -20255.462    1458.3153   -21713.778   -653.88255    316.81078    39.411784    39.243908    23.589795 
   63800    226.75341   -399.20355    216156.16   -20266.507    1436.3063   -21702.813   -1034.1795     317.7252    39.410228    39.244238    23.591307 
   64000    229.32317   -260.55174    216156.16   -20163.549    1452.5837   -21616.133   -488.73676    319.45346    39.409952    39.244626     23.57716 
   64200    238.47209   -287.26975    216156.16   -20152.908     1510.535   -21663.443    -609.0374    320.35653    39.409688    39.243587    23.566048 
   64400    233.59222   -276.38374    216156.16   -20204.754    1479.6248   -21684.379   -539.65206    318.88465     39.41193    39.243536    23.615788 
   64600    228.41519   -240.14607    216156.16   -20238.664    1446.8324   -21685.496   -391.03276    319.31786    39.408748    39.242118    23.640659 
   64800    239.27699   -313.46501    216156.16   -20256.796    1515.6335   -21772.429   -693.06242    319.55476    39.408593    39.239573    23.642279 
   65000    236.81407   -287.11803    216156.16    -20180.68    1500.0327   -21680.713   -558.61615    320.49649    39.408601    39.241714    23.655047 
   65200    227.29647   -332.37044    216156.16   -20204.777    1439.7462   -21644.523   -751.88331    320.57435    39.410166    39.243083    23.683626 
   65400    232.96033   -427.05298    216156.16   -20193.626    1475.6223   -21669.248   -1188.4513    323.15589    39.410112    39.242879    23.693948 
   65600    236.89352    -398.3896    216156.16   -20131.071     1500.536   -21631.607   -1058.1549    323.35961    39.407821    39.244691    23.685092 
   65800    232.10879   -406.80122    216156.16   -20154.285    1470.2285   -21624.513   -1118.3712    323.05921    39.406724    39.248305    23.685419 
   66000    227.85169   -369.30238    216156.16   -20147.748    1443.2631   -21591.011   -951.43797    325.97121    39.405788    39.247893    23.679538 
   66200    230.24102   -385.79348    216156.16   -20176.957    1458.3976   -21635.354    -1022.618    328.14901    39.404549    39.246037     23.68505 
   66400    235.55295   -251.96209    216156.16   -20162.375    1492.0445   -21654.419   -445.68848     330.9978    39.405306    39.244491    23.691366 
   66600    232.65885   -448.13383    216156.16   -20215.056    1473.7127   -21688.768   -1319.4615    331.99383    39.404534    39.244458    23.708007 
   66800    229.12799   -563.44926    216156.16   -20219.958    1451.3474   -21671.305   -1784.8973    335.69305    39.402529    39.246175    23.705834 
   67000    229.77383   -396.73885    216156.16   -20278.182    1455.4383   -21733.621   -1038.7342    336.56639    39.401219    39.246515    23.688089 
   67200    240.74546   -248.65857    216156.16   -20225.702     1524.935   -21750.637   -431.18204    337.42001    39.401587    39.247557    23.683341 
   67400    232.42362   -278.86033    216156.16   -20216.745    1472.2226   -21688.968   -575.69328    338.07266    39.402131    39.249205    23.692017 
   67600    241.08502   -392.65101    216156.16   -20132.946    1527.0859   -21660.032    -1073.694    338.84052    39.401204    39.251628    23.705093 
   67800    234.60556   -497.33365    216156.16   -20152.415    1486.0435   -21638.458   -1443.1689    338.79446    39.401007    39.252256    23.694022 
   68000    234.48707   -383.97744    216156.16   -20218.492     1485.293   -21703.785   -997.59065    338.47685    39.399817    39.252684    23.681141 
   68200    232.29786   -494.75765    216156.16   -20198.039    1471.4261   -21669.465   -1439.4019    338.48484    39.399149     39.25102    23.660654 
   68400    237.47936   -357.44057    216156.16   -20122.083    1504.2469    -21626.33   -845.59414     338.1802    39.400228      39.2487    23.677107 
   68600    235.01122   -304.68241    216156.16   -20145.312    1488.6131   -21633.925   -650.51127     338.9653     39.39879    39.246787    23.697329 
   68800    230.91539   -292.03026    216156.16   -20126.048    1462.6692   -21588.717   -575.79452    340.86884    39.395982    39.246539    23.708877 
   69000    234.76899   -346.69042    216156.16   -20132.791    1487.0787   -21619.869   -805.40276    342.05654    39.394967    39.246425    23.725457 
   69200    232.02167   -287.70293    216156.16   -20186.047    1469.6766   -21655.724   -575.64361    343.96862    39.393386    39.247255    23.745003 
   69400    229.19273    -345.5919    216156.16   -20220.092    1451.7575    -21671.85   -803.81188    345.88569    39.394599    39.247656    23.764409 
   69600    241.59677   -346.04483    216156.16   -20041.876    1530.3274   -21572.204   -816.66865    349.26683    39.395257    39.244911    23.771801 
   69800    233.73972   -301.05559    216156.16   -20178.085    1480.5591   -21658.644   -672.16371    348.60141    39.396436    39.246225    23.788529 
   70000    234.65892   -264.74374    216156.16    -20183.96    1486.3815   -21670.342   -477.51709    348.85196    39.397908    39.247082    23.794597 
   70200    230.67779   -385.17651    216156.16   -20182.373    1461.1642   -21643.537   -1001.9394    350.81064    39.398506    39.249811     23.84217 
   70400    240.30631   -390.85728    216156.16   -20134.876    1522.1533   -21657.029   -997.79152    352.55352    39.400699    39.249754    23.843278 
   70600    229.66317   -385.81958    216156.16   -20183.738    1454.7374   -21638.475   -985.86444    352.29977     39.40111    39.250349    23.828955 
   70800    228.56237   -292.33874    216156.16   -20176.286    1447.7646   -21624.051   -634.79917    352.38218    39.399455    39.250716    23.830192 
   71000    226.35431   -396.12283    216156.16   -20187.364    1433.7783   -21621.143   -1016.9077    356.75003    39.398747    39.252649    23.841936 
   71200    232.87601    -339.9253    216156.16   -20191.265    1475.0882   -21666.353   -752.34662    359.55342    39.398849    39.252833    23.851036 
   71400    233.06647   -142.59267    216156.16   -20230.282    1476.2946   -21706.576    18.680853    358.93953     39.39823    39.250862     23.85082 
   71600    233.82235   -412.20131    216156.16   -20176.754    1481.0825   -21657.837   -1067.0021    361.59459    39.397031    39.251244    23.862308 
   71800    228.61945   -343.11409    216156.16    -20269.69    1448.1262   -21717.817   -785.30426    362.48703    39.398073    39.249951     23.83425 
   72000     231.0823   -636.56623    216156.16   -20266.084    1463.7264   -21729.811   -1986.0081     363.0402    39.397694    39.250216    23.815221 
   72200    233.39392    -347.1223    216156.16   -20092.613    1478.3687   -21570.982   -796.21495    365.74315    39.394431    39.249812    23.823418 
   72400     234.4028   -351.40471    216156.16   -20171.758    1484.7592   -21656.518   -820.73039    366.42367    39.390693     39.25104    23.819868 
   72600    234.68867   -231.01356    216156.16   -20188.396      1486.57   -21674.966   -298.28037    368.00947    39.391158    39.252974    23.815943 
   72800    233.16076   -407.50189    216156.16   -20222.564    1476.8919   -21699.456   -1112.4087    368.49577    39.393661    39.251717    23.808248 
   73000    233.75274   -596.05176    216156.16   -20240.971    1480.6416   -21721.613   -1875.0371    367.78264    39.394625    39.249738    23.804656 
   73200    244.63776   -413.56274    216156.16   -20157.534    1549.5897   -21707.124    -1119.998    367.52151    39.390488    39.249939    23.794166 
   73400     237.3319   -459.55964    216156.16     -20168.5    1503.3128   -21671.813    -1316.835    368.33985    39.386881     39.24755    23.795432 
   73600    236.74843   -438.36366    216156.16   -20173.456     1499.617   -21673.073   -1211.4376    369.98859    39.388782    39.245448    23.789884 
   73800     230.2476   -366.23787    216156.16    -20248.03    1458.4392   -21706.469   -919.76729    370.20194    39.389218    39.245767    23.797582 
   74000    228.48904   -392.91073    216156.16   -20232.013    1447.3002   -21679.313   -1039.7469    373.12046    39.387877    39.244049    23.795649 
   74200    235.62796   -523.48599    216156.16   -20143.128    1492.5197   -21635.648    -1584.846    372.25149    39.390282    39.243947    23.813192 
   74400    233.62405   -330.52731    216156.16   -20137.888    1479.8264   -21617.715   -743.79129    373.24718    39.391154    39.244678    23.801857 
   74600    235.60974   -421.89505    216156.16   -20191.266    1492.4042   -21683.671   -1168.7918    375.39481    39.392329    39.243854    23.796416 
   74800      232.718   -195.23064    216156.16   -20222.775    1474.0873   -21696.862   -135.34065    376.40488    39.391592    39.242771    23.790519 
   75000    230.46643   -259.86322    216156.16   -20224.923    1459.8254   -21684.749   -410.19314    377.63918    39.390246    39.243419    23.803353 
   75200    233.94647   -466.78502    216156.16   -20163.845    1481.8687   -21645.714   -1346.3165    377.86076    39.388491    39.244199    23.808719 
   75400    234.54471   -492.09196    216156.16   -20216.253    1485.6581   -21701.912   -1432.2632     378.0722    39.387564    39.244232     23.79772 
   75600    231.98911    -340.9377    216156.16   -20185.207    1469.4704   -21654.678   -762.35346    377.04838     39.38692     39.24466    23.794403 
   75800    244.17749   -431.96803    216156.16   -20175.467    1546.6743   -21722.141   -1121.0996     379.0319    39.387488    39.243439    23.793536 
   76000     243.0096   -335.44693    216156.16   -20172.728    1539.2766   -21712.004   -773.30154    381.02923    39.386381    39.245538     23.80791 
   76200    234.26753   -355.63023    216156.16   -20273.779    1483.9024   -21757.681     -792.176    382.51657    39.384383    39.244583    23.851163 
   76400    232.48606   -322.03572    216156.16   -20247.559    1472.6182   -21720.177   -716.46673    386.69589    39.385079    39.243526    23.870122 
   76600    236.49744   -247.05448    216156.16   -20243.548    1498.0272   -21741.575   -375.21086    386.83395    39.384694    39.243918    23.867549 
   76800     232.6143   -419.76472    216156.16   -20255.806    1473.4305   -21729.237   -1114.6565    386.04211    39.383961    39.243326    23.848164 
   77000    233.15038   -417.99167    216156.16   -20191.256    1476.8261   -21668.082   -1098.0309    386.25212    39.386457    39.241472     23.85713 
   77200    232.54215   -377.22488    216156.16   -20118.759    1472.9734   -21591.733    -912.7946    387.52779    39.386368    39.242759    23.877831 
   77400    231.65392    -269.3402    216156.16   -20134.631    1467.3472   -21601.978   -480.34827    386.07453    39.385796    39.242645    23.880104 
   77600    236.28833      -430.36    216156.16    -20162.46    1496.7026   -21659.162   -1158.9832    387.86631    39.384566    39.240046    23.890261 
   77800    239.62468    -434.9528    216156.16   -20168.512    1517.8358   -21686.348   -1176.3691     387.9349    39.383224    39.240087    23.892838 
   78000    228.98607   -324.54056    216156.16   -20186.458    1450.4484   -21636.906   -747.98336    387.94432    39.383242    39.241294    23.913605 
   78200    238.90734   -487.81183    216156.16   -20104.091     1513.292   -21617.383     -1409.53    388.94307    39.384017    39.239775    23.907547 
   78400    236.47124   -298.38915    216156.16   -20131.659    1497.8612   -21629.521   -601.82678    389.84046    39.382423    39.241483    23.889422 
   78600    232.79659   -367.20387    216156.16   -20149.274    1474.5852   -21623.859   -895.32016    389.74544     39.38066    39.244034    23.893497 
   78800    233.09865   -500.87587    216156.16   -20138.945    1476.4984   -21615.443   -1445.1193    389.94383    39.380261    39.246047    23.891661 
   79000    234.23181   -327.33573    216156.16   -20091.978    1483.6761   -21575.654   -741.60149    390.32694    39.379877     39.24822    23.895553 
   79200    245.56237   -347.64903    216156.16   -20102.487    1555.4464   -21657.933   -790.52193    392.86699    39.379099    39.248851    23.883518 
   79400    244.48323   -337.46487    216156.16   -20111.887    1548.6109   -21660.498   -763.79946    396.12132    39.376887    39.246578    23.885449 
   79600    229.27999   -282.97098    216156.16   -20204.901    1452.3102   -21657.212   -513.45406    399.07952    39.376503    39.246175     23.87747 
   79800    231.84601   -438.77557    216156.16   -20179.488    1468.5639   -21648.052   -1221.1854    400.36564    39.374288    39.245002    23.886226 
   80000    230.91069   -451.45807    216156.16   -20201.967    1462.6394   -21664.606   -1302.9606    399.38912    39.371576    39.245194    23.873271 
   80200    231.28316   -406.40686    216156.16   -20193.104    1464.9987   -21658.103   -1087.8291    398.72791    39.371851    39.245479    23.880848 
   80400    234.56981   -296.26781    216156.16   -20190.462    1485.8171   -21676.279   -585.78517    398.65051     39.37175    39.244832    23.893834 
   80600    238.27248   -336.93464    216156.16   -20186.793    1509.2706   -21696.064   -768.52639    398.29609    39.371694    39.242501    23.898621 
   80800    236.57382   -266.00043    216156.16    -20171.04    1498.5109    -21669.55      -493.51    398.47546    39.372398    39.240666    23.898509 
   81000    238.45987   -460.80723    216156.16    -20183.83    1510.4576   -21694.288   -1350.7555    399.83195    39.372533    39.242036    23.894452 
   81200    235.31016   -306.60995    216156.16   -20190.985    1490.5066   -21681.491   -674.44294    399.53931    39.372251    39.243059    23.897938 
   81400      235.946   -348.12606    216156.16   -20157.036    1494.5342    -21651.57   -790.40814    401.48242    39.372946    39.244653    23.902652 
   81600    232.30629   -336.12644    216156.16   -20232.465    1471.4795   -21703.944   -794.84247    402.06775    39.370187    39.245479    23.883051 
   81800    225.91528   -453.68342    216156.16   -20290.899    1430.9974   -21721.897   -1278.4058    406.29652    39.368989    39.244979    23.894971 
   82000    235.60218   -284.29928    216156.16    -20257.28    1492.3563   -21749.637   -549.08818    407.02138    39.369496    39.243508    23.887436 
   82200    238.94995   -347.17915    216156.16   -20206.491    1513.5619   -21720.053   -854.94526    408.77852    39.372385     39.24532     23.88516 
   82400     233.3754   -442.67714    216156.16   -20211.192    1478.2515   -21689.443   -1241.6697    411.18184    39.372305     39.24458    23.864777 
   82600    235.56788   -508.67686    216156.16   -20143.072    1492.1391   -21635.211   -1478.5574    411.81061    39.374572    39.242487     23.88315 
   82800    230.76863   -320.98074    216156.16    -20207.27    1461.7396   -21669.009   -679.34939    414.35765    39.371358    39.241662    23.865794 
   83000    243.29469   -350.84698    216156.16   -20142.057    1541.0824    -21683.14   -835.24507    415.24179    39.372185    39.243963    23.829188 
   83200     234.5493   -397.21892    216156.16   -20170.192    1485.6872   -21655.879   -1049.9282    413.60761    39.373752    39.241208    23.804358 
   83400    235.87672   -315.93949    216156.16   -20193.549    1494.0953   -21687.644   -676.65665    413.75257    39.373245    39.240241    23.801416 
   83600    234.76668    -435.9556    216156.16    -20252.16    1487.0641   -21739.224   -1209.3802    416.51336    39.376632    39.243069    23.821729 
   83800    233.30017   -468.21147    216156.16    -20213.41    1477.7749   -21691.185   -1308.0471     416.1627      39.3763    39.242903     23.84411 
   84000    232.54157   -323.45443    216156.16   -20206.413    1472.9698   -21679.383   -741.46757    418.50607    39.376586    39.243243    23.839465 
   84200    234.59434    -496.1094    216156.16   -20183.403    1485.9725   -21669.375   -1496.6148    420.42405    39.376935    39.244911    23.819073 
   84400    229.63188   -328.06336    216156.16   -20242.998    1454.5391   -21697.537   -788.44503    419.77558    39.378788    39.244658    23.839719 
   84600    238.81211   -417.80461    216156.16   -20238.417    1512.6888   -21751.105   -1102.3838      420.876    39.379938    39.246131    23.843787 
   84800     235.8096    -431.9383    216156.16    -20285.84    1493.6702    -21779.51   -1183.9183    422.61019    39.379249     39.24705    23.833708 
   85000    233.87361   -334.73259    216156.16   -20264.146    1481.4072   -21745.553   -732.48632    422.10056    39.381532    39.246866    23.851848 
   85200    231.36442   -479.37522    216156.16   -20287.851    1465.5135   -21753.364   -1415.7186    424.50949    39.380808    39.246474    23.864259 
   85400    232.54285   -508.39635    216156.16   -20322.034    1472.9779   -21795.012   -1530.2534    425.37243    39.379556    39.247738    23.862283 
   85600    226.07461   -263.72661    216156.16   -20256.759    1432.0066   -21688.766   -496.44899    423.85753    39.377764    39.245854    23.870719 
   85800    240.76593   -211.03312    216156.16   -20154.374    1525.0647   -21679.438   -238.60547    425.19741     39.37523    39.244843    23.866354 
   86000    235.40731    -362.9605    216156.16    -20170.74     1491.122   -21661.862   -871.86795    427.73427     39.37346    39.245878    23.883831 
   86200    234.18009   -527.65046    216156.16   -20134.149    1483.3485   -21617.498   -1581.4745    424.39574    39.374642    39.246187    23.873814 
   86400    230.31585   -513.16029    216156.16   -20219.593    1458.8716   -21678.465   -1567.3451     423.5106    39.375304     39.24966    23.862495 
   86600    235.62312   -457.55026    216156.16   -20156.409     1492.489   -21648.898   -1280.3165     423.5441    39.376182    39.250543    23.857043 
   86800    226.38296   -321.55406    216156.16   -20262.251    1433.9598   -21696.211   -721.51864    426.42188    39.377904    39.251396    23.848843 
   87000    234.45909   -408.09943    216156.16    -20225.46    1485.1157   -21710.576   -1063.9788    427.06895    39.378396     39.25436    23.848393 
   87200    237.12759   -396.11624    216156.16   -20205.533    1502.0186   -21707.551   -1009.2528    427.41044    39.377494    39.256796    23.855118 
   87400    229.03574   -468.46785    216156.16   -20259.381     1450.763   -21710.144   -1333.0827    426.74106     39.37596    39.256689    23.845793 
   87600    239.25189   -288.68345    216156.16   -20158.889    1515.4744   -21674.364   -562.90468    426.64832    39.374547    39.255744    23.838568 
   87800    230.75664   -464.26266    216156.16   -20222.629    1461.6636   -21684.292   -1341.6578    426.63594    39.373778    39.254677     23.81884 
   88000     236.1967   -417.59834    216156.16   -20213.693    1496.1222   -21709.815    -1138.854    428.50778    39.375747    39.253385     23.83033 
   88200    231.54232   -313.23694    216156.16   -20241.507    1466.6403   -21708.147    -677.7117    429.44515    39.375448    39.253589    23.833034 
   88400    234.24955   -445.62527    216156.16   -20191.805    1483.7885   -21675.594   -1282.9182    429.08103      39.3762     39.25648    23.841737 
   88600    233.82973   -223.13698    216156.16   -20186.378    1481.1293   -21667.507   -296.19764    428.68341    39.374205    39.258726    23.845233 
   88800    234.35249   -206.85341    216156.16   -20195.122    1484.4406   -21679.563   -209.55108     429.3602    39.374197    39.259179    23.834829 
   89000    239.89679   -529.59611    216156.16   -20186.976    1519.5594   -21706.536   -1640.3913    430.15689    39.372794    39.259363    23.823768 
   89200    237.20221   -523.79699    216156.16   -20185.867    1502.4913   -21688.358   -1582.8586    430.51831    39.371878    39.259563    23.815912 
   89400    241.37386   -406.37117    216156.16   -20183.248    1528.9155   -21712.164   -1099.0035    430.49336    39.370354    39.260131    23.820098 
   89600    228.03588   -297.30806    216156.16   -20281.422    1444.4297   -21725.851   -599.90431     432.6698    39.368717    39.261025    23.799327 
   89800    231.43023   -468.33679    216156.16   -20161.873    1465.9303   -21627.804   -1324.8709    432.65249    39.369261    39.263929    23.783322 
   90000    233.14021   -603.58797    216156.16   -20207.735    1476.7617   -21684.496   -1927.2721    436.32996    39.368876    39.265155    23.791261 
   90200    237.44561    -362.3799    216156.16   -20201.554     1504.033   -21705.587   -913.34398    434.85246    39.372077    39.266603     23.80134 
   90400    235.95927   -299.87508    216156.16   -20154.995    1494.6182   -21649.613   -605.95375    435.56482    39.373158    39.264733    23.806588 
   90600    238.51835   -318.20101    216156.16   -20185.675     1510.828   -21696.503   -735.78784    438.30737    39.371464     39.26661    23.791703 
   90800    231.82129   -352.56053    216156.16   -20189.314    1468.4074   -21657.721   -847.12106    439.79389    39.369765    39.264977    23.758903 
   91000     235.8754   -431.84687    216156.16   -20229.808     1494.087   -21723.895   -1205.5951    439.11827    39.371243    39.264257    23.756879 
   91200     231.2782   -420.76364    216156.16   -20279.326    1464.9673   -21744.293   -1140.6178    442.20539    39.373529    39.263961    23.732498 
   91400    233.56027   -435.54977    216156.16   -20210.078    1479.4224     -21689.5   -1175.2639    440.69137     39.37265     39.26423    23.740641 
   91600     236.4545   -362.47238    216156.16   -20113.774    1497.7552   -21611.529   -867.47917    444.27369    39.372969    39.264886    23.722822 
   91800    243.57971   -295.06842    216156.16   -20151.344    1542.8878   -21694.232   -621.93366    448.27351    39.373912    39.266671    23.714222 
   92000     245.4252   -505.16067    216156.16   -20147.881    1554.5775   -21702.459   -1555.2142    448.49968    39.374072    39.268412    23.720099 
   92200    231.18679   -266.39546    216156.16   -20190.864    1464.3883   -21655.252   -508.70398    448.43947    39.376546    39.267446    23.715722 
   92400    240.08846   -438.93896    216156.16   -20167.618    1520.7734   -21688.392    -1228.688    451.63215    39.376043    39.269744    23.740356 
   92600    239.84224   -408.84029    216156.16   -20116.512    1519.2139   -21635.726   -1082.6245    454.68877    39.375562    39.270492    23.754482 
   92800    229.87114   -437.34263    216156.16   -20198.389    1456.0547   -21654.443   -1223.7928    453.42721    39.377164    39.271688    23.749507 
   93000    228.64341   -554.48607    216156.16   -20203.984     1448.278   -21652.262   -1704.6637    454.92568    39.379058    39.271253    23.751833 
   93200    230.85301   -422.87123    216156.16   -20172.589    1462.2741   -21634.863   -1170.4993    454.71373    39.381519    39.270907    23.752595 
   93400    229.81309   -279.54094    216156.16   -20219.424     1455.687   -21675.111   -569.75889    453.84094    39.380833    39.270794    23.741666 
   93600    231.37402   -407.36832    216156.16   -20200.545    1465.5742   -21666.119   -1099.3097     457.5843    39.379796    39.270656    23.737206 
   93800    232.73557   -424.92613    216156.16   -20251.707    1474.1986   -21725.905   -1171.9318    456.85224    39.381962    39.270272    23.724794 
   94000    232.32122   -392.79379    216156.16   -20255.142     1471.574   -21726.717   -1000.4036    459.15346     39.38125    39.269403    23.723542 
   94200     233.2822   -455.68955    216156.16   -20131.132    1477.6611   -21608.793   -1297.5815     460.5102    39.379721    39.268389    23.723644 
   94400    232.87514   -403.07959    216156.16   -20142.046    1475.0827   -21617.129   -1103.9038    460.21202    39.380443    39.268079    23.712796 
   94600     229.6263   -403.72146    216156.16   -20123.528    1454.5038   -21578.032   -1051.1312    457.72754    39.381279    39.267539    23.731732 
   94800    243.00377   -480.33158    216156.16   -20133.692    1539.2396   -21672.931   -1397.3733    459.59319    39.383433    39.266689    23.729347 
   95000    234.66206   -242.52218    216156.16   -20185.775    1486.4014   -21672.176   -356.64335    458.71916    39.383574    39.269197     23.73774 
   95200     233.9489   -337.12999    216156.16   -20176.727    1481.8841   -21658.611    -777.2895    459.82274      39.3845    39.269266    23.750169 
   95400    235.73802   -300.37176    216156.16   -20114.691    1493.2168   -21607.908    -625.6064    461.00347    39.382788    39.268986    23.738009 
   95600    233.87955   -244.09693    216156.16   -20073.712    1481.4449   -21555.157   -408.70147    463.04733    39.382777    39.265993    23.712223 
   95800    233.36385   -371.46207    216156.16   -20071.636    1478.1783   -21549.814   -913.01599     463.4877    39.382133    39.266065    23.699917 
   96000    245.40412   -360.53128    216156.16   -20115.196     1554.444    -21669.64   -856.06607    465.58184    39.383697    39.265194    23.714281 
   96200    239.15957   -332.79461    216156.16   -20067.868    1514.8896   -21582.758    -751.1238     466.6456    39.382248    39.267564    23.722066 
   96400     236.7441   -266.86038    216156.16   -20162.514    1499.5896   -21662.104   -529.13207     466.6549    39.381829    39.268226    23.718484 
   96600    233.00003   -265.79321    216156.16   -20157.182    1475.8738   -21633.056   -512.70005    465.96816    39.379316    39.267258     23.73209 
   96800    238.76916   -469.31554    216156.16   -20094.909    1512.4167   -21607.326     -1342.05    467.74898    39.379734    39.268374    23.745764 
   97000    235.48254    -405.6576    216156.16    -20157.74    1491.5986   -21649.338   -1103.6403    468.40474     39.37913    39.269132    23.751233 
   97200    233.36367   -289.94569    216156.16   -20175.561    1478.1771   -21653.738   -558.78034    467.69377    39.378079    39.269352    23.746513 
   97400    236.59983   -418.10575    216156.16   -20166.758    1498.6757   -21665.433   -1114.8244    468.53629    39.376747    39.267733    23.736858 
   97600    238.83055   -345.25849    216156.16   -20137.603    1512.8056   -21650.409   -861.02187    468.84388    39.378111    39.266829    23.746443 
   97800    234.47205   -410.48133    216156.16   -20164.565    1485.1979   -21649.763   -1060.6882    471.49501    39.375952    39.266087    23.728229 
   98000    226.90961   -294.05567    216156.16   -20234.781    1437.2957   -21672.077   -594.28388    473.64698    39.377486    39.265587    23.724428 
   98200    232.08529   -237.93806    216156.16     -20219.2    1470.0796   -21689.279   -365.17165    473.66947    39.376769    39.265688    23.726323 
   98400    235.92814   -434.15387    216156.16    -20222.72    1494.4211   -21717.141   -1193.8143    473.79347    39.375997    39.266516     23.72865 
   98600    228.80509   -627.51118    216156.16   -20215.626    1449.3021   -21664.928   -1974.1776    476.49539    39.376657    39.267098     23.75407 
   98800    241.53987   -433.60929    216156.16    -20214.97     1529.967   -21744.937   -1191.0231    475.20719    39.377439    39.268576    23.733667 
   99000    237.14845   -252.00649    216156.16    -20280.54    1502.1508    -21782.69   -411.04052     476.5247    39.376258    39.268015    23.727991 
   99200    235.20769     -465.204    216156.16   -20247.313    1489.8576   -21737.171   -1310.7571    477.00273    39.377815    39.269712    23.721077 
   99400    241.80123   -504.23997    216156.16   -20246.196    1531.6225   -21777.818   -1481.2726    477.40347    39.376475    39.271257    23.711194 
   99600    229.33116   -328.23203    216156.16    -20217.84    1452.6343   -21670.474   -722.58315    478.32898    39.376237    39.271268    23.738697 
   99800    231.67723   -332.05745    216156.16   -20206.244    1467.4948   -21673.739    -742.7124    479.01335    39.378674    39.275698    23.740614 
  100000    236.57698   -310.69569    216156.16   -20212.547     1498.531   -21711.078   -686.98774    480.25676     39.38033    39.278346    23.750866 
  100200    228.89947   -445.30948    216156.16   -20298.969    1449.8999   -21748.869   -1294.9378    481.15116    39.380531    39.277954    23.725456 
  100400    236.71947   -397.42162    216156.16   -20221.217    1499.4335    -21720.65   -1012.1173    482.61385    39.381888     39.27636    23.692273 
  100600    232.36878   -416.73503    216156.16   -20204.509    1471.8753   -21676.384   -1082.1712    482.69256    39.385159    39.276054    23.662342 
  100800    231.45041   -472.51394    216156.16   -20236.098    1466.0581   -21702.157   -1295.1822    481.98779    39.385424    39.273152     23.66674 
[...]
 3975800    221.03536   -579.42096    216156.16   -22179.613    1400.0869     -23579.7    -1779.209    4013.3044     38.09219     38.93284    23.672392 
 3976000    223.67356   -550.64574    216156.16   -22208.145    1416.7979   -23624.943   -1651.2565    4013.3831    38.092135    38.931177    23.675641 
 3976200    217.47122   -482.67662    216156.16   -22212.479    1377.5108    -23589.99   -1311.9021    4013.3959    38.092625    38.930763    23.674956 
 3976400    225.05118   -494.04919    216156.16   -22212.897     1425.524   -23638.421   -1399.1335    4013.0293    38.093101    38.930501    23.677371 
 3976600    224.65111   -445.54575    216156.16   -22214.326    1422.9899   -23637.316   -1201.6583    4012.9712    38.092898    38.930421    23.677423 
 3976800    225.40632   -446.26812    216156.16   -22170.096    1427.7735   -23597.869   -1225.7935    4012.7123     38.09232     38.93057    23.674944 
 3977000    219.38451   -584.72606    216156.16   -22260.511      1389.63   -23650.141   -1812.3463    4013.0958    38.092004     38.93063    23.681881 
 3977200    225.19241   -582.39535    216156.16   -22174.322    1426.4186   -23600.741   -1827.6059    4014.0657    38.092487    38.929811    23.687406 
 3977400    229.07392   -567.62625    216156.16   -22187.137    1451.0049   -23638.142    -1694.485    4013.0309    38.092801    38.929261    23.676061 
 3977600    222.03613   -489.20477    216156.16   -22203.364     1406.426    -23609.79   -1448.1433    4012.5886    38.092717    38.928752    23.674346 
 3977800    225.76839   -462.91322    216156.16   -22216.455     1430.067   -23646.522   -1292.7776    4014.1223     38.09286    38.928454    23.681202 
 3978000    220.24788   -577.58356    216156.16   -22239.172    1395.0988   -23634.271      -1771.9    4013.4589    38.092277    38.928208     23.69202 
 3978200    227.89618    -551.6496    216156.16   -22166.518    1443.5448   -23610.063   -1703.7462    4014.6825    38.091531    38.927224    23.691659 
 3978400    223.78956   -455.59725    216156.16   -22233.427    1417.5326   -23650.959   -1215.7935    4013.8194    38.092214    38.927307    23.690183 
 3978600    223.68437   -526.70858    216156.16   -22194.884    1416.8663    -23611.75   -1543.1187    4013.3098    38.091919    38.927644    23.686876 
 3978800    227.21535    -481.4169    216156.16   -22171.139    1439.2323   -23610.371   -1354.0214    4013.3062    38.092984     38.92723    23.683134 
 3979000    224.60422   -560.16355    216156.16   -22199.154    1422.6928   -23621.847   -1679.2578    4013.2981     38.09237    38.926693    23.684949 
 3979200    226.37053   -559.56334    216156.16   -22226.322     1433.881   -23660.203   -1664.3712    4014.0896    38.092607    38.926842    23.688875 
 3979400    226.86552   -501.42702    216156.16   -22187.369    1437.0164   -23624.386   -1387.0527    4013.8435    38.092351    38.926969    23.679012 
 3979600    227.01499   -511.07354    216156.16   -22209.338    1437.9632   -23647.302   -1456.8855    4013.5795    38.091884    38.927181    23.676085 
 3979800    226.46097   -514.36799    216156.16   -22191.388    1434.4539   -23625.842   -1510.5814     4012.594    38.091673    38.925815    23.682595 
 3980000    224.66153   -477.73281    216156.16   -22208.323    1423.0559   -23631.379   -1314.4388    4012.7874    38.091977    38.925369    23.681958 
 3980200    225.62075   -503.59775    216156.16   -22200.599    1429.1318   -23629.731   -1454.3206    4013.4683       38.092    38.925342    23.684945 
 3980400    223.93824   -666.40478    216156.16   -22162.554    1418.4744   -23581.029   -2130.5182    4013.7077    38.092411    38.925363    23.680025 
 3980600    237.37838    -473.2236    216156.16   -22120.272    1503.6072    -23623.88   -1316.5603    4014.6007     38.09247    38.924757    23.683504 
 3980800     227.5327   -413.54665    216156.16   -22156.529    1441.2425   -23597.771   -1067.5142    4014.2318    38.092374    38.923809    23.684274 
 3981000    223.01443   -393.75309    216156.16   -22189.491    1412.6228   -23602.114   -962.48459    4013.4405    38.092331    38.922942    23.687459 
 3981200    225.32232   -511.45365    216156.16   -22176.296    1427.2414   -23603.537   -1513.8401    4014.2154    38.092271    38.922304    23.683438 
 3981400     229.3825   -595.59808    216156.16   -22152.915    1452.9595   -23605.875   -1886.2891     4014.713    38.092313    38.921696    23.690528 
 3981600    224.84627   -569.26391    216156.16    -22203.46     1424.226   -23627.686   -1730.6263    4013.8145    38.091742    38.921232    23.686981 
 3981800    221.12693   -531.42137    216156.16   -22186.202    1400.6669   -23586.869   -1586.0249     4013.525    38.091737    38.920916    23.692509 
 3982000      220.242    -479.7923    216156.16    -22236.55    1395.0616   -23631.612   -1354.6364    4013.7731    38.091398    38.920275    23.692216 
 3982200    217.08492   -478.48516    216156.16   -22284.139    1375.0639   -23659.203   -1340.9686    4013.7233     38.09058    38.919784    23.691033 
 3982400    228.23006   -629.30109    216156.16   -22194.148    1445.6597   -23639.807   -1946.7412    4013.4702    38.090641    38.918301    23.693769 
 3982600    222.23064   -571.81803    216156.16   -22196.219    1407.6581   -23603.877   -1722.9066    4012.8128    38.089922    38.917232    23.688636 
 3982800    230.62652   -548.36605    216156.16   -22154.765    1460.8395   -23615.604   -1633.1084    4013.9876    38.089211    38.916562     23.69294 
 3983000     232.9818   -338.18307    216156.16   -22137.391    1475.7583   -23613.149   -743.12587    4012.0712    38.090059    38.915297    23.686114 
 3983200    226.25481   -493.09585    216156.16   -22157.812     1433.148    -23590.96   -1395.4039    4014.0463    38.089761    38.914358    23.690654 
 3983400    224.13635   -519.12334    216156.16   -22126.498    1419.7292   -23546.227   -1525.6303    4014.1081    38.090039    38.914336    23.681507 
 3983600    225.20666   -568.06401    216156.16   -22196.536    1426.5089   -23623.045   -1723.3802    4012.9376    38.089334    38.913176    23.690095 
 3983800    223.68045    -474.0896    216156.16       -22178    1416.8415   -23594.841   -1312.6588    4013.6066    38.089128    38.912504    23.688465 
 3984000     227.7236   -451.60897    216156.16   -22176.171    1442.4517   -23618.623   -1212.2329    4013.2086    38.089341    38.911946    23.695734 
 3984200    221.88807   -441.76146    216156.16   -22159.369    1405.4882   -23564.857   -1162.8258    4012.7147    38.088175    38.911587    23.694343 
 3984400    220.91308   -511.89453    216156.16   -22199.109    1399.3124   -23598.421    -1443.617    4013.5788    38.087463    38.911591    23.693465 
 3984600    224.56349   -514.57168    216156.16   -22208.097    1422.4348   -23630.532   -1494.7696    4013.5569    38.086187    38.911305    23.690412 
 3984800    221.82997   -491.56141    216156.16   -22172.318    1405.1201   -23577.438   -1364.3041     4014.164    38.085584    38.911191     23.69218 
 3985000    220.61661   -495.49444    216156.16   -22218.453    1397.4344   -23615.888   -1408.6662    4013.7027    38.084428     38.91097    23.691706 
 3985200    221.35503   -663.73455    216156.16   -22178.034    1402.1117   -23580.146   -2120.1873    4013.7395    38.084066    38.911252    23.692683 
 3985400     222.8731   -640.31847    216156.16   -22191.877    1411.7276   -23603.604   -2013.9144    4014.0426    38.084158    38.911235    23.688099 
 3985600    222.08063   -472.56278    216156.16   -22146.818    1406.7079   -23553.526   -1312.9456    4013.8904    38.084558    38.910612    23.687381 
 3985800    218.02755   -410.40459    216156.16   -22170.512    1381.0347   -23551.547   -1064.6865    4013.0639    38.084378    38.910426    23.690646 
 3986000     230.3717   -464.05253    216156.16   -22102.342    1459.2253   -23561.567   -1264.6934    4013.5085    38.084854     38.90885    23.686575 
 3986200    230.34065   -533.90877    216156.16   -22126.162    1459.0286   -23585.191    -1515.364     4013.844    38.085224    38.907945    23.693395 
 3986400     223.2831   -496.23255    216156.16   -22226.451    1414.3246   -23640.775   -1367.6489    4015.6023    38.085351    38.908062    23.690682 
 3986600    221.26403   -400.47268    216156.16   -22178.945    1401.5353   -23580.481   -1021.1719    4014.3212    38.086141    38.907465    23.694495 
 3986800    221.88627   -446.61357    216156.16   -22185.301    1405.4768   -23590.778   -1220.5893    4013.1006    38.086209    38.907385    23.692563 
 3987000    225.42652   -555.40693    216156.16   -22168.556    1427.9014   -23596.458   -1638.5648    4014.1144    38.085911    38.907158    23.692908 
 3987200    212.13688   -583.67584    216156.16   -22258.287     1343.722   -23602.009   -1779.4491    4015.0925    38.085342    38.905986    23.691574 
 3987400    221.24301   -486.49458    216156.16   -22218.545    1401.4022   -23619.947   -1418.9531     4013.945    38.083888    38.905392      23.6879 
 3987600    230.52096   -457.99208    216156.16   -22157.736    1460.1708   -23617.907    -1233.888    4013.1685    38.083641    38.904364    23.691702 
 3987800    223.68731   -519.51713    216156.16   -22202.759    1416.8849   -23619.644   -1520.1431    4014.9621    38.083694    38.904264    23.693333 
 3988000    226.13881   -567.23214    216156.16   -22149.114    1432.4133   -23581.527   -1708.2771    4015.0947    38.084246    38.905047    23.690428 
 3988200    230.28111   -470.69938    216156.16   -22179.449    1458.6515     -23638.1   -1280.0729    4014.5037    38.084307     38.90525    23.690706 
 3988400     223.3456   -449.93834    216156.16   -22170.121    1414.7205   -23584.841   -1204.5041     4013.019    38.083733    38.904958    23.691825 
 3988600     222.6545   -502.64591    216156.16   -22222.208    1410.3429   -23632.551   -1427.1437    4013.5472    38.083604    38.904364    23.693137 
 3988800    226.12501   -522.06562    216156.16   -22221.869    1432.3258   -23654.195   -1528.3889    4014.4978    38.083009    38.903689    23.693485 
 3989000    229.23024   -567.87542    216156.16   -22146.907    1451.9951   -23598.902   -1701.3628    4014.9188    38.081475    38.903992     23.69597 
 3989200    223.22295   -462.40105    216156.16   -22175.308    1413.9436   -23589.251   -1279.8468    4013.7189    38.081616    38.904429    23.691527 
 3989400    229.83447   -518.77282    216156.16   -22204.393    1455.8224   -23660.216   -1498.4845    4014.5217    38.081368    38.905106    23.695519 
 3989600    225.41875   -565.21896    216156.16   -22123.405    1427.8523   -23551.257   -1704.2802    4013.7939    38.081724    38.904836    23.692615 
 3989800    224.97772    -599.8993    216156.16   -22155.717    1425.0587   -23580.776   -1846.7296    4014.8956    38.081782    38.904583     23.68959 
 3990000    226.11837   -495.39658    216156.16    -22195.78    1432.2838   -23628.064   -1397.2484     4013.377    38.081454    38.904963     23.69222 
 3990200     222.6281   -513.14085    216156.16   -22191.476    1410.1757   -23601.652   -1484.1401    4013.2771    38.081252    38.904762    23.692168 
 3990400    221.56066   -407.23355    216156.16   -22164.721    1403.4143   -23568.136   -997.87175    4013.2369     38.08192    38.905065    23.686797 
 3990600    225.09659   -556.32952    216156.16   -22199.271    1425.8116   -23625.083   -1654.7956     4013.703    38.082468    38.905609    23.688767 
 3990800    225.78804   -540.89808    216156.16   -22169.009    1430.1914     -23599.2   -1562.4078    4014.7979    38.081642    38.905133    23.688463 
 3991000    225.85396   -537.26658    216156.16   -22141.047    1430.6089   -23571.655   -1587.6542    4014.6978    38.082389    38.905568    23.685744 
 3991200    235.75722   -471.47725    216156.16   -22133.177    1493.3384   -23626.515    -1288.626    4014.5209    38.082887    38.906445    23.686012 
 3991400    226.46624   -513.64002    216156.16   -22126.556    1434.4873   -23561.043   -1517.7065    4014.0349    38.082177    38.906721    23.687301 
 3991600    224.83631   -524.57013    216156.16    -22183.96     1424.163   -23608.123    -1542.518     4013.755    38.082427    38.906276    23.686346 
 3991800    218.86026   -556.80964    216156.16   -22247.708    1386.3093   -23634.017   -1648.0815     4014.321    38.082878    38.905273    23.686046 
 3992000    222.63765   -526.06924    216156.16   -22193.114    1410.2361    -23603.35    -1536.681    4013.4383    38.083434    38.904857    23.684172 
 3992200    222.23855   -470.14215    216156.16   -22177.276    1407.7081   -23584.984   -1287.8871    4012.2715    38.084583    38.904155    23.682717 
 3992400      220.799   -537.01516    216156.16   -22184.376    1398.5897   -23582.965   -1546.3821    4013.4677    38.085172    38.903829    23.675344 
 3992600    226.67969   -479.90626    216156.16   -22170.033    1435.8394   -23605.872   -1286.0558    4014.2126    38.085954    38.903679    23.684554 
 3992800    225.52093   -475.90575    216156.16   -22164.573    1428.4995   -23593.073    -1321.686    4014.0019    38.086689    38.903374     23.67922 
 3993000    217.23441   -503.64894    216156.16   -22262.172    1376.0108   -23638.182   -1461.8386    4015.1406    38.086283    38.902561    23.683053 
 3993200    226.32098   -534.91344    216156.16   -22176.619    1433.5672   -23610.186   -1564.4565    4014.5357    38.087279    38.902965    23.686507 
 3993400    226.35067   -461.79521    216156.16   -22137.219    1433.7552   -23570.974   -1220.8301    4014.4169    38.087667     38.90282    23.689708 
 3993600    229.47929   -468.63467    216156.16   -22158.538    1453.5726    -23612.11   -1283.4838    4014.6574    38.087703    38.902686     23.68924 
 3993800    223.25201   -461.24449    216156.16   -22175.286    1414.1276   -23589.414   -1205.7584    4014.0773    38.088014    38.902496     23.69098 
 3994000     225.7692   -507.95811    216156.16   -22190.591    1430.0721   -23620.663   -1472.8894    4015.0051    38.089011    38.901926    23.689981 
 3994200    226.40039   -434.26993    216156.16   -22210.862    1434.0702   -23644.932   -1129.6105    4014.6967    38.090504    38.901027    23.697535 
 3994400    222.02169   -438.14443    216156.16   -22182.825    1406.3345   -23589.159   -1159.3004    4014.5395     38.09191    38.900301    23.693606 
 3994600    216.56083   -413.80224    216156.16   -22244.025    1371.7442   -23615.769   -1069.4253    4013.7067    38.091922    38.900027    23.693328 
 3994800    224.59416    -524.4335    216156.16   -22145.679    1422.6291   -23568.309   -1531.5312    4014.4272      38.0917    38.900208    23.687806 
 3995000    219.50847   -574.52153    216156.16   -22165.515    1390.4152   -23555.931   -1738.4183    4015.0336     38.09231    38.898822    23.687352 
 3995200    220.03577   -563.30142    216156.16   -22226.134    1393.7553   -23619.889   -1697.4802    4014.9721    38.093256    38.898689    23.688208 
 3995400    227.48365    -639.6859    216156.16   -22178.244    1440.9318   -23619.176   -2046.8139    4016.1858    38.094245    38.899234    23.690174 
 3995600    227.60748   -480.56665    216156.16   -22104.405    1441.7162   -23546.121   -1328.4192     4017.358    38.094161    38.899149    23.687233 
 3995800    227.70702   -674.08578    216156.16   -22132.155    1442.3467   -23574.502   -2182.9714    4016.7019    38.094814    38.897657    23.690173 
 3996000     234.9138   -604.94822    216156.16   -22080.434     1487.996    -23568.43   -1894.1874    4016.3554    38.095617    38.896449    23.685941 
 3996200    225.42536   -486.99778    216156.16   -22159.257    1427.8941   -23587.151     -1397.36    4015.2282    38.096957    38.895969    23.689929 
 3996400    220.28318    -472.6011    216156.16   -22189.703    1395.3224   -23585.026   -1294.2385    4015.2772    38.097571    38.895354    23.691161 
 3996600    224.99782   -576.43251    216156.16   -22163.027     1425.186   -23588.213   -1766.3394    4015.7433    38.098341    38.894836    23.690795 
 3996800     224.9609   -485.41224    216156.16   -22200.167    1424.9521    -23625.12   -1367.0118    4014.3325    38.098895    38.894227    23.687755 
 3997000    231.79856   -455.26708    216156.16   -22095.673    1468.2634   -23563.937   -1256.1348    4013.6685    38.099241    38.894368     23.68828 
 3997200    226.58267   -464.09285    216156.16   -22149.056    1435.2248    -23584.28   -1290.7503    4013.4214    38.099511    38.893598    23.690657 
 3997400    220.05622   -548.41155    216156.16   -22212.242    1393.8848   -23606.127   -1638.3562    4015.2344    38.100513    38.892254    23.693332 
 3997600    230.58777   -542.36717    216156.16   -22147.575     1460.594   -23608.169    -1636.233    4015.4268    38.100704    38.892019     23.68734 
 3997800    220.14909   -550.84353    216156.16   -22268.176    1394.4731   -23662.649   -1642.6882    4014.6539    38.101068    38.891478    23.692811 
 3998000     228.8874   -610.05988    216156.16   -22204.126    1449.8235    -23653.95   -1899.1026    4015.0974    38.101487     38.89105    23.687753 
 3998200    223.21496   -504.33313    216156.16   -22244.923    1413.8929   -23658.816   -1465.5861    4015.9061    38.101587    38.890417    23.685792 
 3998400    229.77641   -559.92831    216156.16   -22109.928    1455.4547   -23565.383   -1692.2029    4015.7362    38.102109    38.889639     23.68398 
 3998600    223.45219   -556.03522    216156.16   -22202.757    1415.3956   -23618.152   -1673.3431    4014.2436    38.102712    38.890125     23.69054 
 3998800    227.27639   -508.27235    216156.16   -22203.855     1439.619   -23643.474   -1434.4239    4014.8694    38.102518    38.889335    23.689136 
 3999000    228.27563   -540.59186    216156.16   -22140.917    1445.9484   -23586.865    -1603.592    4014.8523    38.103981    38.889376    23.690122 
 3999200    225.06296   -475.18819    216156.16    -22184.76    1425.5986   -23610.358   -1310.5025    4014.5971     38.10375    38.889179    23.689896 
 3999400    219.01008   -649.49112    216156.16   -22220.416    1387.2583   -23607.675   -2076.5755    4014.9172    38.104667    38.888001    23.691355 
 3999600    216.37586    -521.5637    216156.16   -22235.653    1370.5726   -23606.226   -1553.2076    4015.6312    38.104448    38.886467    23.693783 
 3999800    225.61373   -578.13505    216156.16   -22150.949    1429.0873   -23580.036   -1765.1074    4015.0085    38.103638    38.885686    23.692569 
 4000000    226.59551   -503.99788    216156.16   -22149.303    1435.3061    -23584.61   -1437.8571    4014.5171     38.10328    38.885311    23.690871 
Loop time of 5914.99 on 120 procs for 4000000 steps with 9422 atoms

Performance: 584.278 ns/day, 0.041 hours/ns, 676.248 timesteps/s
98.1% CPU use with 120 MPI tasks x no OpenMP threads

MPI task timing breakdown:
Section |  min time  |  avg time  |  max time  |%varavg| %total
---------------------------------------------------------------
Pair    | 0.31416    | 1558.6     | 4593.4     |3737.6 | 26.35
Neigh   | 2.7161     | 96.631     | 354.92     |1046.7 |  1.63
Comm    | 355.78     | 2230.4     | 4568       |2931.6 | 37.71
Output  | 70.424     | 70.488     | 72.083     |   1.8 |  1.19
Modify  | 326.06     | 1915.1     | 5445.9     |4743.5 | 32.38
Other   |            | 43.83      |            |       |  0.74

Nlocal:    78.5167 ave 206 max 0 min
Histogram: 34 28 17 1 0 0 0 2 16 22
Nghost:    691.375 ave 907 max 528 min
Histogram: 32 0 14 3 23 8 11 9 9 11
Neighs:    0 ave 0 max 0 min
Histogram: 120 0 0 0 0 0 0 0 0 0
FullNghs:  7933.05 ave 24921 max 0 min
Histogram: 67 13 0 0 0 0 0 8 19 13

Total # of neighbors = 951966
Ave neighs/atom = 101.037
Neighbor list builds = 418624
Dangerous builds = 0
write_data 		${DIR}/data.${NAME}_run
write_data 		run_11/data.${NAME}_run
write_data 		run_11/data.ibeam_cooling_11_run
Total wall time: 1:38:51
