
### Dimensions ###
variable Z_G equal 10.062000000000001
variable Z_W equal 23.803019087

variable	XDIM string 78.752
variable 	YDIM string 80.86108639999017


### IMPORT ATOMS ###
read_data ../Box_Setup/data.Ibeam_240K
  orthogonal box = (0 0 0) to (78.752 80.8611 33.9443)
  5 by 8 by 3 MPI processor grid
  reading atoms ...
  9422 atoms
  reading velocities ...
  9422 velocities
group water type 2
2126 atoms in group water
group graphite type 1
7296 atoms in group graphite


# Define potential
#
pair_style          sw
pair_coeff * * MLC_e.sw C mW

# Add velocity/set timestep
#

fix		1 graphite setforce 0.0 0.0 0.0
velocity 	graphite set 0.0 0.0 0.0
velocity            water create ${START_TEMP} ${SEED} rot yes dist gaussian
velocity            water create 235 ${SEED} rot yes dist gaussian
velocity            water create 235 5962 rot yes dist gaussian
timestep            5.0

# Define output
#
compute 1 water msd
compute 2 water temp


thermo	            100
thermo_style custom step c_2 press vol etotal ke pe c_1[4] density

# Neighbor lists
#
neigh_modify        delay 0 every 1 check yes


# Set fixes
#
fix                 2 water momentum 10 linear 1 1 1 rescale
fix                 3 all nve
fix                 4 water temp/csvr ${START_TEMP} ${START_TEMP} 500.0 928347
fix                 4 water temp/csvr 235 ${START_TEMP} 500.0 928347
fix                 4 water temp/csvr 235 235 500.0 928347

# Run 0.05 ns equilibration
#
dump                1 all custom 100 ${DIR}/eq.${NAME}.dump id type x y z vx vy vz
dump                1 all custom 100 run_11/eq.${NAME}.dump id type x y z vx vy vz
dump                1 all custom 100 run_11/eq.ibeam_cooling_11.dump id type x y z vx vy vz
run                 10000
Neighbor list info ...
  update every 1 steps, delay 0 steps, check yes
  max neighbors/atom: 2000, page size: 100000
  master list distance cutoff = 6.67472
  ghost atom cutoff = 6.67472
  binsize = 3.33736, bins = 24 25 11
  1 neighbor lists, perpetual/occasional/extra = 1 0 0
  (1) pair sw, perpetual
      attributes: full, newton on
      pair build: full/bin/atomonly
      stencil: full/bin/3d
      bin: standard
Per MPI rank memory allocation (min/avg/max) = 3.374 | 4.228 | 4.744 Mbytes
Step c_2 Press Volume TotEng KinEng PotEng c_1[4] Density 
       0          235   -349.74665    216156.16   -20108.674     1488.542   -21597.216            0   0.96737059 
     100    238.32759   -417.57974    216156.16   -20129.233    1509.6197   -21638.853    0.8298843   0.96737059 
     200    237.37312   -520.81515    216156.16   -20166.578    1503.5739   -21670.152    1.2872767   0.96737059 
     300     231.9803   -274.08021    216156.16   -20164.281    1469.4146   -21633.696    1.8290874   0.96737059 
     400    232.12326   -343.96576    216156.16   -20158.777    1470.3201   -21629.098    2.3213153   0.96737059 
     500    238.65162   -348.61212    216156.16   -20126.172    1511.6722   -21637.844    2.6226605   0.96737059 
     600    238.66043   -468.71844    216156.16    -20063.92     1511.728   -21575.648    3.0025593   0.96737059 
     700    239.20641   -205.48901    216156.16   -20079.915    1515.1864   -21595.101    3.5460305   0.96737059 
     800    234.53585   -437.37776    216156.16   -20059.082     1485.602   -21544.684     4.128302   0.96737059 
     900    236.64776   -399.99672    216156.16   -20091.076    1498.9793   -21590.055    4.6640594   0.96737059 
    1000    238.36208   -338.88426    216156.16   -20137.284    1509.8381   -21647.122    4.9912114   0.96737059 
    1100    235.06163   -386.94793    216156.16   -20114.163    1488.9324   -21603.096    5.3310083   0.96737059 
    1200    237.31446   -451.48264    216156.16     -20130.5    1503.2023   -21633.702    5.5740098   0.96737059 
    1300    240.83446   -285.51856    216156.16   -20100.595    1525.4988   -21626.094     5.828965   0.96737059 
    1400    239.78686   -292.62252    216156.16   -20149.279     1518.863   -21668.142     6.154737   0.96737059 
    1500    234.90587   -263.21241    216156.16   -20185.962    1487.9458   -21673.908    6.8209721   0.96737059 
    1600    232.54037   -511.44059    216156.16   -20167.768    1472.9622   -21640.731    7.1900586   0.96737059 
    1700    233.54979   -532.92984    216156.16    -20164.98    1479.3561   -21644.336    7.5749278   0.96737059 
    1800    235.96184   -393.64225    216156.16   -20137.676    1494.6345    -21632.31    7.8716904   0.96737059 
    1900     237.5426   -342.83037    216156.16   -20094.297    1504.6474   -21598.945    8.1332768   0.96737059 
    2000    238.05039     -377.648    216156.16   -20065.157    1507.8639    -21573.02    8.6743122   0.96737059 
    2100    237.00018   -335.57187    216156.16   -20142.283    1501.2116   -21643.494    9.2312844   0.96737059 
    2200    239.93491    -405.3789    216156.16   -20124.665    1519.8008   -21644.466    9.6362439   0.96737059 
    2300    238.36416    -607.4317    216156.16    -20127.59    1509.8513   -21637.441    9.9437942   0.96737059 
    2400     243.3424   -348.37495    216156.16     -20145.1    1541.3846   -21686.484    10.225134   0.96737059 
    2500    238.51445   -417.88684    216156.16   -20161.688    1510.8033   -21672.492    10.502858   0.96737059 
    2600    232.16917   -255.56418    216156.16   -20181.406    1470.6109   -21652.017    10.867889   0.96737059 
    2700    238.01275   -453.94128    216156.16   -20158.272    1507.6254   -21665.897     11.03877   0.96737059 
    2800    233.70033   -254.25566    216156.16   -20105.673    1480.3096   -21585.983    11.246539   0.96737059 
    2900    232.79694   -329.56094    216156.16   -20117.433    1474.5874    -21592.02    11.618303   0.96737059 
    3000     244.1467   -361.39693    216156.16    -20117.67    1546.4792   -21664.149    12.050502   0.96737059 
    3100    238.80716   -408.20307    216156.16   -20133.608    1512.6574   -21646.266    12.418298   0.96737059 
    3200    233.36555   -358.42812    216156.16   -20182.848    1478.1891   -21661.037    12.913616   0.96737059 
    3300    232.40438   -460.54785    216156.16    -20257.75    1472.1008   -21729.851    13.213448   0.96737059 
    3400    237.22115   -367.22565    216156.16   -20203.158    1502.6113   -21705.769    13.622583   0.96737059 
    3500    233.56297   -621.46935    216156.16   -20199.232    1479.4396   -21678.671    13.742738   0.96737059 
    3600    230.20996   -318.76637    216156.16   -20190.913    1458.2009   -21649.114    13.780397   0.96737059 
    3700    236.60642   -268.96105    216156.16   -20162.675    1498.7174   -21661.392    14.119614   0.96737059 
    3800    232.57831   -461.36351    216156.16   -20149.729    1473.2025   -21622.931    14.247672   0.96737059 
    3900    234.80061   -419.13176    216156.16   -20150.049     1487.279   -21637.328    14.463074   0.96737059 
    4000    247.52993   -220.03044    216156.16   -20183.071    1567.9094   -21750.981    14.589555   0.96737059 
    4100    231.15502   -370.09424    216156.16   -20179.714    1464.1871   -21643.901     14.69209   0.96737059 
    4200    236.43624   -318.52268    216156.16   -20181.278    1497.6395   -21678.918    15.270741   0.96737059 
    4300    225.57123   -471.56812    216156.16   -20241.618    1428.8181   -21670.436    15.485896   0.96737059 
    4400    233.78127   -310.59304    216156.16   -20198.667    1480.8223    -21679.49    15.681033   0.96737059 
    4500    233.06132   -501.26449    216156.16   -20234.338     1476.262     -21710.6    15.797996   0.96737059 
    4600    228.50853   -395.98697    216156.16    -20273.51    1447.4236   -21720.934    16.063691   0.96737059 
    4700    228.91967   -590.14346    216156.16   -20219.828    1450.0278   -21669.855    16.259224   0.96737059 
    4800    229.51523   -424.61899    216156.16   -20181.925    1453.8003   -21635.725    16.294461   0.96737059 
    4900    244.59015   -437.86985    216156.16   -20154.116    1549.2882   -21703.404    16.653149   0.96737059 
    5000    232.22375   -264.32741    216156.16   -20218.567    1470.9566   -21689.524    16.787389   0.96737059 
    5100     233.2363   -420.16048    216156.16   -20179.518    1477.3703   -21656.888    17.132765   0.96737059 
    5200    233.81478   -529.74656    216156.16   -20210.629    1481.0346   -21691.664    17.778868   0.96737059 
    5300    232.07878   -219.67447    216156.16   -20267.905    1470.0384   -21737.943    18.158351   0.96737059 
    5400    233.45595   -450.42683    216156.16    -20248.39    1478.7617   -21727.151    18.401425   0.96737059 
    5500    233.32261   -339.09083    216156.16   -20238.049    1477.9171   -21715.966    18.598485   0.96737059 
    5600    238.18124   -532.95217    216156.16   -20263.149    1508.6927   -21771.842    18.947421   0.96737059 
    5700    231.75736   -331.39252    216156.16   -20256.603    1468.0024   -21724.606     19.26721   0.96737059 
    5800    235.42098   -357.70164    216156.16   -20238.057    1491.2086   -21729.266    19.597894   0.96737059 
    5900    231.11725   -379.62592    216156.16   -20272.784    1463.9478   -21736.731    19.778864   0.96737059 
    6000     232.5682   -551.39544    216156.16    -20280.18    1473.1385   -21753.318    19.999726   0.96737059 
    6100    232.35725    -154.4837    216156.16   -20287.162    1471.8023   -21758.965    20.213567   0.96737059 
    6200    228.40737   -334.05475    216156.16   -20289.288    1446.7828   -21736.071    20.362499   0.96737059 
    6300    234.50307   -437.59463    216156.16   -20229.001    1485.3944   -21714.396    20.692617   0.96737059 
    6400    230.05358    -572.5076    216156.16   -20253.007    1457.2103   -21710.217    21.005223   0.96737059 
    6500    234.56961   -227.40368    216156.16   -20264.809    1485.8158   -21750.625    21.387898   0.96737059 
    6600    232.24968   -353.14615    216156.16   -20274.382    1471.1209   -21745.503    21.727324   0.96737059 
    6700    229.74425   -554.10794    216156.16   -20290.205     1455.251   -21745.456    22.040755   0.96737059 
    6800    227.63391   -388.66382    216156.16   -20271.005    1441.8836   -21712.889    21.970602   0.96737059 
    6900    237.03924   -334.98504    216156.16    -20237.39     1501.459   -21738.849    22.291143   0.96737059 
    7000    230.77942   -380.02628    216156.16   -20237.085    1461.8079   -21698.893    22.335968   0.96737059 
    7100    231.38912   -277.67352    216156.16   -20238.912    1465.6699   -21704.582    22.654696   0.96737059 
    7200    226.20509   -370.90117    216156.16    -20288.87    1432.8331   -21721.703    23.195552   0.96737059 
    7300      227.308   -481.42027    216156.16   -20317.836    1439.8192   -21757.655    23.413247   0.96737059 
    7400    230.75736   -316.31032    216156.16   -20277.051    1461.6682   -21738.719     23.62734   0.96737059 
    7500    232.86017    -360.1983    216156.16    -20233.64    1474.9878   -21708.627     23.90527   0.96737059 
    7600    235.29637   -355.43987    216156.16   -20181.448    1490.4193   -21671.867    24.354013   0.96737059 
    7700    239.42006   -319.86041    216156.16   -20210.819    1516.5397   -21727.359    24.707533   0.96737059 
    7800    227.76164   -465.36233    216156.16    -20256.69    1442.6927   -21699.383     24.96513   0.96737059 
    7900    240.05086   -332.64779    216156.16   -20220.566    1520.5353   -21741.101      25.2181   0.96737059 
    8000    236.76473   -296.80974    216156.16   -20187.342    1499.7202   -21687.062    25.593014   0.96737059 
    8100    242.64556   -484.52062    216156.16   -20158.607    1536.9707   -21695.578    25.827412   0.96737059 
    8200    237.01894   -374.50346    216156.16   -20179.105    1501.3304   -21680.435    26.291807   0.96737059 
    8300    238.63886    -431.4474    216156.16   -20139.619    1511.5913    -21651.21    26.691461   0.96737059 
    8400    238.16193   -276.22582    216156.16   -20128.028    1508.5704   -21636.598    26.897107   0.96737059 
    8500     236.7215   -275.61015    216156.16   -20175.925    1499.4464   -21675.371    27.432976   0.96737059 
    8600     242.5258   -375.30692    216156.16    -20179.36    1536.2121   -21715.572    27.639404   0.96737059 
    8700    234.96506   -117.74321    216156.16   -20198.612    1488.3207   -21686.933    28.183889   0.96737059 
    8800    237.36974   -275.49266    216156.16   -20191.266    1503.5524   -21694.819     28.90504   0.96737059 
    8900    234.33395   -546.05083    216156.16   -20205.301    1484.3231   -21689.625    29.625107   0.96737059 
    9000    233.80898   -311.72384    216156.16   -20170.851    1480.9978   -21651.848    29.616371   0.96737059 
    9100    234.97244   -344.37495    216156.16   -20185.203    1488.3674    -21673.57    29.756149   0.96737059 
    9200    240.49356   -482.27519    216156.16   -20139.492    1523.3394   -21662.832    30.004196   0.96737059 
    9300    234.55757   -338.91591    216156.16    -20200.13    1485.7396    -21685.87    30.680796   0.96737059 
    9400     235.6192   -416.65186    216156.16   -20184.965    1492.4642   -21677.429     31.13766   0.96737059 
    9500    230.17608   -364.44452    216156.16   -20189.736    1457.9863   -21647.722    31.510179   0.96737059 
    9600    237.63873   -399.06088    216156.16   -20190.818    1505.2563   -21696.074    31.673348   0.96737059 
    9700    241.34054   -464.82818    216156.16   -20162.234    1528.7044   -21690.939    31.908262   0.96737059 
    9800    240.44341   -560.92763    216156.16   -20136.491    1523.0218   -21659.513    32.403652   0.96737059 
    9900    232.78467   -403.27339    216156.16    -20160.13    1474.5097    -21634.64    32.759587   0.96737059 
   10000    233.87315   -407.87626    216156.16   -20164.831    1481.4043   -21646.235    32.966284   0.96737059 
Loop time of 16.3551 on 120 procs for 10000 steps with 9422 atoms

Performance: 264.137 ns/day, 0.091 hours/ns, 611.429 timesteps/s
98.0% CPU use with 120 MPI tasks x no OpenMP threads

MPI task timing breakdown:
Section |  min time  |  avg time  |  max time  |%varavg| %total
---------------------------------------------------------------
Pair    | 0.00082469 | 4.3526     | 13.459     | 203.5 | 26.61
Neigh   | 0.0037413  | 0.13377    | 0.48704    |  38.4 |  0.82
Comm    | 0.29445    | 6.1569     | 12.98      | 164.9 | 37.65
Output  | 0.16945    | 0.1696     | 0.17635    |   0.2 |  1.04
Modify  | 0.73307    | 5.385      | 15.726     | 256.6 | 32.93
Other   |            | 0.1572     |            |       |  0.96

Nlocal:    78.5167 ave 208 max 0 min
Histogram: 35 27 15 3 0 0 0 2 16 22
Nghost:    695.958 ave 930 max 528 min
Histogram: 32 2 14 3 26 4 12 7 11 9
Neighs:    0 ave 0 max 0 min
Histogram: 120 0 0 0 0 0 0 0 0 0
FullNghs:  8009.38 ave 25161 max 0 min
Histogram: 68 12 0 0 0 0 0 10 16 14

Total # of neighbors = 961126
Ave neighs/atom = 102.009
Neighbor list builds = 567
Dangerous builds = 0
write_data 	    ${DIR}/data.${NAME}_eq
write_data 	    run_11/data.${NAME}_eq
write_data 	    run_11/data.ibeam_cooling_11_eq

undump              1
unfix               4



################################################
#######         Run Simulation         #########
################################################

reset_timestep      0
timestep	    10.0
log                 ${DIR}/log.run_${NAME}
log                 run_11/log.run_${NAME}
log                 run_11/log.run_ibeam_cooling_11
