

### IMPORT ATOMS ###
read_data ../Box_Setup/data.Ibeam_240K
  orthogonal box = (0 0 0) to (157.504 42.9242 26.8557)
  10 by 5 by 2 MPI processor grid
  reading atoms ...
  9253 atoms
  reading velocities ...
  9253 velocities
group water type 2
1381 atoms in group water
group graphite type 1
7872 atoms in group graphite


# Define potential
#
pair_style          sw
pair_coeff * * MLC_e.sw C mW

# Add velocity/set timestep
#

fix		1 graphite setforce 0.0 0.0 0.0
velocity 	graphite set 0.0 0.0 0.0
velocity            water create ${START_TEMP} ${SEED} rot yes dist gaussian
velocity            water create 240 ${SEED} rot yes dist gaussian
velocity            water create 240 849 rot yes dist gaussian
timestep            5.0

# Define output
#
compute 1 water msd
compute 2 water temp


thermo	            100
thermo_style custom step c_2 press vol etotal ke pe c_1[4] density

# Neighbor lists
#
neigh_modify        delay 0 every 1 check yes


# Set fixes
#
fix                 2 water momentum 10 linear 1 1 1 rescale
fix                 3 all nve
fix                 4 water temp/csvr ${START_TEMP} ${START_TEMP} 500.0 928347
fix                 4 water temp/csvr 240 ${START_TEMP} 500.0 928347
fix                 4 water temp/csvr 240 240 500.0 928347

# Run 0.05 ns equilibration
#
dump                1 all custom 100 ${DIR}/eq.${NAME}.dump id type x y z vx vy vz
dump                1 all custom 100 run_25/eq.${NAME}.dump id type x y z vx vy vz
dump                1 all custom 100 run_25/eq.ibeam_cooling_25.dump id type x y z vx vy vz
run                 10000
Neighbor list info ...
  update every 1 steps, delay 0 steps, check yes
  max neighbors/atom: 2000, page size: 100000
  master list distance cutoff = 6.67472
  ghost atom cutoff = 6.67472
  binsize = 3.33736, bins = 48 13 9
  1 neighbor lists, perpetual/occasional/extra = 1 0 0
  (1) pair sw, perpetual
      attributes: full, newton on
      pair build: full/bin/atomonly
      stencil: full/bin/3d
      bin: standard
Per MPI rank memory allocation (min/avg/max) = 3.369 | 4.254 | 4.745 Mbytes
Step c_2 Press Volume TotEng KinEng PotEng c_1[4] Density 
       0          240   -344.39513    181563.75    -13284.54    987.24429   -14271.784            0    1.0922001 
     100    238.95111   -345.15505    181563.75   -13251.644    982.92968   -14234.573   0.94800739    1.0922001 
     200    234.57757   -395.21488    181563.75   -13274.904    964.93904   -14239.843    1.4132209    1.0922001 
     300    245.59383   -392.59445    181563.75   -13267.211    1010.2546   -14277.466    1.8719584    1.0922001 
     400     240.8999    -347.8572    181563.75   -13280.332    990.94605   -14271.278    2.2212108    1.0922001 
     500    247.22581   -294.28253    181563.75   -13294.215    1016.9678   -14311.183    2.6388692    1.0922001 
     600    236.47435   -396.89599    181563.75    -13381.62    972.74148   -14354.361    3.1064284    1.0922001 
     700    232.56666   -505.16463    181563.75   -13365.817    956.66711   -14322.484    3.4456584    1.0922001 
     800    236.18302    -309.5969    181563.75   -13406.768    971.54306   -14378.311    3.7168039    1.0922001 
     900    244.97106   -439.16721    181563.75   -13385.429    1007.6928   -14393.122    3.9965043    1.0922001 
    1000     244.1555   -273.87511    181563.75   -13351.497     1004.338   -14355.835    4.1987951    1.0922001 
    1100    239.09188   -258.09972    181563.75   -13378.076     983.5087   -14361.584    4.4940842    1.0922001 
    1200    236.49956   -416.15919    181563.75   -13406.835    972.84516    -14379.68    4.7802406    1.0922001 
    1300    235.70492   -334.66341    181563.75   -13357.684     969.5764   -14327.261    4.9403313    1.0922001 
    1400    235.63151   -259.59601    181563.75    -13293.78    969.27442   -14263.054    5.3086159    1.0922001 
    1500    240.27805    -338.7747    181563.75    -13301.74    988.38806   -14290.128    5.5570429    1.0922001 
    1600     247.2875   -396.09758    181563.75   -13278.955    1017.2215   -14296.177    5.8401445    1.0922001 
    1700    239.97857   -325.86898    181563.75   -13298.708    987.15614   -14285.864     6.316481    1.0922001 
    1800    245.65118    -328.3396    181563.75    -13292.35    1010.4905   -14302.841    6.5888235    1.0922001 
    1900    245.23728   -248.87394    181563.75   -13217.261    1008.7879   -14226.049    6.9192239    1.0922001 
    2000     244.4238   -322.49681    181563.75   -13189.466    1005.4417   -14194.907    7.1698549    1.0922001 
    2100    254.18565   -240.73262    181563.75   -13204.178    1045.5972   -14249.776    7.5146007    1.0922001 
    2200    246.71925   -305.64597    181563.75   -13201.298    1014.8841   -14216.182    8.0292698    1.0922001 
    2300    234.00535    -433.0227    181563.75   -13238.001    962.58519   -14200.586    8.4518455    1.0922001 
    2400    245.86358   -498.93084    181563.75   -13236.694    1011.3642   -14248.058    8.7467721    1.0922001 
    2500     245.5579   -387.13899    181563.75   -13230.558    1010.1068   -14240.664    8.9563817    1.0922001 
    2600    236.28733   -360.11571    181563.75   -13272.599    971.97217   -14244.571    9.0666905    1.0922001 
    2700    246.87285   -248.77381    181563.75   -13255.197    1015.5159   -14270.713    9.5858148    1.0922001 
    2800    242.40759   -261.55531    181563.75   -13270.751    997.14797   -14267.899    9.8504951    1.0922001 
    2900    241.61975   -312.83558    181563.75   -13326.011    993.90716   -14319.918    10.056226    1.0922001 
    3000    233.89099   -345.26469    181563.75   -13356.733    962.11478   -14318.847     10.67166    1.0922001 
    3100    239.16407   -453.70934    181563.75   -13354.061    983.80567   -14337.867    10.951303    1.0922001 
    3200    232.60182   -333.55302    181563.75   -13377.374    956.81173   -14334.185    11.188921    1.0922001 
    3300    244.32426   -375.83424    181563.75   -13325.939    1005.0322   -14330.971    11.542919    1.0922001 
    3400    239.58553   -270.86501    181563.75   -13340.068    985.53938   -14325.607    11.934977    1.0922001 
    3500    232.31312   -499.71723    181563.75   -13345.065    955.62418   -14300.689    12.190426    1.0922001 
    3600     242.5179   -350.41126    181563.75   -13330.582     997.6017   -14328.184    12.117139    1.0922001 
    3700    242.91952    -390.3801    181563.75   -13370.455     999.2538   -14369.709    12.390509    1.0922001 
    3800    242.04148   -405.71528    181563.75   -13360.031    995.64197   -14355.673    12.431381    1.0922001 
    3900    241.97171   -220.11375    181563.75   -13381.384    995.35494   -14376.739    12.816699    1.0922001 
    4000    242.52341   -276.04551    181563.75   -13387.144    997.62439   -14384.768    13.275077    1.0922001 
    4100    233.73177   -438.20388    181563.75   -13357.212    961.45979   -14318.672    13.795639    1.0922001 
    4200    241.90192   -268.76375    181563.75   -13328.913    995.06788   -14323.981    13.917432    1.0922001 
    4300    246.06217   -383.26414    181563.75   -13256.031    1012.1812   -14268.212    14.236692    1.0922001 
    4400    251.55976   -405.92419    181563.75   -13263.366    1034.7956   -14298.162    14.806823    1.0922001 
    4500    240.29767   -313.32576    181563.75   -13326.004    988.46876   -14314.472     15.23541    1.0922001 
    4600     237.5713   -431.77548    181563.75   -13346.415    977.25377   -14323.669    15.580308    1.0922001 
    4700    244.33706   -449.53501    181563.75   -13343.787    1005.0848   -14348.872    15.873871    1.0922001 
    4800    242.15329   -527.93154    181563.75   -13322.756    996.10187   -14318.858    15.755298    1.0922001 
    4900    241.69846   -379.64567    181563.75   -13354.545    994.23092   -14348.776    15.982465    1.0922001 
    5000    244.18176   -351.98169    181563.75   -13372.736     1004.446   -14377.182    15.918979    1.0922001 
    5100    243.72415    -264.7811    181563.75   -13390.063    1002.5636   -14392.626    16.431292    1.0922001 
    5200    235.06667   -341.29082    181563.75    -13379.94    966.95094   -14346.891    17.221523    1.0922001 
    5300    226.18891   -588.58521    181563.75   -13415.861    930.43211   -14346.293    17.444595    1.0922001 
    5400     244.6908   -282.42584    181563.75   -13380.272      1006.54   -14386.812    17.495253    1.0922001 
    5500    225.04629   -347.43179    181563.75   -13414.517    925.73194   -14340.249    17.491514    1.0922001 
    5600     241.4272   -314.01226    181563.75    -13429.08    993.11511   -14422.195     17.51541    1.0922001 
    5700    240.52583   -323.17887    181563.75    -13385.14     989.4073   -14374.548    17.918432    1.0922001 
    5800    245.94675   -304.86587    181563.75   -13312.476    1011.7064   -14324.182    17.951157    1.0922001 
    5900    238.06898   -364.07668    181563.75    -13343.37      979.301   -14322.671    18.585349    1.0922001 
    6000    233.20873   -177.15019    181563.75   -13413.639    959.30827   -14372.947    18.895154    1.0922001 
    6100    239.57866   -247.07969    181563.75   -13410.551    985.51108   -14396.062    19.267814    1.0922001 
    6200    239.01936   -284.47129    181563.75   -13384.515    983.21042   -14367.725     19.78903    1.0922001 
    6300    245.50796   -395.22667    181563.75   -13349.934    1009.9014   -14359.835    19.944513    1.0922001 
    6400    240.60386   -425.50267    181563.75   -13347.646    989.72826   -14337.374    20.264561    1.0922001 
    6500    234.43781   -274.35066    181563.75   -13358.002    964.36414   -14322.367    20.414533    1.0922001 
    6600    237.25312   -275.02326    181563.75   -13402.454    975.94494   -14378.398    21.048405    1.0922001 
    6700    235.70056   -271.45773    181563.75   -13424.244    969.55846   -14393.803    21.526434    1.0922001 
    6800    238.77057    -375.7931    181563.75   -13408.166    982.18701   -14390.353    21.795666    1.0922001 
    6900    232.67438   -202.98452    181563.75   -13445.351    957.11021   -14402.461    22.115861    1.0922001 
    7000    231.57711   -401.61672    181563.75   -13430.033    952.59659   -14382.629    22.436671    1.0922001 
    7100    244.85684   -273.24642    181563.75   -13354.356     1007.223   -14361.579    22.442208    1.0922001 
    7200     237.4356   -286.57251    181563.75   -13368.226    976.69556   -14344.921     22.60469    1.0922001 
    7300    239.86266   -257.57181    181563.75   -13430.546    986.67933   -14417.226    22.899297    1.0922001 
    7400    230.84714   -497.76499    181563.75   -13423.795    949.59382   -14373.389    23.359625    1.0922001 
    7500    232.11308   -526.87333    181563.75   -13424.034    954.80132   -14378.836    23.584685    1.0922001 
    7600      226.778    -353.1433    181563.75   -13437.416    932.85537   -14370.271    23.506062    1.0922001 
    7700    229.32596   -334.02153    181563.75   -13426.764    943.33643   -14370.101    23.864191    1.0922001 
    7800    244.43301   -278.65828    181563.75   -13387.528    1005.4796   -14393.007     24.08014    1.0922001 
    7900    240.69879   -150.38901    181563.75     -13379.4    990.11878   -14369.518    24.667266    1.0922001 
    8000    240.20342   -362.24641    181563.75   -13382.986    988.08106   -14371.067    25.167367    1.0922001 
    8100    241.02548   -472.74042    181563.75   -13395.446    991.46263   -14386.908    26.006817    1.0922001 
    8200    227.92964   -510.40608    181563.75   -13413.773    937.59266   -14351.366    26.399443    1.0922001 
    8300    223.75529   -491.60545    181563.75   -13419.093    920.42138   -14339.514     26.33724    1.0922001 
    8400    226.96711   -395.59345    181563.75   -13412.379    933.63326   -14346.012    26.458687    1.0922001 
    8500    238.73021   -256.85525    181563.75   -13389.772    982.02101   -14371.793    26.375734    1.0922001 
    8600    244.54291   -442.14765    181563.75   -13360.757    1005.9316   -14366.688    26.380493    1.0922001 
    8700    233.87651   -279.64044    181563.75   -13408.433    962.05519   -14370.488    26.326665    1.0922001 
    8800     242.6298   -251.02846    181563.75    -13369.49    998.06201   -14367.552    26.661053    1.0922001 
    8900    235.00319   -304.84726    181563.75   -13397.473     966.6898   -14364.162    26.989221    1.0922001 
    9000    247.69291   -354.29902    181563.75    -13365.33    1018.8892   -14384.219    26.884887    1.0922001 
    9100    242.32862   -373.88847    181563.75   -13364.413    996.82311   -14361.236    27.114401    1.0922001 
    9200    237.85255   -335.58709    181563.75   -13396.457    978.41071   -14374.868    27.573725    1.0922001 
    9300    243.16457   -202.87871    181563.75   -13413.388    1000.2618    -14413.65    28.092006    1.0922001 
    9400    244.17764   -335.08931    181563.75   -13421.084    1004.4291   -14425.513    28.296558    1.0922001 
    9500    236.76164   -338.04637    181563.75   -13408.381    973.92323   -14382.305    28.645169    1.0922001 
    9600    233.61155   -606.97388    181563.75   -13472.756    960.96529   -14433.722    28.915388    1.0922001 
    9700    241.32089   -460.21662    181563.75    -13409.44    992.67781   -14402.118     28.82169    1.0922001 
    9800    238.62864    -251.8882    181563.75   -13430.373    981.60319   -14411.977    28.776449    1.0922001 
    9900    238.87722   -306.59225    181563.75   -13380.437    982.62571   -14363.063    29.061547    1.0922001 
   10000    242.53625   -331.17139    181563.75    -13323.49    997.67719   -14321.167    29.677151    1.0922001 
Loop time of 33.0916 on 100 procs for 10000 steps with 9253 atoms

Performance: 130.547 ns/day, 0.184 hours/ns, 302.192 timesteps/s
92.4% CPU use with 100 MPI tasks x no OpenMP threads

MPI task timing breakdown:
Section |  min time  |  avg time  |  max time  |%varavg| %total
---------------------------------------------------------------
Pair    | 0.00088739 | 4.3558     | 12.753     | 234.0 | 13.16
Neigh   | 0.0051651  | 0.15717    | 0.38237    |  31.6 |  0.47
Comm    | 0.25835    | 4.4091     | 14.753     | 196.7 | 13.32
Output  | 0.34716    | 0.38355    | 0.39102    |   2.3 |  1.16
Modify  | 7.2569     | 20.529     | 29.299     | 165.2 | 62.04
Other   |            | 3.257      |            |       |  9.84

Nlocal:    92.53 ave 187 max 0 min
Histogram: 30 0 10 10 0 0 0 4 33 13
Nghost:    793.29 ave 1109 max 579 min
Histogram: 25 5 0 25 13 2 7 12 1 10
Neighs:    0 ave 0 max 0 min
Histogram: 100 0 0 0 0 0 0 0 0 0
FullNghs:  9979.08 ave 23077 max 0 min
Histogram: 34 16 0 0 0 0 3 21 21 5

Total # of neighbors = 997908
Ave neighs/atom = 107.847
Neighbor list builds = 551
Dangerous builds = 0
write_data 	    ${DIR}/data.${NAME}_eq
write_data 	    run_25/data.${NAME}_eq
write_data 	    run_25/data.ibeam_cooling_25_eq

undump              1
unfix               4



################################################
#######         Run Simulation         #########
################################################

reset_timestep      0
timestep	    10.0
log                 ${DIR}/log.run_${NAME}
log                 run_25/log.run_${NAME}
log                 run_25/log.run_ibeam_cooling_25
