
# Set production fixes - Nose/Hoover
#
fix                 4 water temp/csvr ${START_TEMP} ${END_TEMP} 500.0 928347
fix                 4 water temp/csvr 235 ${END_TEMP} 500.0 928347
fix                 4 water temp/csvr 235 225 500.0 928347


## divide "droplet" into core and surface
#region		core_reg cylinder z 135 135 44.6 20 INF units box
#region		surface_reg cylinder z 135 135 44.6 20 INF units box side out
#group		core dynamic all region core_reg
#group		surface dynamic all region surface_reg

## compute pressure core
#compute        peratom_core core stress/atom NULL
#compute        p_core core reduce sum c_peratom_core[1] c_peratom_core[2] c_peratom_core[3]
#variable       press_core equal -(c_p_core[1]+c_p_core[2]+c_p_core[3])/(3*1249982.5)


## compute pressure surface
#compute        peratom_surf surface stress/atom NULL
#compute        p_surf surface reduce sum c_peratom_surf[1] c_peratom_surf[2] #c_peratom_surf[3]
#variable       press_surf equal -(c_p_surf[1]+c_p_surf[2]+c_p_surf[3])/(3*42395)

## compute total pressure of drop
compute        peratom water stress/atom NULL
compute        p water reduce sum c_peratom[1] c_peratom[2] c_peratom[3]
variable       press equal -(c_p[1]+c_p[2]+c_p[3])/(3*50402)


# compute order parameter
compute        3 all orientorder/atom nnn NULL cutoff 3.5

# compute center of mass of bridge
compute 	4 water com

# Run simulation
thermo_style        custom step c_2 press vol etotal ke pe v_press c_1[4] c_4[*]
thermo              200
dump		     1 water custom 400 ${DIR}/prod.${NAME}.dump id type x y z vx vy vz c_3[*] c_peratom[*]
dump		     1 water custom 400 run_19/prod.${NAME}.dump id type x y z vx vy vz c_3[*] c_peratom[*]
dump		     1 water custom 400 run_19/prod.ibeam_cooling_19.dump id type x y z vx vy vz c_3[*] c_peratom[*]
run                 ${STEPS}
run                 4000000
Neighbor list info ...
  update every 1 steps, delay 0 steps, check yes
  max neighbors/atom: 2000, page size: 100000
  master list distance cutoff = 6.67472
  ghost atom cutoff = 6.67472
  binsize = 3.33736, bins = 24 25 11
  2 neighbor lists, perpetual/occasional/extra = 1 1 0
  (1) pair sw, perpetual
      attributes: full, newton on
      pair build: full/bin/atomonly
      stencil: full/bin/3d
      bin: standard
  (2) compute orientorder/atom, occasional, copy from (1)
      attributes: full, newton on
      pair build: copy
      stencil: none
      bin: none
Per MPI rank memory allocation (min/avg/max) = 6.149 | 6.79 | 7.275 Mbytes
Step c_2 Press Volume TotEng KinEng PotEng v_press c_1[4] c_4[1] c_4[2] c_4[3] 
       0    231.92247   -401.78244    216156.16   -20204.612    1469.0482   -21673.661   -1011.8715    29.520363     39.42745    39.231136    23.750536 
     200    234.00692   -451.77284    216156.16   -20250.524    1482.2516   -21732.775   -1300.4993    31.543574    39.427092    39.231173    23.772878 
     400    235.54988   -443.75933    216156.16   -20211.571    1492.0251   -21703.596   -1199.5104    32.693368    39.427102    39.229931    23.778037 
     600    241.82216   -390.56233    216156.16   -20110.055    1531.7551    -21641.81   -1010.6407    33.407292    39.426217    39.227813    23.786257 
     800    234.03495   -376.27527    216156.16   -20132.975    1482.4292   -21615.404   -962.26474    34.364115    39.425368    39.227971    23.780267 
    1000    229.73839   -414.97182    216156.16   -20212.116    1455.2138    -21667.33   -1096.5884    35.606515    39.426803    39.227782    23.762764 
    1200    228.73125    -398.7585    216156.16   -20192.872    1448.8344   -21641.706   -1035.0901     35.96912    39.425157     39.22963    23.749169 
    1400    236.77342   -491.51215    216156.16   -20162.598    1499.7753   -21662.373   -1427.6043    37.219448    39.425457    39.234472    23.737574 
    1600    239.91471    -439.7471    216156.16   -20165.187    1519.6729    -21684.86   -1211.9341     38.21544    39.425704    39.234717    23.738376 
    1800     240.2087    -287.3371    216156.16    -20147.56    1521.5351   -21669.095   -555.42255    39.412766    39.426643    39.234803    23.742624 
    2000    237.89258   -393.32021    216156.16    -20041.61    1506.8642   -21548.474   -1005.8356    40.552755    39.426955    39.232881    23.723328 
    2200    237.77589   -434.92149    216156.16   -20133.716    1506.1251   -21639.841   -1188.5715    42.750917    39.425904    39.233101    23.730908 
    2400    234.17226   -437.03022    216156.16     -20151.4    1483.2989   -21634.699   -1195.7296    43.710021    39.426463    39.232418    23.727371 
    2600    229.59318   -483.16786    216156.16   -20177.152    1454.2941   -21631.446   -1355.3462    43.996946    39.426987    39.233607    23.719203 
    2800    243.68459   -378.59064    216156.16   -20083.387    1543.5521   -21626.939   -977.15975    45.838212    39.426459    39.233821    23.726103 
    3000     234.6674   -321.69258    216156.16   -20113.706    1486.4352   -21600.141   -687.75177    47.320393    39.428141    39.234619     23.71576 
    3200    235.77743   -323.01113    216156.16   -20220.325    1493.4665   -21713.792   -691.66371    47.791556    39.428132    39.235432    23.708901 
    3400    230.59555   -281.72704    216156.16   -20216.202    1460.6433   -21676.846   -492.24347    48.205428    39.427609    39.232754    23.718562 
    3600    231.01083   -413.57486    216156.16   -20221.906    1463.2737    -21685.18   -1067.9938    48.733739    39.426316    39.232729    23.701259 
    3800    236.25517   -178.24856    216156.16   -20145.692    1496.4925   -21642.185   -145.15917    49.437359    39.426915    39.233254    23.713528 
    4000    235.06762   -421.14701    216156.16   -20172.209    1488.9703   -21661.179   -1099.9466     51.26896    39.426074    39.233397    23.724016 
    4200    236.27216   -319.58112    216156.16   -20112.709    1496.6001   -21609.309   -722.53337    51.474518    39.425367    39.233767    23.748953 
    4400    237.25638   -440.79255    216156.16   -20143.363    1502.8344   -21646.198   -1204.3009    52.567312    39.424163    39.232945    23.748058 
    4600    229.97411   -262.19903    216156.16   -20243.797    1456.7069   -21700.504   -455.43734    53.534684    39.422349    39.231815    23.732636 
    4800    234.78041   -317.25075    216156.16   -20124.987    1487.1511   -21612.138   -694.93828    54.305175    39.421809    39.230743    23.703289 
    5000     228.3404   -519.92297    216156.16    -20135.38    1446.3586   -21581.738   -1552.9042      56.3886    39.420993     39.22833    23.715181 
    5200    235.25003   -253.53962    216156.16   -20161.771    1490.1258   -21651.897   -407.48856    59.038733    39.421102    39.228852    23.734119 
    5400    233.27616   -432.53847    216156.16   -20215.236    1477.6228   -21692.858   -1184.2172    59.989733    39.420103    39.230291    23.740989 
    5600    233.96902   -507.25745    216156.16   -20216.825    1482.0116   -21698.836   -1476.5727      61.3596    39.419854    39.232008    23.745462 
    5800    242.98319   -394.60362    216156.16   -20145.965    1539.1093   -21685.075   -1011.8796    62.381346    39.422507    39.233188     23.74661 
    6000    230.49421    -309.2064    216156.16   -20221.754    1460.0013   -21681.755    -647.2067    64.059067    39.422551    39.233314    23.728458 
    6200     233.9686   -378.52218    216156.16   -20236.127    1482.0089   -21718.136   -955.88982    65.696566    39.422324    39.233412    23.734943 
    6400    232.04473   -410.52827    216156.16   -20244.828    1469.8227    -21714.65   -1095.5898    67.828722    39.419598    39.231667    23.764367 
    6600    235.09146   -260.00906    216156.16   -20238.982    1489.1214   -21728.104   -455.54757    67.665799     39.41997    39.231473    23.796125 
    6800     232.0591   -314.96112    216156.16   -20242.163    1469.9137   -21712.077   -635.42131    67.995174    39.421393    39.230467    23.786742 
    7000    236.00523   -355.42492    216156.16   -20202.307    1494.9094   -21697.216   -852.34115    68.452906    39.421654    39.232472    23.769873 
    7200    229.91734   -368.76057    216156.16     -20284.7    1456.3473   -21741.047   -975.07555    69.854378    39.423199    39.234604    23.782444 
    7400    227.42543   -372.98217    216156.16   -20260.863     1440.563   -21701.426   -933.59696    70.394131    39.427579    39.235932     23.77075 
    7600    237.14983   -294.70291    216156.16   -20155.711    1502.1595    -21657.87    -555.5869    71.104113     39.42618    39.235899      23.7724 
    7800    234.55581   -396.96475    216156.16    -20271.68    1485.7284   -21757.408   -1012.8036    73.459015    39.423105    39.237303    23.778645 
    8000      236.234   -432.41132    216156.16   -20166.881    1496.3585    -21663.24   -1180.0102    74.530386    39.420999    39.236942    23.769764 
    8200    238.19748   -302.12992    216156.16    -20190.14    1508.7956   -21698.935   -642.64721    75.181887    39.417003    39.238579    23.778776 
    8400    239.64092   -483.15457    216156.16    -20157.75    1517.9387   -21675.689   -1402.2438    76.734392    39.416826     39.23695    23.790501 
    8600    234.26925    -462.5802    216156.16    -20221.94    1483.9133   -21705.853   -1337.0038    77.733389    39.417338    39.235895       23.778 
    8800    231.60964   -432.57452    216156.16   -20241.767    1467.0667   -21708.834   -1187.3092    78.294487    39.419278    39.236156    23.800303 
    9000     230.4113   -530.76728    216156.16   -20217.513    1459.4762   -21676.989   -1587.0345    79.133663    39.421953    39.237718      23.7999 
    9200    238.53555   -408.16914    216156.16   -20164.399     1510.937   -21675.336   -1087.3273    79.684416    39.423095    39.236125    23.786249 
    9400    236.64751   -317.09011    216156.16   -20173.097    1498.9777   -21672.075   -734.57729    80.562648    39.423083    39.236734     23.78253 
    9600     233.8748   -288.69793    216156.16   -20197.604    1481.4147   -21679.019   -538.05731    81.848051    39.423652    39.236859    23.792631 
    9800     237.8818   -571.40344    216156.16   -20132.379     1506.796   -21639.175   -1853.7689    83.386491    39.427325    39.233906    23.776332 
   10000    239.15189    -544.6191    216156.16   -20172.751     1514.841   -21687.592   -1677.4524    83.608155    39.428989      39.2343    23.760631 
   10200    241.05084   -296.62833    216156.16   -20121.179    1526.8694   -21648.049     -603.114    85.215632      39.4299    39.234678    23.750244 
   10400    237.04453   -385.24102    216156.16   -20146.061    1501.4925   -21647.554   -1028.7976    86.688697    39.429158    39.234127     23.73736 
   10600     236.5662   -395.85304    216156.16   -20221.036    1498.4627   -21719.498   -1024.1298    88.497688    39.427377    39.233346    23.736186 
   10800    225.56933   -310.84299    216156.16   -20283.787    1428.8061   -21712.593   -643.76577    90.056639    39.426759    39.232641    23.728064 
   11000    230.24872   -349.77307    216156.16   -20273.953    1458.4464     -21732.4   -866.57154    91.140522      39.4273    39.230922    23.739959 
   11200    228.77214   -372.37362    216156.16   -20230.776    1449.0934   -21679.869   -939.54178    92.731119    39.428206    39.230025    23.732184 
   11400    228.29979   -240.82887    216156.16   -20198.967    1446.1014   -21645.068   -404.20162    92.544557    39.429977    39.229012    23.737234 
   11600    243.85281   -271.85813    216156.16   -20076.646    1544.6177   -21621.263   -491.70844    94.380873    39.431401    39.227431    23.756795 
   11800    234.96686   -428.28755    216156.16   -20102.066    1488.3321   -21590.398   -1183.2749    96.497414    39.433235    39.228234    23.761105 
   12000     238.6924   -277.73287    216156.16    -20103.02    1511.9305   -21614.951   -544.14651    97.312547    39.433794    39.225588    23.745375 
   12200    240.50445   -574.62751    216156.16   -20131.258    1523.4084   -21654.666   -1785.8382    98.355173    39.434867    39.222155    23.729889 
   12400    244.72447   -543.86986    216156.16   -20163.365    1550.1389   -21713.504   -1615.4537    99.321535    39.433344    39.219644    23.732481 
   12600    238.73351   -514.25715    216156.16   -20104.372    1512.1909   -21616.563   -1577.7421    100.24821    39.432947    39.220269    23.708108 
   12800    236.35542   -309.26532    216156.16   -20181.177    1497.1275   -21678.305   -646.86584    100.51643    39.435022    39.219708    23.688779 
   13000    234.35847   -387.51332    216156.16   -20211.241    1484.4785    -21695.72   -987.13117    100.48936    39.437589     39.21886     23.69659 
   13200    236.13738   -458.03283    216156.16   -20239.622    1495.7464   -21735.369   -1287.6458    101.95856    39.437603    39.216538    23.671071 
   13400    226.22826    -350.8488    216156.16   -20312.684    1432.9799   -21745.664   -872.76209    102.97699    39.437471    39.217338    23.655812 
   13600     229.1122   -294.68187    216156.16   -20267.652    1451.2474     -21718.9   -559.03403    103.10915    39.437772    39.216863    23.638298 
   13800    233.74121   -546.41968    216156.16   -20202.514    1480.5685   -21683.082   -1703.7643    105.05201    39.438269    39.216453    23.614839 
   14000    241.57173   -527.19094    216156.16   -20116.814    1530.1688   -21646.983   -1581.1944    106.57906    39.438213    39.216855    23.598628 
   14200    238.45679   -453.64595    216156.16   -20156.101    1510.4381   -21666.539    -1303.926    106.83356    39.438449    39.218153    23.585185 
   14400    234.26471   -319.89268    216156.16   -20181.958    1483.8845   -21665.843   -694.94485    108.19038    39.438381    39.216466    23.582828 
   14600    236.11326    -407.2287    216156.16   -20159.468    1495.5936   -21655.061   -1075.3914    109.85184    39.438661    39.215842    23.593802 
   14800     238.8171   -464.36261    216156.16   -20105.028    1512.7204   -21617.749   -1330.7208    110.95709    39.438085    39.215794     23.56857 
   15000    231.49711   -494.29041    216156.16   -20192.237    1466.3539   -21658.591   -1483.2407    112.22345    39.435751    39.214791    23.560529 
   15200     233.5593   -348.39776    216156.16    -20109.78    1479.4163   -21589.196   -853.84271    112.83008    39.432523    39.215733    23.564166 
   15400    234.85656   -373.46724    216156.16     -20174.4    1487.6334   -21662.033    -942.6812    113.46807    39.430546    39.215185    23.555131 
   15600    236.81632   -448.26204    216156.16    -20053.03     1500.047   -21553.077   -1262.8007    115.78245    39.431063    39.216413    23.555626 
   15800    236.06463   -452.44162    216156.16   -20123.169    1495.2856   -21618.454   -1271.5688    116.67682    39.431621    39.215437    23.558709 
   16000    239.40429   -326.78304    216156.16   -20151.279    1516.4398   -21667.718   -785.53509    118.18829    39.432173    39.215075    23.585452 
   16200    233.37378   -423.67202    216156.16   -20098.038    1478.2412   -21576.279   -1161.6461    118.87577    39.431313    39.214083    23.580568 
   16400    236.91445   -294.44707    216156.16   -20148.342    1500.6686   -21649.011    -596.4316    119.42499    39.432614    39.213136    23.575066 
   16600    234.45993   -338.50492    216156.16   -20068.928    1485.1211   -21554.049   -808.11917    119.77272    39.430504    39.213041    23.565746 
   16800    235.67512   -287.84434    216156.16   -20150.091    1492.8184   -21642.909   -560.47678    122.45331    39.431905      39.2125    23.585115 
   17000    240.26572   -156.16212    216156.16   -20236.809    1521.8963   -21758.705    21.440726    122.53137    39.431894    39.212929    23.587475 
   17200    233.84117   -421.27897    216156.16   -20272.837    1481.2017   -21754.038   -1157.5314    122.95307    39.429357    39.214509    23.602085 
   17400    225.42598   -341.62164    216156.16   -20336.839    1427.8981   -21764.737   -767.12377    124.15202    39.428893     39.21572    23.592395 
   17600    235.33335   -313.74089    216156.16   -20262.456    1490.6536   -21753.109   -680.75915    124.27506    39.431179    39.215472    23.614241 
   17800    232.46119   -312.76896    216156.16   -20272.044    1472.4606   -21744.504   -727.53232    126.28236    39.429366    39.215245    23.601987 
   18000    234.94695   -451.61109    216156.16   -20180.853     1488.206   -21669.059   -1314.8442    126.62172    39.429118    39.215357    23.609697 
   18200    234.55659   -315.66218    216156.16   -20166.185    1485.7334   -21651.918   -663.08049    127.37416    39.430757    39.213036    23.632242 
   18400    241.98408   -396.00156    216156.16   -20154.469    1532.7807    -21687.25   -1059.5572    128.21894    39.431585    39.215255    23.631463 
   18600    242.08467   -357.41837    216156.16   -20147.472    1533.4179    -21680.89   -859.20669    129.08431    39.436436    39.214551    23.637002 
   18800    234.93438   -327.83979    216156.16   -20199.141    1488.1264   -21687.268   -731.83048    129.91786    39.438443    39.211954     23.64676 
   19000    238.23339   -203.20047    216156.16   -20146.802     1509.023   -21655.825    -233.3548    130.41041    39.441031    39.209591    23.616644 
   19200    232.89113   -286.88817    216156.16   -20169.007     1475.184   -21644.191   -563.21787    130.74947    39.442056    39.208992    23.588367 
   19400     228.8213   -331.08847    216156.16   -20084.643    1449.4047   -21534.048   -752.19069    133.24059    39.445183     39.20876    23.585129 
   19600    234.08128   -377.22503    216156.16   -20122.817    1482.7226   -21605.539   -941.96617    135.20183    39.449792    39.207925    23.581744 
   19800      236.835   -416.33189    216156.16   -20137.681    1500.1653   -21637.846   -1114.2653    136.21608    39.450892    39.207783    23.557851 
   20000    233.17866   -252.14736    216156.16   -20205.498    1477.0052   -21682.503   -425.15879    137.09704    39.453216    39.210235    23.572396 
   20200    230.11241   -284.33869    216156.16   -20237.888     1457.583   -21695.471   -584.88774    137.88951    39.452549    39.212681    23.600307 
   20400    244.46479   -304.10846    216156.16    -20158.24    1548.4941   -21706.734   -628.13481    138.63565    39.453563    39.214137     23.58318 
   20600    230.17607    -111.6852    216156.16    -20263.34    1457.9862   -21721.326    193.12443    140.01701     39.45546    39.213583    23.598413 
   20800    241.24717   -356.10699    216156.16   -20178.206     1528.113   -21706.319   -859.11893    141.45355    39.454981    39.213585    23.610646 
   21000     236.9656   -359.14625    216156.16    -20224.21    1500.9926   -21725.203   -889.59978    142.80014    39.452597    39.212272    23.606351 
   21200    238.57933    -340.2984    216156.16   -20185.606    1511.2143    -21696.82   -777.55862    142.34013    39.450323    39.212253    23.605843 
   21400    239.23668   -343.48817    216156.16   -20222.232    1515.3781    -21737.61    -790.4745     144.3273    39.449414    39.215678    23.602944 
   21600    240.35878   -363.80242    216156.16   -20111.693    1522.4857   -21634.179   -918.93582    145.74457    39.447583    39.219052    23.616131 
   21800    233.09394   -481.66314    216156.16   -20192.163    1476.4686   -21668.631   -1391.8465    146.05986    39.446417    39.219635    23.628787 
   22000    236.99175   -366.37983    216156.16   -20264.709    1501.1582   -21765.867    -908.9675    148.52335    39.447407    39.219114    23.624808 
   22200     226.6711   -256.73996    216156.16   -20317.787    1435.7849   -21753.572   -444.50247    148.75991    39.447968    39.218632    23.608027 
   22400    238.84655   -461.90588    216156.16   -20150.614    1512.9069    -21663.52   -1287.2512    148.55349    39.446141    39.217215    23.603255 
   22600    237.87864   -427.40183    216156.16   -20181.429    1506.7759   -21688.205   -1157.7467    150.80585    39.444647    39.215758    23.625022 
   22800    243.60214   -287.69354    216156.16   -20151.973    1543.0299   -21695.003   -615.39907    152.29346    39.443776    39.215192    23.629173 
   23000    229.04677   -372.82857    216156.16   -20195.485    1450.8329   -21646.318   -969.71125    154.26225    39.442827    39.217668     23.59095 
   23200    239.62675    -206.1435    216156.16   -20173.313    1517.8489   -21691.162   -209.71696    155.37947    39.441684    39.215769    23.624977 
   23400    238.24796   -229.72972    216156.16   -20202.251    1509.1153   -21711.367   -328.13063     155.5283    39.441018    39.215878    23.626097 
   23600    241.44007   -451.12638    216156.16   -20131.768    1529.3349   -21661.103   -1299.2457     156.4335    39.440115     39.21283    23.597974 
   23800     238.0704   -469.01254    216156.16   -20101.752    1507.9906   -21609.742   -1367.1561    158.38308    39.440121    39.214208    23.591403 
   24000    229.24635   -313.69359    216156.16   -20137.496    1452.0972   -21589.593    -664.9101    161.39769    39.441974    39.214648    23.585036 
   24200    235.27918   -339.98864    216156.16   -20132.977    1490.3104   -21623.287    -796.0863    163.94413    39.443044    39.217049    23.568775 
   24400    231.39409   -447.04222    216156.16   -20201.322    1465.7014   -21667.023   -1268.9339    164.96218    39.444932    39.216137    23.580861 
   24600    233.18395   -267.13389    216156.16   -20241.719    1477.0387   -21718.758    -429.1375     165.3986    39.446285     39.21312    23.595648 
   24800    228.56281   -403.18022    216156.16    -20241.93    1447.7674   -21689.697   -1041.5172    167.19927    39.444299    39.215212    23.609125 
   25000    234.18407   -202.17143    216156.16   -20244.175    1483.3738   -21727.549    -206.0746    167.50894    39.442738    39.215192    23.612521 
   25200    225.70957   -393.02336    216156.16    -20351.69    1429.6944   -21781.384    -1036.382    168.76916    39.441736    39.217022    23.602754 
   25400     238.8154   -318.58161    216156.16   -20247.762    1512.7096   -21760.471    -741.8363    171.37694    39.442288    39.216973    23.620086 
   25600     243.9701   -276.01625    216156.16   -20132.172    1545.3606   -21677.533   -535.64581    174.01679    39.439873    39.219819    23.618251 
   25800    245.03652   -377.24179    216156.16   -20165.959    1552.1156   -21718.075   -970.37364    174.16024    39.438616    39.218768    23.623522 
   26000    232.51632   -517.60255    216156.16   -20189.834    1472.8098   -21662.644   -1576.6737    174.67397    39.438445    39.219564    23.633991 
   26200    235.31421   -400.50155    216156.16   -20212.735    1490.5323   -21703.267   -1075.9379    174.04565    39.436215    39.219518    23.658513 
   26400    233.40407   -322.57381    216156.16   -20269.565     1478.433   -21747.998   -747.35436    174.86941    39.435323    39.220769    23.675318 
   26600    234.85613    -374.8087    216156.16   -20162.135    1487.6307   -21649.765   -940.64484     176.4858    39.433478    39.221092    23.683926 
   26800    236.44683   -335.97076    216156.16   -20186.074    1497.7065    -21683.78   -786.80301     177.4102    39.432043    39.219211    23.705869 
   27000    232.20023   -371.44201    216156.16   -20123.875    1470.8077   -21594.682   -971.49181    177.66496     39.43016    39.217451    23.688363 
   27200    236.45497   -370.89606    216156.16   -20147.785    1497.7581   -21645.543   -893.09261    178.23896    39.427282    39.217708    23.673125 
   27400    233.03923   -425.96534    216156.16   -20115.609    1476.1221   -21591.731    -1168.324    179.29527     39.42523    39.218496    23.683409 
   27600    230.40114   -300.84103    216156.16   -20261.572    1459.4118   -21720.983    -638.5468    180.16308    39.421686    39.218688    23.682861 
   27800    242.77926   -434.38158    216156.16   -20158.088    1537.8176   -21695.905   -1193.5665    181.77285    39.422129    39.218951    23.664618 
   28000    229.03745   -468.89842    216156.16   -20232.902    1450.7739   -21683.676   -1330.6313    182.03268    39.422179    39.218965     23.66669 
   28200    232.16701   -344.05902    216156.16   -20232.019    1470.5972   -21702.616   -841.03662    181.94465    39.420824    39.219377     23.63955 
   28400    233.40802   -468.15849    216156.16   -20225.916    1478.4581   -21704.374   -1335.6247    183.19558    39.422077    39.219764    23.656854 
   28600    234.89295   -452.07324    216156.16   -20238.832    1487.8639   -21726.695   -1235.9079    183.97983    39.423646    39.220455     23.64036 
   28800     232.7062   -492.96526    216156.16   -20228.798    1474.0126    -21702.81   -1421.4694    184.78007    39.424283    39.221792    23.635882 
   29000    239.46718    -312.3396    216156.16   -20204.854    1516.8381   -21721.692   -667.93095    186.05769    39.426054    39.223912    23.629057 
   29200    237.57594   -332.59819    216156.16   -20171.704    1504.8586   -21676.562   -815.35429    189.00286    39.424697     39.22533    23.654426 
   29400    231.62342   -239.59955    216156.16   -20211.958     1467.154   -21679.112   -385.24427    190.01686    39.424089    39.224265     23.66692 
   29600    233.64192   -435.42465    216156.16   -20197.401    1479.9397   -21677.341   -1177.0403    192.74875    39.424587    39.223488    23.683609 
   29800    228.62048      -225.12    216156.16   -20255.901    1448.1327   -21704.034   -312.59952    192.43204    39.426419    39.223965    23.665942 
   30000     227.0501   -403.26031    216156.16    -20283.06    1438.1856   -21721.245    -1079.423    193.01479     39.42661    39.223189    23.649704 
   30200      233.516   -229.19582    216156.16   -20244.344     1479.142   -21723.486   -326.50836    194.26445    39.428781    39.221003    23.647923 
   30400    234.24975   -413.11324    216156.16   -20232.871    1483.7898   -21716.661   -1060.5222    196.56452    39.430268    39.217157    23.654828 
   30600    233.26076   -390.16611    216156.16   -20278.207    1477.5253   -21755.732   -1010.1299    197.05652    39.431922    39.214507    23.635534 
   30800    233.03096    -334.0892    216156.16   -20231.013    1476.0697   -21707.083   -715.58586    197.09238    39.433298    39.215989    23.618262 
   31000    231.88693   -371.81249    216156.16   -20227.292    1468.8232   -21696.115   -901.93293    199.19024    39.432677    39.216885    23.627195 
   31200    240.42158   -331.38009    216156.16   -20197.705    1522.8835   -21720.588   -715.91298    200.45077     39.43302    39.219926    23.637329 
   31400    235.46763   -395.99664    216156.16   -20163.767    1491.5041   -21655.271   -1010.0973    202.44517    39.434533    39.220933    23.652237 
   31600    231.49008   -243.60285    216156.16   -20216.842    1466.3094   -21683.151   -314.13781    202.84646    39.436674     39.22264    23.646776 
   31800    239.41975   -444.99257    216156.16   -20138.251    1516.5377   -21654.788   -1233.0806    205.74886    39.434513    39.221149    23.637166 
   32000    230.76513   -205.76088    216156.16   -20225.034    1461.7174   -21686.752   -219.61374    206.23545    39.438826    39.219454    23.643502 
   32200    227.24013   -521.85927    216156.16   -20189.996    1439.3893   -21629.385   -1539.8979    205.84966    39.437464    39.219234    23.669823 
   32400     236.2289    -379.7357    216156.16    -20179.05    1496.3261   -21675.376   -959.75655    206.28973    39.437741    39.220943    23.653707 
   32600    238.19387   -443.14888    216156.16   -20072.046    1508.7727   -21580.819    -1231.767    204.87614    39.438046    39.221529     23.67221 
   32800     242.0372   -339.36147    216156.16   -20097.569    1533.1172   -21630.686   -791.14115    207.80962    39.439265    39.221557    23.647562 
   33000    244.78495    -316.2821    216156.16   -20113.734     1550.522   -21664.256   -725.84633    209.41154    39.438769    39.222897    23.619845 
   33200    237.94942   -483.10277    216156.16    -20165.02    1507.2243   -21672.245   -1389.1826    211.14171    39.442251    39.224506     23.63781 
   33400    236.44538   -208.43917    216156.16   -20203.525    1497.6973   -21701.222   -231.43404    212.43794    39.444227    39.224195    23.624243 
   33600    229.88933   -327.69077    216156.16   -20212.049    1456.1699   -21668.219   -725.15465    213.85775     39.44446    39.223008    23.611975 
   33800    243.07535   -485.02975    216156.16   -20091.064    1539.6931   -21630.757    -1437.457     214.5831    39.444123    39.223071    23.607901 
   34000    232.61124   -346.57502    216156.16   -20191.705    1473.4111   -21665.116   -822.76642    215.30687     39.44227    39.222961    23.612114 
   34200    237.54095   -533.85923    216156.16   -20182.667    1504.6369   -21687.304    -1637.156    216.47919    39.440084    39.223904    23.603462 
   34400    234.91054   -381.46512    216156.16   -20216.002    1487.9754   -21703.977   -960.45617    216.62379    39.440584    39.224891    23.609529 
   34600    242.33177    -416.4159    216156.16   -20077.278    1534.9831   -21612.261   -1131.3111    218.81525     39.44264    39.225384    23.622968 
   34800    233.24478   -490.62245    216156.16   -20151.395    1477.4241   -21628.819   -1442.3908    221.09552    39.440319    39.226476    23.610398 
   35000    237.37441   -336.18158    216156.16    -20190.62     1503.582   -21694.202   -786.59568    223.33892    39.439773    39.227715     23.61429 
   35200    242.03374    -377.1092    216156.16   -20113.021    1533.0953   -21646.116   -943.10361    221.06601    39.439877    39.228243    23.605319 
   35400    241.28076   -311.62371    216156.16   -20124.084    1528.3258    -21652.41   -708.33556    220.01464    39.439177    39.227949    23.616735 
   35600    236.09512   -328.79016    216156.16   -20143.853    1495.4787   -21639.332   -708.30134    221.94961    39.441002    39.229791    23.630484 
   35800    238.57475   -337.92037    216156.16   -20047.614    1511.1853     -21558.8   -748.24372    223.10033    39.441226    39.229149    23.619046 
   36000    230.45285   -532.19954    216156.16   -20204.846    1459.7393   -21664.585   -1580.5845    224.07358    39.441316    39.228628    23.630554 
   36200    231.73568   -334.37778    216156.16   -20215.087    1467.8651   -21682.952   -725.92228    224.24766    39.440074    39.229823      23.6263 
   36400    235.32735   -438.04378    216156.16   -20175.808    1490.6155   -21666.424    -1226.366    224.57451    39.440226    39.230114    23.618213 
   36600    236.52765   -351.40718    216156.16   -20144.319    1498.2185   -21642.538   -826.98007    227.22972    39.441785    39.231293    23.604516 
   36800    234.99394   -191.94219    216156.16   -20195.101    1488.5037   -21683.604   -122.86666    228.47334    39.444437    39.233979    23.603613 
   37000    229.36179    -347.9386    216156.16     -20195.1    1452.8284   -21647.929   -828.10586    229.87883    39.448796    39.233224    23.575914 
   37200    225.23375   -411.38494    216156.16   -20215.812    1426.6804   -21642.492   -1073.6128    230.05646    39.450132    39.234204    23.581459 
   37400    234.17332   -500.83999    216156.16   -20256.789    1483.3057   -21740.095   -1485.0692    232.30688     39.44686    39.234661    23.598661 
   37600    228.11614   -480.66847    216156.16   -20281.811    1444.9381   -21726.749    -1371.909    233.70729    39.447321    39.233398     23.59496 
   37800    231.19228   -363.24713    216156.16   -20307.341    1464.4231   -21771.764   -913.53707    233.26177    39.445625    39.232751     23.60072 
   38000    234.95001   -439.62482    216156.16   -20243.785    1488.2254   -21732.011   -1165.7938    235.34086    39.444379    39.233534    23.617213 
   38200    231.20644   -545.74237    216156.16   -20228.071    1464.5128   -21692.584   -1667.0022    236.66803    39.446408    39.232077    23.628155 
   38400    235.62209   -353.10008    216156.16    -20187.61    1492.4825   -21680.093   -821.65756    235.59991    39.447493    39.232288    23.630946 
   38600    240.68317   -378.16786    216156.16    -20242.32    1524.5405    -21766.86   -1002.2598    236.54235    39.449949    39.234285    23.647563 
   38800    235.08078   -253.40878    216156.16    -20219.12    1489.0537   -21708.174   -412.02562    237.48157    39.450741    39.234093     23.65001 
   39000    239.67531    -347.6451    216156.16   -20166.443    1518.1564   -21684.599   -827.60248    238.33679    39.452358    39.233285    23.645071 
   39200    236.12387   -452.07971    216156.16   -20236.977    1495.6609   -21732.638    -1262.408    239.29585    39.454329    39.231827    23.638597 
   39400    237.19677   -384.50596    216156.16   -20186.613    1502.4568    -21689.07   -962.17549    238.87636    39.457243    39.232154    23.658796 
   39600    240.32436   -462.23843    216156.16   -20136.813    1522.2677    -21659.08   -1293.7788    240.47762    39.457011    39.234076    23.683945 
   39800        234.8    -475.1838    216156.16   -20202.076    1487.2752   -21689.351    -1361.122    242.44054     39.45879    39.234142    23.673196 
   40000    231.00299   -350.51992    216156.16   -20165.913    1463.2241   -21629.137   -833.54669    243.83929    39.456754    39.236568     23.68692 
   40200    235.06461   -306.86396    216156.16   -20180.361    1488.9513   -21669.313   -660.49838     243.2989    39.457805    39.236721    23.709396 
   40400    230.61072    -260.7619    216156.16   -20195.378    1460.7393   -21656.117   -484.05598    245.41524    39.456241    39.237351    23.703931 
   40600     235.2436   -302.40877    216156.16   -20129.552    1490.0851   -21619.637   -682.79282    246.78201    39.455433    39.239152    23.699832 
   40800    237.50016   -497.50993    216156.16    -20230.34    1504.3786   -21734.718   -1464.9407    248.44307    39.453125    39.239239    23.696344 
   41000    232.66131   -407.03557    216156.16   -20262.629    1473.7283   -21736.358   -1095.5095    248.17401    39.453954    39.238074    23.705017 
   41200    235.26687   -424.30666    216156.16   -20169.665    1490.2324   -21659.898   -1157.3747    250.49923    39.453577    39.237116    23.701284 
   41400    237.29888   -414.55929    216156.16    -20202.05    1503.1036   -21705.153   -1083.9953    252.57018    39.453477    39.236099    23.685427 
   41600    234.28234   -398.27283    216156.16   -20198.569    1483.9962   -21682.565   -1024.0507     253.8984    39.454988    39.235869    23.698819 
   41800    239.46148   -301.96476    216156.16   -20213.791     1516.802   -21730.593   -606.66271    255.91127    39.455316    39.235512    23.693749 
   42000    235.64569   -365.91155    216156.16   -20236.434    1492.6319   -21729.065   -963.98922    254.20814    39.456037     39.23453    23.693424 
   42200    231.06523   -359.31167    216156.16   -20297.439    1463.6183   -21761.058   -859.70022    253.27896    39.459624    39.232752    23.666112 
   42400    235.41958   -453.01018    216156.16   -20248.403    1491.1997   -21739.603   -1266.2527    253.40695    39.459915    39.230291    23.681908 
   42600     232.2955   -316.41633    216156.16   -20300.074    1471.4111   -21771.485   -693.68341    255.10121    39.458622    39.227902    23.664757 
   42800    241.43244     -430.586    216156.16   -20246.208    1529.2865   -21775.494   -1175.1297    255.59438    39.458472    39.226805    23.663607 
   43000    237.16135   -235.07996    216156.16    -20255.64    1502.2325   -21757.872   -323.95835     255.4667    39.460955      39.2263    23.680988 
   43200    231.42667   -507.12355    216156.16   -20264.142    1465.9077    -21730.05   -1458.9972    256.84573    39.461364    39.228588    23.700395 
   43400    232.97393   -349.14549    216156.16   -20232.829    1475.7084   -21708.537   -813.42758    259.97394    39.460299    39.228748     23.71842 
   43600    233.74914   -396.29563    216156.16   -20241.494    1480.6188   -21722.113   -1022.3181    260.19168    39.457643    39.229766    23.720465 
   43800    231.52548   -318.45456    216156.16   -20262.878    1466.5336   -21729.411   -727.97203    260.67889    39.456346    39.232524    23.713581 
   44000    235.33837   -211.37428    216156.16   -20290.926    1490.6853   -21781.611   -263.75443    264.73761    39.455159    39.234341    23.731099 
   44200    233.16751   -495.88132    216156.16   -20246.854    1476.9346   -21723.788   -1491.3549    264.11363    39.455357    39.236096    23.743256 
   44400     231.9466    -345.2396    216156.16    -20254.25    1469.2011   -21723.451   -800.36496    264.86504    39.457755    39.236522    23.731699 
   44600    234.68068   -404.02635    216156.16    -20268.79    1486.5194    -21755.31   -1059.3073    263.87537    39.456497    39.235993     23.72729 
   44800    231.17138   -293.27504    216156.16   -20285.179    1464.2907    -21749.47   -594.03482    265.63143    39.454496    39.237708    23.757383 
   45000    238.06799   -402.91424    216156.16   -20224.907    1507.9753   -21732.882   -1047.1348    265.68205    39.456962    39.239907    23.746913 
   45200    237.60407   -459.70718    216156.16   -20215.951    1505.0368   -21720.988   -1262.8766    266.20635    39.459863    39.238032    23.747513 
   45400    228.22862   -344.45729    216156.16   -20285.937    1445.6506   -21731.588    -822.4936    267.56288    39.460516     39.23547    23.752057 
   45600    244.41832   -414.17409    216156.16   -20203.529    1548.1998   -21751.729    -1098.242    267.44827    39.458858     39.23487    23.742859 
   45800    234.10136   -288.82504    216156.16   -20227.269    1482.8498   -21710.119   -556.92286    267.19222    39.457632    39.239505    23.760858 
   46000    235.01647   -391.30517    216156.16   -20155.641    1488.6464   -21644.287   -1034.4261    268.25148    39.458662    39.241492    23.782148 
   46200    240.85796   -393.32006    216156.16   -20130.973    1525.6476    -21656.62   -1024.0618    269.82807     39.45549    39.243207    23.780733 
   46400    237.06618   -462.78627    216156.16   -20187.112    1501.6297   -21688.741   -1336.9914    272.92069    39.453871    39.244608    23.779615 
   46600    240.27686   -334.92465    216156.16   -20182.821    1521.9668   -21704.787   -776.82579    273.72835    39.453886    39.243789    23.775352 
   46800    236.58962    -394.3285    216156.16   -20193.164     1498.611   -21691.775   -987.90849    274.63225    39.455168     39.24386    23.787496 
   47000    235.33737   -273.98457    216156.16   -20139.968     1490.679   -21630.647   -502.25623    272.95459    39.454792    39.246028    23.800517 
   47200    228.68406   -393.48797    216156.16   -20246.851    1448.5355   -21695.387   -995.41105    275.30741    39.455187    39.247181    23.801059 
   47400       235.59   -485.32676    216156.16   -20182.647    1492.2792   -21674.926   -1387.7729    276.88427    39.452638    39.249333    23.810741 
   47600    236.63578    -295.8105    216156.16   -20190.265    1498.9034   -21689.169    -593.0691    275.59616     39.45077    39.247614    23.835065 
   47800    232.28528   -267.53775    216156.16   -20176.349    1471.3464   -21647.696   -483.00094    276.88737    39.449646    39.247567    23.848549 
   48000    235.84058   -408.54692    216156.16   -20165.335    1493.8664   -21659.202   -1081.4206    278.49857    39.449439    39.249343    23.829045 
   48200    233.54525   -241.50894    216156.16   -20170.466    1479.3273   -21649.794   -351.47367     278.5485    39.449943    39.248303    23.815567 
   48400     234.5465   -430.15584    216156.16   -20182.785    1485.6695   -21668.454   -1183.6046     278.8526    39.450295    39.251091    23.822992 
   48600    228.18042   -334.65753    216156.16   -20225.322    1445.3453   -21670.668   -706.58323    279.54304    39.449448    39.250942    23.802419 
   48800    235.46254    -398.2398    216156.16   -20216.056    1491.4718   -21707.528   -1032.0882    280.40454    39.450393    39.251276    23.811609 
   49000    227.83508   -354.77971    216156.16   -20249.431    1443.1579   -21692.589   -838.45821    280.40397    39.451959    39.249411    23.819577 
   49200    232.98999   -317.12154    216156.16   -20168.071    1475.8102   -21643.881   -678.78739    281.07231    39.454311    39.251007    23.799761 
   49400    232.62176    -421.2459    216156.16   -20223.434    1473.4777   -21696.912   -1174.0066    282.38283    39.454822    39.251943    23.788426 
   49600     232.1631   -335.50099    216156.16   -20198.307    1470.5725   -21668.879   -789.22095    283.59118    39.456326    39.253684     23.80504 
   49800    231.68908   -396.40135    216156.16   -20171.258    1467.5699   -21638.828   -1040.2728    284.74029    39.454243    39.255151    23.818716 
   50000    241.83112   -410.03254    216156.16   -20193.364    1531.8119   -21725.176   -1092.7069    285.66446    39.454854    39.256783    23.821551 
   50200    239.31186   -194.00204    216156.16   -20139.541    1515.8543   -21655.395   -180.67081    284.51622    39.452544    39.254382    23.799366 
   50400    234.91672   -232.95414    216156.16   -20183.455    1488.0145    -21671.47   -283.00046    285.67749    39.451054    39.255689     23.81119 
   50600    241.21696   -361.80456    216156.16   -20092.906    1527.9216   -21620.827   -868.75016    286.30795    39.450327    39.256446    23.787504 
   50800    234.37578   -401.21992    216156.16   -20235.492    1484.5881    -21720.08   -1081.7966    285.85371    39.450831    39.256287    23.778143 
   51000    232.69502   -344.40183    216156.16   -20223.795    1473.9418   -21697.737   -836.03893    287.56361    39.454091    39.257325    23.760196 
   51200    236.65199   -483.96179    216156.16   -20241.608    1499.0061   -21740.614   -1457.2106     288.9519    39.454525    39.257371    23.750535 
   51400    233.49924   -371.74583    216156.16   -20184.784    1479.0359    -21663.82   -932.42923    289.74218    39.455754    39.254626    23.722108 
   51600    233.98669   -248.82374    216156.16   -20211.384    1482.1235   -21693.508   -371.49976    291.35196    39.455832     39.25348    23.734029 
   51800    232.93744   -442.69579    216156.16   -20170.448    1475.4773   -21645.925    -1183.244    292.70878    39.453793    39.250105    23.730945 
   52000    232.20244   -395.73512    216156.16   -20253.387    1470.8217   -21724.209   -973.33468    292.73159    39.456349    39.250749    23.748378 
   52200    230.52134   -417.45341    216156.16   -20227.865    1460.1732   -21688.038   -1128.5695    290.72919    39.457368    39.250392    23.746253 
   52400    222.53231   -547.25617    216156.16   -20245.506    1409.5689   -21655.075   -1639.9234    291.34662     39.45568    39.254444    23.750137 
   52600    236.65417   -397.11051    216156.16   -20155.487    1499.0199   -21654.507   -985.83537    292.66527     39.45522    39.252761    23.741455 
   52800     236.6536    -351.8475    216156.16    -20109.57    1499.0163   -21608.586   -861.37149    292.79627    39.454616    39.253407    23.735752 
   53000    239.80984   -554.46008    216156.16   -20118.815    1519.0086   -21637.823   -1705.4069    293.05816    39.454762    39.254151    23.742397 
   53200    230.86128   -444.09543    216156.16   -20259.685    1462.3265   -21722.011   -1232.3483    293.39677    39.455669    39.256346    23.740516 
   53400    232.45584   -415.03261    216156.16   -20196.083    1472.4268    -21668.51   -1129.8481    295.47174    39.454464    39.256045    23.745567 
   53600    233.28035   -329.44165    216156.16   -20267.426    1477.6493   -21745.075   -734.34998    298.36979     39.45398    39.255668    23.762076 
   53800    235.50892   -505.56659    216156.16   -20210.013    1491.7657   -21701.779   -1491.2737    299.09863     39.45423    39.255061    23.766423 
   54000    234.86751   -366.74355    216156.16   -20185.672    1487.7028   -21673.375   -890.67016    298.59185    39.454692    39.256111    23.757896 
   54200    234.29952   -380.61632    216156.16   -20118.843    1484.1051   -21602.948   -942.32127    299.87086    39.455536    39.259326    23.747802 
   54400    239.83843   -746.11692    216156.16    -20109.72    1519.1897    -21628.91    -2528.453    301.15626    39.454954     39.25781    23.751719 
   54600    238.33166   -391.23564    216156.16   -20179.146    1509.6455   -21688.792   -982.07242    301.21844    39.454995    39.258615    23.759454 
   54800    236.72702   -412.55862    216156.16   -20177.774    1499.4814   -21677.256   -1091.2528    303.78712    39.451358    39.256499    23.759786 
   55000    240.37954    -509.7002    216156.16    -20152.56    1522.6172   -21675.177   -1450.9805    303.42062    39.449856    39.253767     23.75937 
   55200     229.9058   -252.83346    216156.16   -20288.938    1456.2742   -21745.212   -388.94226    302.75006    39.451082    39.252553    23.761504 
   55400    229.93894   -190.17912    216156.16   -20240.012    1456.4841   -21696.497   -197.44176    303.64018    39.451839    39.253232    23.730983 
   55600    233.98302   -429.89993    216156.16   -20235.216    1482.1002   -21717.316   -1171.5651    304.38106    39.451524    39.250938    23.703141 
   55800    236.05488   -383.99179    216156.16   -20152.457    1495.2239   -21647.681   -920.93589    305.12375    39.452727    39.249175    23.708255 
   56000    236.94618   -365.75509    216156.16   -20176.097    1500.8696   -21676.966   -902.42784    305.98283    39.451662    39.248018    23.728723 
   56200    236.82094   -333.25984    216156.16   -20180.904    1500.0763    -21680.98   -758.98378    305.65152    39.450854     39.24533      23.7245 
   56400    235.86552   -524.14586    216156.16   -20256.699    1494.0244   -21750.724   -1561.1231    308.23001    39.449804    39.244288    23.736462 
   56600    229.23467   -646.83189    216156.16   -20308.201    1452.0232   -21760.224   -2100.6847    307.90799    39.449237    39.245185    23.726763 
   56800    239.34592   -350.13268    216156.16    -20247.38    1516.0701    -21763.45   -847.61787    309.45216    39.452796    39.248391    23.728513 
   57000    231.89923   -387.94349    216156.16   -20327.975     1468.901   -21796.876   -976.63394    309.70154    39.453693    39.249333    23.752952 
   57200    242.35341   -522.15086    216156.16   -20198.663    1535.1201   -21733.784   -1574.4018    309.97084    39.458007     39.24689    23.728541 
   57400    229.03086   -347.97993    216156.16   -20244.992    1450.7322   -21695.725    -787.0246    310.99327    39.458922    39.243111    23.745792 
   57600    228.12086    -334.1772    216156.16   -20306.647     1444.968   -21751.615   -797.84031    312.03202     39.46085    39.242631     23.73035 
   57800    236.97957   -214.26811    216156.16   -20259.555    1501.0811   -21760.636   -252.52896    311.37798    39.463504    39.240893    23.735784 
   58000    233.36179    -417.2126    216156.16   -20234.487    1478.1653   -21712.652   -1063.3708    314.03477    39.462998    39.241519    23.762971 
   58200    240.06446   -353.26121    216156.16    -20198.29    1520.6214   -21718.911   -887.31903    313.55684    39.463622    39.243842    23.750818 
   58400    238.65136   -396.40231    216156.16   -20232.557    1511.6705   -21744.228   -1056.4205    316.77727    39.463262    39.246405    23.723933 
   58600    230.40744   -335.06494    216156.16   -20260.652    1459.4517   -21720.104   -722.06155    318.50553    39.462235    39.248351    23.703794 
   58800    232.66774   -281.71489    216156.16    -20210.03     1473.769   -21683.799   -534.30713    318.01028    39.463783    39.250402    23.718032 
   59000    241.55725   -414.39202    216156.16   -20131.971    1530.0771   -21662.048   -1117.3321    318.14032    39.462046    39.248599    23.742713 
   59200    231.09597   -527.97258    216156.16   -20222.433     1463.813   -21686.246    -1606.395    318.65001    39.461218    39.249572    23.748241 
   59400    235.40031   -452.04971    216156.16   -20276.167    1491.0777   -21767.244   -1215.1003    320.77316    39.461951    39.248842    23.752134 
   59600    228.98821   -401.29023    216156.16   -20320.745     1450.462   -21771.207   -1052.2128    321.06426    39.464298    39.247396    23.775228 
   59800    234.46874   -341.46867    216156.16    -20239.86    1485.1769   -21725.036   -790.20095    320.31719    39.465522    39.248805    23.778157 
   60000    234.68659   -422.61782    216156.16   -20199.057    1486.5568   -21685.614    -1151.866    323.46822    39.464612    39.250009     23.75115 
   60200    234.12169   -380.05937    216156.16   -20228.885    1482.9786   -21711.863   -921.74753    324.26711    39.466212    39.256431    23.764633 
   60400    236.16165   -489.04427    216156.16    -20199.16    1495.9001    -21695.06    -1421.211    323.98566     39.46782    39.257522    23.764133 
   60600    239.17663   -268.88809    216156.16   -20173.203    1514.9977   -21688.201   -468.89836    325.82285    39.470059    39.259962    23.773167 
   60800    237.68503   -345.67588    216156.16   -20111.437    1505.5496   -21616.987   -819.65524    326.70762    39.471813    39.262749    23.763321 
   61000    229.92274   -236.31511    216156.16   -20169.187    1456.3815   -21625.568   -360.67454    327.20709    39.471521     39.26389    23.754374 
   61200    236.46019   -320.21977    216156.16   -20078.948    1497.7912   -21576.739   -673.27407    327.93291    39.469908    39.265392    23.748667 
   61400    236.61081   -497.42948    216156.16    -20113.95    1498.7452   -21612.695   -1401.2323    328.62042    39.467627    39.267223    23.733675 
   61600    232.64565   -344.24528    216156.16   -20158.314     1473.629   -21631.943   -764.76986    327.89707    39.468358    39.268661    23.741203 
   61800    231.42313    -432.6182    216156.16   -20190.491    1465.8853   -21656.376   -1179.2408    330.09938    39.467674    39.269677    23.726832 
   62000     232.4769   -201.95165    216156.16   -20122.386    1472.5602   -21594.947   -213.84867    329.51457     39.46496    39.266585    23.725242 
   62200    236.20228   -410.58127    216156.16   -20117.354    1496.1575   -21613.512   -1079.8665    331.64385    39.466242    39.266217    23.731359 
   62400    240.92142   -393.31107    216156.16   -20123.754    1526.0496   -21649.804   -1016.1289    332.55055    39.465996    39.265154    23.723009 
   62600    235.24978   -429.05867    216156.16   -20187.836    1490.1242    -21677.96   -1122.6028    333.79527     39.46679    39.264204    23.740268 
   62800     228.6857   -380.66747    216156.16   -20236.179    1448.5459   -21684.725   -1022.7239    335.72372     39.46711    39.265913    23.723621 
   63000     243.6533   -175.02181    216156.16   -20172.858    1543.3539   -21716.212   -177.43665    337.63126    39.464293    39.265412    23.724575 
   63200    235.63276   -431.42474    216156.16    -20181.96    1492.5501    -21674.51   -1213.4243    338.10354    39.462098    39.263596    23.726753 
   63400    230.68554   -348.24795    216156.16   -20264.464    1461.2133   -21725.677   -826.36552    338.31566    39.460807    39.262373    23.741491 
   63600    234.18008    -338.7857    216156.16   -20231.626    1483.3484   -21714.974   -797.80846    339.62462    39.458439    39.264485    23.757535 
   63800    234.47038   -315.78135    216156.16   -20284.452    1485.1873   -21769.639   -688.88099    340.77416    39.458544    39.263004    23.761844 
   64000    233.90692   -525.01355    216156.16   -20161.949    1481.6182   -21643.567   -1539.3153    342.45936    39.459487    39.262595    23.774482 
   64200    233.03127   -505.75464    216156.16   -20152.503    1476.0716   -21628.574   -1461.3987    345.01079    39.461596    39.261012      23.7868 
   64400    234.96351    -487.7653    216156.16   -20156.658    1488.3109   -21644.969   -1431.3554    345.49874    39.460415    39.259452    23.777564 
   64600    225.12507   -364.68858    216156.16   -20190.161     1425.992   -21616.153    -904.2101    348.13463    39.460022     39.25908    23.778414 
   64800    225.03507   -356.12921    216156.16    -20194.56    1425.4219   -21619.982   -817.75105     348.5162    39.459395     39.26232    23.771179 
   65000    235.33683   -391.25056    216156.16   -20134.769    1490.6756   -21625.444   -1043.0703    351.28781    39.458352    39.261554     23.78091 
   65200    231.11693   -372.44582    216156.16   -20186.549    1463.9458   -21650.495   -937.43848     351.7357    39.455945    39.260304    23.774659 
   65400    228.88299   -483.60867    216156.16   -20197.799    1449.7955   -21647.595   -1389.1802    353.92201    39.453835    39.262273    23.746973 
   65600    233.65413   -523.48282    216156.16   -20127.038     1480.017   -21607.055   -1586.6184    354.94654    39.453389     39.26432    23.742539 
   65800    232.99709    -384.2251    216156.16   -20121.162    1475.8552   -21597.017   -992.31114    354.54138     39.45306    39.265784    23.738188 
   66000    229.73767   -492.45891    216156.16    -20142.98    1455.2093    -21598.19   -1398.9712    354.84515    39.451636     39.26612    23.748085 
   66200    234.54513   -284.15246    216156.16   -20201.266    1485.6607   -21686.927   -606.40151    354.28041    39.453415     39.26743    23.744893 
   66400    234.53826   -236.19679    216156.16    -20164.28    1485.6172   -21649.897   -342.79914    354.34964     39.45262     39.27025    23.741475 
   66600    235.15587   -353.86593    216156.16   -20234.991    1489.5293    -21724.52   -855.80052    355.32682    39.453269    39.269507    23.754374 
   66800    231.62714   -427.74547    216156.16   -20225.561    1467.1776   -21692.739   -1146.7025    356.60714    39.453851    39.269457      23.7656 
   67000    229.21922   -366.08715    216156.16   -20284.051    1451.9253   -21735.976    -895.3465    356.98684    39.454493    39.270178    23.770351 
   67200    230.54282   -150.01625    216156.16   -20214.714    1460.3092   -21675.023    21.099839     356.8172     39.45324    39.270968    23.761263 
   67400    240.26368   -427.04222    216156.16   -20199.436    1521.8833    -21721.32   -1166.6863    358.30546    39.453752    39.270334    23.757093 
   67600    238.89329   -318.98176    216156.16   -20133.485     1513.203   -21646.688   -723.10127    358.33321    39.452881    39.268882    23.781938 
   67800    236.85712    -512.0022    216156.16   -20165.481    1500.3054   -21665.787   -1494.0925    359.48164    39.453355    39.270655    23.787058 
   68000    233.94146   -550.00762    216156.16   -20169.027     1481.837   -21650.864    -1709.649    358.59318    39.453356    39.269983    23.793772 
   68200    232.43656   -460.89786    216156.16   -20167.889    1472.3046   -21640.194   -1293.2783    361.07288    39.454035    39.271233    23.810384 
   68400    234.79549   -388.45672    216156.16    -20120.45    1487.2466   -21607.697   -991.32757    361.35315    39.454505    39.271012    23.820389 
   68600    230.07025   -457.89885    216156.16   -20158.593    1457.3159   -21615.909   -1261.1891    362.22744    39.454099    39.270413      23.7917 
   68800    236.85574   -279.71453    216156.16   -20167.807    1500.2967   -21668.104   -553.70411    361.99125    39.454871    39.270317    23.799251 
   69000    237.54629   -200.92013    216156.16   -20183.031    1504.6708   -21687.702   -205.10713    363.22229     39.45534    39.269576    23.780803 
   69200    228.56169   -338.11853    216156.16   -20234.591    1447.7603   -21682.351   -759.89633    362.92549    39.454595    39.270455    23.741036 
   69400    226.72496   -254.15231    216156.16   -20259.794    1436.1261    -21695.92   -420.50884    364.84293     39.45299    39.272032    23.729405 
   69600     244.0809   -226.38489    216156.16   -20099.611    1546.0624   -21645.673   -329.22577    366.00162     39.45309    39.273186    23.738406 
   69800    227.47736      -440.33    216156.16   -20169.043     1440.892   -21609.935   -1255.6833    368.78402    39.452916    39.274576    23.742357 
   70000      239.543   -416.55187    216156.16   -20181.563    1517.3184   -21698.882   -1167.2948    369.56191    39.452847    39.276342    23.710987 
   70200    230.33062   -340.00882    216156.16   -20160.191    1458.9651   -21619.156   -770.25571    370.73536    39.452667     39.27887    23.715535 
   70400    243.72661   -295.06358    216156.16   -20107.757    1543.8183   -21651.576   -624.73077    370.51188    39.453042    39.280823    23.715387 
   70600    235.16709   -348.16552    216156.16   -20189.401    1489.6004   -21679.001   -872.43036    372.33906     39.45298    39.281073    23.719213 
   70800     234.7756   -405.56611    216156.16   -20192.348    1487.1206   -21679.469    -1064.028    372.36058     39.45504    39.279743    23.721134 
   71000    231.75838   -335.70225    216156.16   -20229.895    1468.0089   -21697.904       -757.4     374.0938    39.457586    39.279844    23.731496 
   71200    233.93289    -292.5674    216156.16   -20197.084    1481.7827   -21678.867    -599.2386    373.97703    39.457743    39.277679    23.722238 
   71400    234.16388   -258.15342    216156.16   -20196.614    1483.2458    -21679.86   -437.36733    373.75705    39.457744    39.276834    23.718527 
   71600    234.51949   -273.11238    216156.16   -20162.532    1485.4984   -21648.031    -505.9042    372.06892    39.457502     39.27657    23.697712 
   71800    226.15488   -413.47843    216156.16   -20239.738    1432.5151   -21672.253   -1082.4075    372.58038    39.457123    39.276573    23.731201 
   72000    231.68507   -396.36904    216156.16   -20182.753    1467.5445   -21650.298   -1055.3034    372.24479    39.454646    39.276692    23.741122 
   72200    238.57922   -423.48764    216156.16   -20052.416    1511.2136    -21563.63   -1137.5607     373.1635    39.453197    39.276216    23.725749 
   72400    235.01662   -404.97798    216156.16   -20131.143    1488.6473    -21619.79   -1125.7952    374.23224    39.452672    39.274426    23.749726 
   72600    234.53725   -390.65686    216156.16   -20079.642    1485.6108   -21565.253   -1050.3035    375.43691    39.453388    39.273799    23.736344 
   72800    237.94505   -395.33308    216156.16   -20102.728    1507.1966   -21609.925   -1034.6038    374.55079    39.452997    39.273848    23.732383 
   73000    233.43236   -488.56664    216156.16   -20155.058    1478.6122   -21633.671   -1402.0222    376.66374    39.453227     39.27227    23.737688 
   73200    236.19483   -396.66857    216156.16   -20067.438    1496.1103   -21563.548   -1038.8545    377.69675    39.453077     39.27065    23.753753 
   73400    235.21737   -373.19964    216156.16   -20073.469    1489.9189   -21563.388   -962.58139    380.79803    39.453922    39.267973     23.75955 
   73600    239.84729   -339.87764    216156.16   -20116.168    1519.2458   -21635.414   -812.78578    380.41426    39.453619    39.269443    23.769747 
   73800     233.1066   -473.65066    216156.16   -20245.583    1476.5488   -21722.132   -1385.9152    384.58323    39.451642    39.269944    23.796461 
   74000    230.92679   -335.21081    216156.16    -20261.53    1462.7414   -21724.272   -753.66301    386.57507    39.451425    39.269864    23.807732 
   74200    234.36014   -406.34094    216156.16    -20206.13     1484.489   -21690.619   -1061.5254    386.04286    39.450967    39.271244    23.820172 
   74400    237.61374   -358.85188    216156.16   -20201.055     1505.098   -21706.153   -857.51552    387.77888    39.452137    39.271795    23.829422 
   74600    231.58887     -513.092    216156.16   -20253.938    1466.9352   -21720.873   -1509.0468    388.67917    39.455213    39.274274    23.823842 
   74800    236.78936   -322.89491    216156.16   -20245.763    1499.8762   -21745.639   -770.80794    389.44981    39.456943    39.275962    23.814189 
   75000    228.93009   -319.16835    216156.16   -20236.174    1450.0938   -21686.268   -642.22928    392.18254    39.458967    39.275817    23.804567 
   75200    241.16732   -221.79158    216156.16   -20162.839    1527.6072   -21690.446   -271.38144      391.928    39.458337    39.276602    23.813034 
   75400    234.09538    -573.1731    216156.16    -20227.86    1482.8119   -21710.672   -1800.2638    393.79491    39.458876    39.273322    23.817344 
   75600    235.94498   -394.90032    216156.16   -20209.303    1494.5277    -21703.83   -1042.4212    391.96985    39.459282    39.269851    23.805976 
   75800    237.26705   -400.29394    216156.16   -20162.503     1502.902   -21665.405   -1086.6514    390.51613    39.458374    39.270236    23.816176 
   76000    235.38631   -370.90359    216156.16   -20147.715     1490.989   -21638.704   -922.75716    392.82411     39.45906    39.270236     23.83757 
   76200    230.44146   -393.88751    216156.16   -20193.031    1459.6672   -21652.698   -1045.8315    394.38197    39.460544    39.271456    23.850588 
   76400    225.46263   -371.59957    216156.16   -20192.616    1428.1302   -21620.746   -931.86281    394.25606    39.459736    39.273254    23.835922 
   76600    235.64835   -273.74335    216156.16   -20181.704    1492.6488   -21674.352   -497.80306    394.15897    39.459495    39.272889    23.830835 
   76800    229.39529   -250.27004    216156.16   -20176.663    1453.0406   -21629.704   -461.31298    394.03819    39.458164    39.271787    23.818856 
   77000    240.18332   -386.59201    216156.16   -20162.925    1521.3743   -21684.299   -965.19797    395.69016    39.454149    39.271612    23.786603 
   77200    237.00444   -415.57726    216156.16   -20150.864    1501.2386   -21652.103   -1124.2436    395.65477    39.452499    39.271057    23.810035 
   77400    233.18317   -304.48045    216156.16    -20150.99    1477.0338   -21628.024   -603.23057    396.08564    39.451084    39.271912    23.830383 
   77600    234.96684    -405.5109    216156.16   -20172.905     1488.332   -21661.237   -1124.0657    398.00888    39.449961    39.269231    23.846357 
   77800    238.42635   -414.08632    216156.16   -20142.385    1510.2453    -21652.63   -1130.4684    397.80033    39.451758    39.271563    23.833258 
   78000    233.34408   -364.12873    216156.16    -20173.37    1478.0531   -21651.424    -907.6328    399.67934    39.453256    39.274367    23.855463 
   78200    241.45287   -349.55893    216156.16   -20118.381    1529.4159   -21647.797    -768.5157    399.69386    39.454957    39.275527    23.857286 
   78400    237.08455   -229.62253    216156.16   -20136.833     1501.746   -21638.579   -307.64438    401.32001    39.453768    39.276019    23.876995 
   78600    238.85722    -313.9479    216156.16    -20162.84    1512.9745   -21675.814   -704.50916    403.28795    39.452728    39.276077    23.877852 
   78800    231.45079   -365.17374    216156.16   -20166.527    1466.0606   -21632.587   -928.04602    403.59348    39.453372    39.276056    23.878474 
   79000    233.66857   -582.59007    216156.16   -20147.357    1480.1085   -21627.465   -1885.9013    405.30688    39.454742    39.276738    23.866573 
   79200    237.74162   -321.58848    216156.16   -20134.583     1505.908   -21640.491   -739.07003    405.08368     39.45369    39.276393    23.873762 
   79400    236.41183   -326.10914    216156.16   -20125.831    1497.4849   -21623.316   -749.96341    405.87308    39.451801    39.274795    23.865724 
   79600    232.20026   -264.41765    216156.16   -20241.294    1470.8078   -21712.102   -457.92809    407.29728    39.449883    39.272512    23.854527 
   79800    231.69762   -313.13871    216156.16   -20242.136     1467.624    -21709.76   -717.48993    407.82289    39.449951    39.270987    23.863937 
   80000    231.12589   -155.62508    216156.16   -20278.735    1464.0026   -21742.738   -5.6592081    407.36064    39.450487    39.269241    23.869707 
   80200    232.62075   -411.24677    216156.16   -20276.057    1473.4713   -21749.529   -1121.8951    408.80107    39.448581    39.268283    23.869332 
   80400    229.19892   -528.65727    216156.16   -20244.968    1451.7967   -21696.764   -1588.2021    410.49509    39.450889    39.264902    23.865502 
   80600    237.89526   -413.51659    216156.16   -20211.412    1506.8812   -21718.293   -1122.7492    407.27644    39.448936    39.260891    23.854457 
   80800    233.30279   -514.69982    216156.16   -20175.165    1477.7915   -21652.957   -1556.5183    408.30957    39.448884    39.260504    23.854392 
   81000    234.12938   -205.95088    216156.16   -20171.283    1483.0273    -21654.31   -211.18692    408.83053    39.449503    39.258846    23.856531 
   81200    234.58706   -414.69058    216156.16   -20141.829    1485.9264   -21627.755    -1080.361    410.63412    39.452474    39.259644    23.862765 
   81400    224.24916   -273.02243    216156.16   -20098.948    1420.4438   -21519.392   -474.91778    411.77943    39.453655     39.25756    23.854174 
   81600    228.12254   -231.12313    216156.16   -20162.714    1444.9786   -21607.693   -309.33822    413.36729    39.452442    39.259035    23.855609 
   81800     229.3956   -326.18027    216156.16   -20227.255    1453.0425   -21680.297   -745.44725    412.02372    39.453664    39.258906    23.871356 
   82000    232.03132   -312.50639    216156.16   -20163.148    1469.7377   -21632.885    -679.9013    412.72981    39.456094     39.25703    23.903531 
   82200    240.87591   -454.21005    216156.16     -20126.6    1525.7613   -21652.361   -1260.8659    413.63444    39.456081    39.258059    23.897504 
   82400    232.36764   -350.01355    216156.16   -20156.386     1471.868   -21628.254   -873.54602    414.84306    39.455331    39.257501    23.900449 
   82600    237.76964   -416.39144    216156.16   -20089.062    1506.0855   -21595.147   -1140.8655    415.76034    39.451246    39.254775    23.885609 
   82800    238.49536   -179.77765    216156.16   -20154.348    1510.6824   -21665.031   -131.99661    415.64936    39.450465    39.253704    23.887051 
   83000    238.69511   -317.08111    216156.16   -20125.081    1511.9476   -21637.028   -720.20366      416.189    39.450363    39.252783    23.873684 
   83200    238.18623   -538.11943    216156.16   -20132.166    1508.7243    -21640.89   -1644.5689    416.80393    39.450874    39.251575     23.86646 
   83400     236.1707   -376.19844    216156.16   -20161.616    1495.9575   -21657.574   -968.77157    417.15028    39.450546    39.246384    23.862954 
   83600    232.87495   -358.83406    216156.16   -20244.631    1475.0815   -21719.713   -858.77827    418.08835    39.450482    39.246035    23.865557 
   83800    234.90242   -359.14143    216156.16   -20207.791    1487.9239   -21695.715   -865.00329    418.22538    39.449351     39.24598    23.858718 
   84000    231.21247   -497.52165    216156.16   -20190.805    1464.5509   -21655.356   -1486.0779    418.15959    39.450046    39.244031    23.881803 
   84200    238.24193   -283.83389    216156.16   -20166.326    1509.0771   -21675.404   -627.28025    420.56085    39.449311    39.245435    23.881783 
   84400    237.51673   -330.07179    216156.16   -20207.236    1504.4835    -21711.72   -739.20202    419.27628    39.449245    39.245933    23.867033 
   84600    234.02384   -311.13075    216156.16   -20179.681    1482.3588    -21662.04   -676.51038    418.80884    39.451401    39.248374    23.856143 
   84800    233.63845   -311.55891    216156.16   -20189.411    1479.9176   -21669.328   -700.26076    418.17851      39.4551    39.249477    23.843187 
   85000    236.57244   -291.46626    216156.16   -20141.846    1498.5022   -21640.348   -599.14461     419.3907    39.455621     39.25074    23.831908 
   85200    228.78555   -469.37041    216156.16   -20154.458    1449.1783   -21603.636   -1364.4033    420.20682    39.457957    39.250001    23.845923 
   85400    228.02131   -306.47138    216156.16   -20220.673    1444.3375    -21665.01   -678.14431    419.59062      39.4596    39.249971    23.846184 
   85600    232.80028   -372.10632    216156.16   -20237.033    1474.6085   -21711.642   -939.63451    421.64549    39.461167    39.250097    23.862874 
   85800    240.99514   -328.54284    216156.16   -20143.985    1526.5166   -21670.502   -751.52953    420.56627    39.463071    39.247772    23.868602 
   86000    234.10814   -417.57463    216156.16   -20141.306    1482.8928   -21624.198     -1105.14    422.28602    39.463226    39.249638    23.888651 
   86200    239.45192   -459.13286    216156.16   -20144.992    1516.7414   -21661.734   -1336.8781    422.11301    39.463747    39.251671    23.906223 
   86400    239.28576   -356.52917    216156.16   -20185.486     1515.689   -21701.175   -892.44017    421.66404    39.464731    39.249214    23.898943 
   86600    243.12447   -331.53894    216156.16   -20110.665    1540.0042   -21650.669   -742.77339    421.87398    39.462962    39.248997    23.891821 
   86800    230.19832   -441.68135    216156.16   -20212.663    1458.1271    -21670.79   -1215.5686    422.48663     39.46211    39.248595    23.868619 
   87000    231.89052   -394.55655    216156.16   -20161.138    1468.8459   -21629.984   -1022.6294    423.29859    39.462175    39.247245    23.860508 
   87200    234.48401   -256.31046    216156.16   -20134.487    1485.2736   -21619.761   -462.38938    424.85724    39.461929    39.246976    23.850536 
   87400    231.36642   -253.72566    216156.16   -20221.282    1465.5261   -21686.808   -432.13536    425.93142    39.463971    39.247361    23.850826 
   87600    235.86958   -400.46952    216156.16   -20132.342    1494.0501   -21626.392   -1031.7759     427.3129    39.463868    39.245945    23.844819 
   87800    229.09354   -431.45197    216156.16   -20176.368    1451.1292   -21627.498   -1168.0349    428.40779    39.463068    39.248016    23.870943 
   88000    233.68254   -351.84277    216156.16   -20159.938    1480.1969   -21640.135   -880.69584    429.12758    39.463207    39.249835    23.872369 
   88200    232.64386   -453.96527    216156.16   -20192.991    1473.6177   -21666.608   -1294.2798    430.39371    39.465103    39.252029    23.862137 
   88400    232.91775   -398.69886    216156.16   -20155.339    1475.3526   -21630.692   -1082.3105    429.59233    39.464044    39.253902    23.869862 
   88600    236.87129   -277.40258    216156.16   -20179.864    1500.3952   -21680.259   -519.53653    430.08667    39.464436    39.255553    23.892951 
   88800    233.71054   -310.77509    216156.16   -20209.394    1480.3743   -21689.768   -635.90926    430.92789    39.461133    39.255525    23.878142 
   89000    234.68019   -467.71863    216156.16   -20204.843    1486.5163    -21691.36   -1332.2552    430.84394     39.45954    39.254581    23.875523 
   89200    235.77748   -389.68121    216156.16   -20177.905    1493.4667   -21671.371   -968.61502    432.79792    39.459135    39.251809    23.850617 
   89400      236.907   -311.06527    216156.16   -20159.378    1500.6214   -21659.999   -716.69688     433.8262    39.458151    39.251233    23.848188 
   89600    224.98213   -387.96285    216156.16   -20254.038    1425.0866   -21679.125   -1000.3773    434.16886    39.459136    39.250305    23.847011 
   89800    236.33562   -389.97923    216156.16   -20178.028    1497.0021    -21675.03   -998.65434    436.16062    39.459696    39.250473    23.848385 
   90000    235.06186   -310.96967    216156.16   -20219.604    1488.9338   -21708.538   -707.49435    436.40209    39.462403     39.25061    23.851521 
   90200    237.15034   -264.42123    216156.16   -20242.696    1502.1628   -21744.859   -425.48397    437.26673    39.464217    39.250227    23.857331 
   90400     238.1764   -378.69777    216156.16   -20201.549     1508.662   -21710.211   -911.38818    438.29849     39.46327    39.250276    23.850226 
   90600    232.10211   -403.44566    216156.16   -20217.385    1470.1861   -21687.571   -1055.1596    440.07251    39.463916    39.249514    23.839072 
   90800    232.68122   -258.18949    216156.16   -20202.156    1473.8543    -21676.01   -423.49088    439.82154    39.463675    39.248878    23.846566 
   91000    225.21825   -353.70721    216156.16   -20233.958    1426.5822    -21660.54   -801.84319    440.38065    39.464403    39.245524    23.885196 
   91200    226.42051   -497.43007    216156.16   -20288.719    1434.1976   -21722.916   -1450.3533    440.19017    39.461531    39.243591    23.903425 
   91400    230.59781   -340.17401    216156.16   -20207.986    1460.6576   -21668.643   -834.13487    441.44465    39.460511    39.243627     23.87787 
   91600    236.12193   -385.65841    216156.16   -20121.411    1495.6485    -21617.06   -990.31107    442.51894    39.459568    39.243909    23.857877 
   91800    239.55232   -409.78579    216156.16   -20152.598    1517.3774   -21669.976   -1068.2525     443.1223    39.459764    39.244477    23.875542 
   92000     234.3672   -354.77337    216156.16   -20131.556    1484.5337   -21616.089   -839.97878    442.21755    39.460872    39.240875    23.890691 
   92200    235.12694   -390.31005    216156.16    -20128.88    1489.3461   -21618.226   -1017.1946    444.07213    39.459921    39.240711    23.888743 
   92400    235.39007   -403.69215    216156.16   -20134.228    1491.0128   -21625.241   -1046.4433    443.40832    39.459904    39.239025    23.920015 
   92600    242.26545   -223.24905    216156.16   -20096.348     1534.563   -21630.911   -256.02813    445.60934    39.460771    39.237723    23.923367 
   92800    232.57952   -377.11329    216156.16   -20174.889    1473.2102   -21648.099   -941.35244    447.61685     39.46062    39.234591    23.906342 
   93000    229.68005    -389.1029    216156.16   -20216.508    1454.8443   -21671.352   -971.22793    449.19428    39.461966    39.233098    23.924173 
   93200    232.12044   -331.00445    216156.16   -20229.433    1470.3022   -21699.736   -760.79294    450.78032    39.461908    39.235601    23.920758 
   93400    229.73434   -283.96097    216156.16   -20272.535    1455.1882   -21727.723   -556.35277    450.83068    39.460708    39.237907    23.912576 
   93600     238.2794   -375.47339    216156.16   -20255.368    1509.3145   -21764.682   -938.22404    452.59929    39.460251    39.235573    23.930411 
   93800     226.4814   -475.44561    216156.16   -20301.303    1434.5833   -21735.886   -1339.2579    454.09824    39.459813    39.234804    23.931235 
   94000    234.11233   -366.16906    216156.16   -20295.749    1482.9194   -21778.668   -876.96026    454.49265    39.459235    39.234877    23.922126 
   94200     238.6133   -339.57067    216156.16   -20202.627    1511.4295   -21714.057   -755.89836    455.37563    39.459938    39.237726    23.906197 
   94400    236.37524   -390.57119    216156.16   -20266.079    1497.2531   -21763.332   -980.09873    456.19663    39.461042    39.240081    23.906463 
   94600    236.59327   -369.94275    216156.16   -20250.363    1498.6342   -21748.997   -899.98017    457.05912    39.461323    39.241484    23.898882 
   94800    239.69512   -380.04611    216156.16   -20201.073    1518.2819   -21719.355   -933.12897    456.45707    39.461321    39.241388    23.875757 
   95000    237.48341   -388.20355    216156.16   -20296.015    1504.2725   -21800.287   -1021.7252    453.55724    39.462511     39.24116    23.864694 
   95200    235.03757   -638.09204    216156.16    -20275.87      1488.78    -21764.65   -1989.9756    454.52366    39.462906     39.24235    23.878317 
   95400    232.31394    -355.6518    216156.16    -20232.42    1471.5279   -21703.947   -869.99744    451.80376    39.462116    39.242413    23.891484 
   95600    237.56646   -290.70742    216156.16   -20184.429    1504.7986   -21689.227   -591.76992    453.86441    39.462945     39.24362    23.883394 
   95800    234.65342   -441.76094    216156.16    -20177.65    1486.3467   -21663.997   -1239.9048    456.37876    39.461459      39.2457    23.880819 
   96000    238.27015   -94.155119    216156.16   -20183.408    1509.2559   -21692.664    253.76248    456.14294    39.459122    39.245572    23.887067 
   96200    240.33854   -392.47971    216156.16   -20124.607    1522.3575   -21646.965    -1020.053    457.72136    39.459652    39.246084    23.882677 
   96400    233.78495   -381.89606    216156.16   -20192.677    1480.8456   -21673.523   -984.23905    457.30763    39.460331    39.246487    23.881965 
   96600    224.36955   -411.83433    216156.16   -20194.101    1421.2064   -21615.308   -1054.2631     457.5442    39.458031    39.245712    23.872134 
   96800     237.2416   -484.68874    216156.16   -20165.645    1502.7408   -21668.386   -1397.8489    458.18383     39.45664    39.248277    23.860445 
   97000    229.87078   -361.17564    216156.16   -20202.167    1456.0524   -21658.219   -888.75437    457.12501    39.456447    39.248963     23.85008 
   97200    237.37216   -288.74645    216156.16   -20187.089    1503.5678   -21690.657   -565.71785    458.01356    39.452374    39.246028    23.855528 
   97400    237.67886   -467.65057    216156.16   -20178.305    1505.5105   -21683.815   -1281.0143     459.2881    39.452084     39.24474    23.857208 
   97600    234.59083   -354.95001    216156.16    -20109.44    1485.9502    -21595.39   -883.05615     458.7291    39.451906    39.243981    23.846227 
   97800    235.30761   -429.80815    216156.16   -20116.733    1490.4905   -21607.224   -1097.7331    458.66136    39.451497     39.24382    23.853872 
   98000    229.40824   -223.39849    216156.16   -20190.863    1453.1226   -21643.985   -313.00609    457.91334    39.451035    39.244603    23.861643 
   98200     238.8185   -323.98459    216156.16   -20201.963    1512.7293   -21714.693   -699.48066    459.78745    39.447614    39.243526    23.867767 
   98400    233.10196   -297.37447    216156.16   -20177.276    1476.5194   -21653.796   -596.21856    461.41672    39.445881     39.24249    23.880179 
   98600    234.31772   -386.22073    216156.16   -20190.756    1484.2203   -21674.977    -1009.297    462.61703    39.445572    39.245025    23.897005 
   98800    236.88861    -451.7006    216156.16   -20181.219    1500.5049   -21681.724   -1258.8006    461.45141    39.446314    39.246783    23.886387 
   99000    233.05885   -322.91494    216156.16   -20219.788    1476.2464   -21696.035   -732.39293    461.18357    39.446637    39.248126    23.888203 
   99200    232.09193   -352.35029    216156.16   -20187.176    1470.1216   -21657.297   -835.98684    462.34988    39.445687    39.249205      23.8757 
   99400     238.1418   -286.19316    216156.16   -20190.352    1508.4429   -21698.795   -544.80126    461.28933    39.444226    39.251366    23.889536 
   99600    232.73218    -303.3242    216156.16   -20201.526    1474.1771   -21675.704   -624.81104    461.20559    39.443483    39.250211    23.876427 
   99800    232.58049   -375.35924    216156.16   -20193.895    1473.2163   -21667.112   -866.88427    462.81031     39.44209     39.24987    23.847035 
  100000     232.7453   -324.35578    216156.16   -20173.901    1474.2602   -21648.161   -690.71157    462.99386    39.440137    39.250294     23.83118 
  100200    231.11895   -282.26142    216156.16   -20236.901    1463.9586   -21700.859   -590.38502    465.38038    39.439907    39.251956    23.831789 
  100400    231.55546   -412.90191    216156.16   -20185.853    1466.7235   -21652.576   -1084.8387    466.21437    39.440319    39.250668    23.835257 
  100600    234.58545    -275.2751    216156.16   -20207.761    1485.9162   -21693.677   -494.77067    467.30417    39.442808    39.250071    23.838851 
  100800    231.10659    -412.4666    216156.16   -20250.807    1463.8803   -21714.688   -1093.8926    468.41848    39.442239    39.249475    23.852594 
[...]
 3975800    222.39301   -435.99349    216156.16   -22099.261    1408.6865   -23507.948    -1167.066    6083.2198    38.711185    39.547456    23.607244 
 3976000     223.0794    -496.9031    216156.16   -22116.168    1413.0343   -23529.202   -1477.2897    6083.9939    38.711465    39.548288    23.606155 
 3976200    219.50852    -478.4812    216156.16   -22126.852    1390.4155   -23517.268   -1386.5261     6083.511    38.710657    39.548323    23.610058 
 3976400    218.91942   -335.79678    216156.16   -22139.711    1386.6841   -23526.396   -732.74934    6081.6521     38.71074    39.549284    23.609433 
 3976600    219.93706   -371.04373    216156.16   -22131.513    1393.1301   -23524.643   -907.20077    6081.6246    38.710553    39.548847    23.609205 
 3976800    224.06803   -479.65798    216156.16   -22076.113    1419.2965    -23495.41   -1341.6401    6083.8855    38.711163    39.548512     23.61031 
 3977000    216.70284   -472.46292    216156.16    -22171.23    1372.6437   -23543.874   -1261.0459    6082.1668    38.709847    39.548655    23.606494 
 3977200    230.70304   -316.10225    216156.16   -22099.968    1461.3241   -23561.292   -622.02326    6083.8318    38.709304    39.548999     23.60587 
 3977400    220.54844   -316.85511    216156.16   -22107.275    1397.0026   -23504.277    -691.5992    6082.2892    38.710108    39.548904    23.608597 
 3977600    221.74769   -368.78737    216156.16   -22124.473    1404.5989   -23529.072   -852.13657    6083.0352    38.708213    39.548917    23.612606 
 3977800    227.80466   -363.34088    216156.16    -22136.05    1442.9651   -23579.015   -826.74794    6082.8046    38.707713    39.549683    23.608869 
 3978000     218.9328   -320.46585    216156.16   -22162.575    1386.7688   -23549.344   -701.40219     6082.255    38.708938    39.549763    23.613255 
 3978200    225.97102   -347.28666    216156.16   -22094.061    1431.3504   -23525.412   -798.59693    6082.9531    38.708005     39.55022    23.616286 
 3978400    219.16784    -361.4024    216156.16   -22150.619    1388.2576   -23538.876   -842.42905     6081.498    38.709208    39.550852    23.616811 
 3978600    226.05217   -378.60035    216156.16   -22109.226    1431.8645   -23541.091   -933.14044    6081.6793    38.709977    39.550499    23.613828 
 3978800     227.0382   -311.85457    216156.16   -22089.646    1438.1102   -23527.756    -621.7251    6081.9668    38.711058    39.550726    23.619954 
 3979000    219.67784    -328.1704    216156.16   -22119.477     1391.488   -23510.965   -675.14476    6081.9091     38.71248    39.549921    23.623469 
 3979200    219.25609   -342.66625    216156.16   -22139.516    1388.8166   -23528.332    -773.6418    6081.3285    38.714037    39.549354    23.622667 
 3979400    229.29325   -370.35158    216156.16   -22108.058    1452.3942   -23560.453   -913.71661    6081.5504    38.714413    39.549186     23.61711 
 3979600    227.53074   -446.56603    216156.16   -22117.619    1441.2301   -23558.849   -1189.1818    6084.1193    38.714536    39.548511    23.616879 
 3979800    222.84875   -302.24937    216156.16   -22119.456    1411.5733   -23531.029   -585.67108    6082.6015    38.714664    39.548502     23.61153 
 3980000    225.94716   -382.71099    216156.16   -22130.253    1431.1993   -23561.452   -949.94531    6081.4081    38.715858    39.549242    23.608126 
 3980200    224.10619    -397.4753    216156.16   -22127.665    1419.5382   -23547.204   -1020.2351    6080.4342    38.716224    39.549815    23.615345 
 3980400    223.48912   -370.31904    216156.16   -22089.425    1415.6296   -23505.055   -931.79704    6081.7518    38.716452    39.548442     23.61175 
 3980600    219.61583    -431.8857    216156.16   -22041.687    1391.0953   -23432.782   -1169.4341    6083.5668    38.715905    39.547946    23.613088 
 3980800    226.82359   -353.38635    216156.16   -22074.534    1436.7508   -23511.285   -815.98369    6080.9984    38.715766    39.547733    23.618236 
 3981000    221.01521   -400.33572    216156.16   -22096.242    1399.9593   -23496.201   -1014.0763    6080.9165     38.71499    39.547366    23.616234 
 3981200    224.62371   -383.27615    216156.16   -22088.834    1422.8163    -23511.65   -925.21548     6081.808    38.714363    39.547039    23.610869 
 3981400    230.23505   -384.14841    216156.16   -22072.926    1458.3597   -23531.286   -944.88693    6082.1523    38.713413    39.546758     23.61254 
 3981600    218.20344   -373.70213    216156.16   -22121.587    1382.1489   -23503.736   -874.62984    6081.2242     38.71384    39.546645    23.609277 
 3981800    224.82388   -369.49183    216156.16   -22102.515    1424.0842   -23526.599   -859.29845    6080.1602    38.714709    39.545536    23.608363 
 3982000     219.1507   -358.82967    216156.16   -22154.364    1388.1491   -23542.513   -884.20914    6080.7082     38.71512     39.54551    23.613616 
 3982200     219.4123    -400.3177    216156.16   -22187.973    1389.8061   -23577.779   -1063.7597    6082.4692    38.716299    39.544552    23.609981 
 3982400    223.61952   -392.61536    216156.16   -22097.479    1416.4556   -23513.934   -1023.7409    6082.2002    38.716814    39.543778    23.610987 
 3982600    227.69484   -384.86881    216156.16   -22126.619    1442.2695   -23568.889   -974.21714    6081.7886    38.716778    39.543371    23.603303 
 3982800    226.83265   -374.74086    216156.16   -22079.705    1436.8082   -23516.513   -931.74893    6081.9209    38.716408    39.542947     23.60037 
 3983000    230.22343   -458.39659    216156.16   -22047.735    1458.2861   -23506.021   -1306.1152    6082.1782    38.717643    39.542862    23.606436 
 3983200    229.28409   -315.46243    216156.16   -22072.908    1452.3362   -23525.244   -698.14346    6084.0012    38.718874    39.543002    23.609752 
 3983400    230.89306   -395.14567    216156.16   -22040.106    1462.5278   -23502.633   -1027.1409    6082.2751    38.718779    39.542369    23.609699 
 3983600    221.24998    -384.2222    216156.16   -22106.703    1401.4464   -23508.149   -962.88075    6082.8777    38.718818    39.542498    23.610833 
 3983800    224.71476   -337.41473    216156.16   -22105.175     1423.393   -23528.568   -730.78206    6082.6593    38.719724    39.542172    23.611154 
 3984000    223.79086   -384.50928    216156.16   -22095.929    1417.5409    -23513.47   -953.89736     6083.775    38.718966    39.542228    23.613838 
 3984200    229.28085   -371.36839    216156.16   -22076.255    1452.3156   -23528.571   -927.16766    6081.5413    38.719076    39.542561     23.60656 
 3984400     217.9273   -231.40564    216156.16   -22111.688    1380.3997   -23492.088   -318.12191    6081.3199    38.719595    39.542293    23.608576 
 3984600    221.40041   -298.28812    216156.16   -22121.658    1402.3992   -23524.057   -611.13597    6082.7913    38.720066    39.541765     23.61131 
 3984800    223.86709   -413.78072    216156.16   -22096.777    1418.0237   -23514.801   -1073.8057    6083.3301    38.719981    39.541739    23.611854 
 3985000    223.18607   -491.79982    216156.16   -22146.347      1413.71   -23560.057   -1392.1618     6083.943    38.720756    39.541952     23.61522 
 3985200    219.31236   -438.50957    216156.16    -22096.68     1389.173   -23485.853   -1163.7431    6083.3224    38.719216    39.541088     23.60742 
 3985400    224.59085   -378.04474    216156.16   -22110.931    1422.6082    -23533.54   -935.13434     6083.837     38.71947    39.540857    23.607341 
 3985600    230.70879    -381.2011    216156.16    -22073.12    1461.3606   -23534.481   -935.01429    6082.7665    38.719439    39.541095    23.611758 
 3985800     223.6464   -385.04503    216156.16   -22070.618    1416.6258   -23487.244    -930.0838    6083.5298    38.720116    39.540743    23.617023 
 3986000     229.7982   -522.73336    216156.16   -21994.311    1455.5927   -23449.903    -1540.563    6083.6242    38.721213    39.540474    23.624461 
 3986200    226.10166   -404.65151    216156.16   -22034.237     1432.178   -23466.415   -1064.4741    6082.1759    38.721424    39.540315    23.613812 
 3986400    225.49126   -374.99304    216156.16   -22130.053    1428.3115   -23558.364   -924.60462    6084.1378    38.721738    39.540192    23.603762 
 3986600    225.45898   -359.38664    216156.16   -22093.828    1428.1071   -23521.935   -870.35203    6083.1627    38.722128    39.540475    23.607534 
 3986800    224.28224   -423.00882    216156.16   -22095.623    1420.6534   -23516.277   -1153.1853    6083.5552    38.722617    39.541636    23.612517 
 3987000    228.89932   -447.83401    216156.16   -22074.201     1449.899     -23524.1   -1293.6365    6083.8564    38.723675    39.541622    23.607987 
 3987200    218.96747    -410.5778    216156.16   -22176.467    1386.9884   -23563.456   -1093.7702    6085.0764    38.723492    39.541779    23.614847 
 3987400    223.33724   -329.09191    216156.16   -22129.284    1414.6675   -23543.952   -722.41217    6084.2826     38.72362    39.542354    23.617415 
 3987600    223.98705   -399.11285    216156.16   -22063.597    1418.7835   -23482.381   -1073.3895    6082.5982    38.723287    39.542286    23.618646 
 3987800    225.82312   -443.94138    216156.16   -22104.281    1430.4136   -23534.695   -1252.9498    6082.4486    38.723941    39.542926    23.611206 
 3988000    222.32315   -405.10275    216156.16   -22072.332    1408.2441   -23480.576   -1038.2308     6082.718    38.724348    39.542899    23.610687 
 3988200    232.18394   -283.09055    216156.16   -22103.373    1470.7045   -23574.078   -526.61867    6083.1175     38.72602    39.542624    23.618336 
 3988400    228.59507   -279.90036    216156.16   -22094.203    1447.9718   -23542.175    -507.5985     6082.426    38.726312    39.541668    23.615765 
 3988600    214.72809   -365.56392    216156.16   -22145.426    1360.1352   -23505.561   -871.77305    6081.7231    38.727937    39.542227    23.609628 
 3988800    218.03525   -397.53566    216156.16   -22147.591    1381.0835   -23528.675   -998.53879    6081.8042     38.72961    39.541883    23.614121 
 3989000    229.48261    -526.9949    216156.16   -22070.587    1453.5936   -23524.181   -1556.5346    6083.5291    38.730858    39.543306    23.616153 
 3989200    224.03158    -425.0031    216156.16   -22105.809    1419.0656   -23524.874   -1140.7325    6081.6165     38.73227    39.544425     23.61767 
 3989400    221.80879   -331.88579    216156.16   -22141.243     1404.986   -23546.229   -720.34255    6080.4126    38.733459     39.54584    23.615536 
 3989600    230.15461   -360.98923    216156.16    -22054.16    1457.8503    -23512.01    -862.1357    6081.4485    38.734163    39.545689    23.612408 
 3989800    226.01961   -387.87605    216156.16   -22091.452    1431.6583    -23523.11   -945.77377     6082.076    38.734954     39.54628    23.617964 
 3990000    226.22785   -357.23592    216156.16   -22138.822    1432.9773     -23571.8    -813.9929    6080.5944    38.735844    39.547176     23.61603 
 3990200    225.39789   -388.29087    216156.16   -22132.715    1427.7202   -23560.435    -983.0252     6080.395    38.736764    39.547422    23.611652 
 3990400    235.79398   -319.13297    216156.16    -22107.34    1493.5713   -23600.912   -667.85185    6080.7082    38.737329    39.548002    23.609015 
 3990600    217.68849   -384.64084    216156.16   -22144.162    1378.8871    -23523.05    -973.5666    6080.3278    38.737212    39.547898    23.615385 
 3990800      225.688   -468.41444    216156.16   -22116.274    1429.5577   -23545.832   -1294.4798    6081.2379    38.738325    39.548997    23.608913 
 3991000    225.64468   -379.58952    216156.16    -22076.22    1429.2834   -23505.504   -928.10148    6081.5026    38.739244    39.549426    23.608696 
 3991200    231.67448   -298.17888    216156.16   -22064.637    1467.4775   -23532.115   -594.28063     6081.428    38.740197     39.54814     23.61754 
 3991400    227.38406   -471.88822    216156.16   -22056.079     1440.301    -23496.38   -1351.1722    6084.6253    38.740373    39.547904    23.617991 
 3991600    223.06431   -495.48828    216156.16   -22105.691    1412.9387    -23518.63   -1400.0077     6083.471    38.741997     39.54814    23.618902 
 3991800     221.7357   -449.40637    216156.16   -22173.576     1404.523   -23578.099   -1235.2933    6083.9742    38.742954    39.548507    23.615244 
 3992000    219.89974   -450.29469    216156.16   -22119.333    1392.8936   -23512.227   -1225.4699    6082.9512    38.742314    39.549231    23.618113 
 3992200    221.96589   -369.62272    216156.16   -22108.998    1405.9811   -23514.979   -915.92539    6081.1781    38.744252    39.549956    23.611951 
 3992400    224.04753   -240.85125    216156.16   -22114.887    1419.1666   -23534.054   -370.69663    6080.3781    38.743941    39.550146    23.613773 
 3992600    226.56642   -512.47339    216156.16   -22115.941    1435.1218   -23551.062   -1495.3011    6081.9681    38.744963    39.550239    23.610412 
 3992800    226.78648   -394.99635    216156.16   -22107.242    1436.5158   -23543.757   -965.17435     6083.281    38.744807    39.551859    23.611162 
 3993000    222.91373   -359.98431    216156.16   -22197.493    1411.9849   -23609.478   -904.97497    6082.2506    38.744771    39.551243    23.609838 
 3993200    223.09587   -371.42752    216156.16   -22114.303    1413.1386   -23527.442   -928.42451    6083.3142    38.744735    39.551904    23.610363 
 3993400    227.43039   -474.55189    216156.16    -22073.24    1440.5944   -23513.834   -1328.2244    6082.0759    38.744392    39.551891     23.60853 
 3993600    230.04739   -410.52104    216156.16   -22090.261    1457.1711   -23547.432   -1064.3038    6083.6837    38.746258    39.552598     23.60347 
 3993800    229.95793   -322.44791    216156.16   -22103.762    1456.6044   -23560.367   -709.30991    6081.3399    38.745564    39.552492    23.603729 
 3994000    224.36053   -327.55994    216156.16   -22121.722    1421.1493   -23542.871   -758.26583    6082.3858    38.745425     39.55185    23.605805 
 3994200    227.16678   -481.66005    216156.16   -22146.676    1438.9247     -23585.6   -1360.0458    6083.4563    38.746504    39.553645    23.610868 
 3994400    224.57934   -427.86917    216156.16   -22117.481    1422.5353   -23540.016    -1136.347    6083.2565    38.747935    39.553737    23.605043 
 3994600    220.83862   -344.64687    216156.16   -22180.603    1398.8407   -23579.443   -760.38487     6083.401    38.748893    39.554046    23.605325 
 3994800     226.8213   -323.96724    216156.16   -22086.331    1436.7363   -23523.067   -684.16525    6081.8812    38.749823     39.55385    23.607235 
 3995000    226.13002   -391.86734    216156.16   -22093.368    1432.3576   -23525.726   -992.81994    6081.5747    38.750183    39.553482    23.606155 
 3995200    225.08818   -300.51987    216156.16   -22153.053    1425.7584   -23578.811   -609.71919    6082.6088    38.750258    39.553428     23.60003 
 3995400    222.00846   -385.33682    216156.16   -22098.881    1406.2507   -23505.132   -961.60703    6082.8596    38.750443    39.554102    23.601696 
 3995600    230.24869   -387.31935    216156.16    -22036.78    1458.4461   -23495.226   -930.03043    6081.7232    38.750772     39.55435    23.599846 
 3995800    226.64205   -396.74311    216156.16    -22055.41    1435.6009   -23491.011   -1028.5831    6082.6233    38.751689    39.554427    23.595636 
 3996000    231.96914   -382.41187    216156.16    -22002.63    1469.3439   -23471.973   -923.94885    6082.9186    38.751489    39.555252    23.602396 
 3996200    232.08257   -360.46235    216156.16   -22082.725    1470.0624   -23552.787   -799.63064    6082.8228    38.751499    39.555453    23.611417 
 3996400    221.00167   -337.78404    216156.16   -22118.535    1399.8735   -23518.409   -735.90287    6083.2201    38.751898    39.555936    23.610921 
 3996600    225.43892   -376.06078    216156.16   -22091.145      1427.98   -23519.125   -939.11016    6082.1956    38.754129    39.556769    23.610444 
 3996800    221.41703   -149.82865    216156.16   -22131.053    1402.5045   -23533.557    4.2058889    6082.3804    38.753785    39.556756    23.611562 
 3997000    231.28495   -285.39566    216156.16   -22024.154    1465.0101   -23489.164   -527.45332    6082.0047    38.754117    39.557432    23.610571 
 3997200    225.45164   -463.92647    216156.16   -22080.611    1428.0606   -23508.671    -1293.518    6084.4212    38.754896    39.557505    23.614105 
 3997400    223.10327   -434.59441    216156.16   -22141.382    1413.1855   -23554.568   -1181.3011    6082.3733    38.754831    39.557674    23.610324 
 3997600     225.7287   -303.30763    216156.16   -22070.812    1429.8155   -23500.628   -654.03642    6082.6633    38.755465    39.557725    23.616862 
 3997800     215.2441   -361.58262    216156.16   -22193.124    1363.4038   -23556.528   -915.14621    6082.8526    38.755604    39.557675    23.618545 
 3998000    224.72621   -424.58472    216156.16   -22125.122    1423.4655   -23548.587   -1147.9005    6082.3399    38.756126    39.557613    23.621774 
 3998200    220.13433   -418.62672    216156.16   -22169.703    1394.3796   -23564.083   -1086.9074    6082.5013    38.756962    39.558791    23.613404 
 3998400    227.74889   -368.37656    216156.16   -22036.819    1442.6119   -23479.431   -882.25567    6081.4127    38.756368    39.560493    23.615846 
 3998600    223.29646   -436.96164    216156.16   -22132.731    1414.4092    -23547.14   -1229.4127    6081.7037    38.757092    39.560832    23.616585 
 3998800    224.71565   -353.59274    216156.16   -22122.648    1423.3986   -23546.047   -845.86744    6080.6752    38.756291    39.560661    23.609269 
 3999000    227.48775   -376.92013    216156.16   -22069.332    1440.9578    -23510.29   -976.99196    6082.5277     38.75635    39.561622    23.616645 
 3999200     224.1765   -488.40532    216156.16   -22119.803    1419.9836   -23539.787   -1400.8644    6082.3849    38.756591    39.562099     23.61244 
 3999400    219.66748   -340.97145    216156.16   -22147.207    1391.4224   -23538.629   -792.74847    6082.8967    38.756143    39.561785    23.606738 
 3999600    216.69938    -371.3665    216156.16   -22164.407    1372.6218   -23537.029   -914.40532    6081.5856    38.756036    39.562397     23.60134 
 3999800     225.2225   -381.53658    216156.16   -22084.859    1426.6092   -23511.469   -970.70691     6083.044    38.756255    39.563041    23.603948 
 4000000     227.8427   -472.96695    216156.16   -22088.549    1443.2061   -23531.755   -1329.3904    6083.6099    38.754993    39.563205    23.610017 
Loop time of 6191.63 on 120 procs for 4000000 steps with 9422 atoms

Performance: 558.173 ns/day, 0.043 hours/ns, 646.034 timesteps/s
98.1% CPU use with 120 MPI tasks x no OpenMP threads

MPI task timing breakdown:
Section |  min time  |  avg time  |  max time  |%varavg| %total
---------------------------------------------------------------
Pair    | 0.33792    | 1625.6     | 4777       |3851.9 | 26.25
Neigh   | 2.7879     | 98.191     | 323.21     |1043.4 |  1.59
Comm    | 401.44     | 2344.5     | 4835.4     |3053.3 | 37.87
Output  | 70.24      | 70.294     | 71.743     |   1.6 |  1.14
Modify  | 324.09     | 2014       | 5675.2     |4901.3 | 32.53
Other   |            | 39.06      |            |       |  0.63

Nlocal:    78.5167 ave 207 max 0 min
Histogram: 33 26 20 1 0 0 0 2 18 20
Nghost:    691.325 ave 904 max 528 min
Histogram: 32 1 14 2 20 11 11 8 10 11
Neighs:    0 ave 0 max 0 min
Histogram: 120 0 0 0 0 0 0 0 0 0
FullNghs:  7911.02 ave 25035 max 0 min
Histogram: 67 13 0 0 0 0 0 8 20 12

Total # of neighbors = 949322
Ave neighs/atom = 100.756
Neighbor list builds = 427735
Dangerous builds = 0
write_data 		${DIR}/data.${NAME}_run
write_data 		run_19/data.${NAME}_run
write_data 		run_19/data.ibeam_cooling_19_run
Total wall time: 1:43:28
