
### Dimensions ###
variable Z_G equal 10.062000000000001
variable Z_W equal 23.803019087

variable	XDIM string 78.752
variable 	YDIM string 80.86108639999017


### IMPORT ATOMS ###
read_data ../Box_Setup/data.Ibeam_240K
  orthogonal box = (0 0 0) to (78.752 80.8611 33.9443)
  5 by 8 by 3 MPI processor grid
  reading atoms ...
  9422 atoms
  reading velocities ...
  9422 velocities
group water type 2
2126 atoms in group water
group graphite type 1
7296 atoms in group graphite


# Define potential
#
pair_style          sw
pair_coeff * * MLC_e.sw C mW

# Add velocity/set timestep
#

fix		1 graphite setforce 0.0 0.0 0.0
velocity 	graphite set 0.0 0.0 0.0
velocity            water create ${START_TEMP} ${SEED} rot yes dist gaussian
velocity            water create 235 ${SEED} rot yes dist gaussian
velocity            water create 235 27863 rot yes dist gaussian
timestep            5.0

# Define output
#
compute 1 water msd
compute 2 water temp


thermo	            100
thermo_style custom step c_2 press vol etotal ke pe c_1[4] density

# Neighbor lists
#
neigh_modify        delay 0 every 1 check yes


# Set fixes
#
fix                 2 water momentum 10 linear 1 1 1 rescale
fix                 3 all nve
fix                 4 water temp/csvr ${START_TEMP} ${START_TEMP} 500.0 928347
fix                 4 water temp/csvr 235 ${START_TEMP} 500.0 928347
fix                 4 water temp/csvr 235 235 500.0 928347

# Run 0.05 ns equilibration
#
dump                1 all custom 100 ${DIR}/eq.${NAME}.dump id type x y z vx vy vz
dump                1 all custom 100 run_19/eq.${NAME}.dump id type x y z vx vy vz
dump                1 all custom 100 run_19/eq.ibeam_cooling_19.dump id type x y z vx vy vz
run                 10000
Neighbor list info ...
  update every 1 steps, delay 0 steps, check yes
  max neighbors/atom: 2000, page size: 100000
  master list distance cutoff = 6.67472
  ghost atom cutoff = 6.67472
  binsize = 3.33736, bins = 24 25 11
  1 neighbor lists, perpetual/occasional/extra = 1 0 0
  (1) pair sw, perpetual
      attributes: full, newton on
      pair build: full/bin/atomonly
      stencil: full/bin/3d
      bin: standard
Per MPI rank memory allocation (min/avg/max) = 3.374 | 4.228 | 4.744 Mbytes
Step c_2 Press Volume TotEng KinEng PotEng c_1[4] Density 
       0          235   -349.74665    216156.16   -20108.674     1488.542   -21597.216            0   0.96737059 
     100    230.59633   -496.03815    216156.16   -20128.681    1460.6482    -21589.33   0.83685545   0.96737059 
     200     236.3592   -322.11608    216156.16   -20165.699    1497.1515    -21662.85    1.2922915   0.96737059 
     300    235.52982    -300.2527    216156.16   -20165.682     1491.898    -21657.58    1.7417051   0.96737059 
     400    238.62622   -279.89573    216156.16   -20183.389    1511.5113     -21694.9    2.2285251   0.96737059 
     500     234.5894   -419.28387    216156.16   -20176.456    1485.9412   -21662.397    2.5860785   0.96737059 
     600     241.4585   -260.53638    216156.16   -20125.446    1529.4516   -21654.897    2.9335579   0.96737059 
     700    236.88704   -290.51001    216156.16   -20143.112     1500.495   -21643.607      3.31391   0.96737059 
     800    243.71408   -394.72621    216156.16   -20132.132    1543.7389   -21675.871    3.7265399   0.96737059 
     900    236.31931   -524.63668    216156.16   -20173.511    1496.8988    -21670.41    4.2317797   0.96737059 
    1000    236.47505   -450.48878    216156.16   -20230.383    1497.8853   -21728.268    4.5300152   0.96737059 
    1100    236.03765   -449.61414    216156.16   -20208.601    1495.1147   -21703.716    4.7944788   0.96737059 
    1200    232.87702   -413.76108    216156.16   -20209.625    1475.0946    -21684.72     4.994059   0.96737059 
    1300    236.86393   -437.95356    216156.16   -20166.039    1500.3486   -21666.387     5.289028   0.96737059 
    1400      238.138   -380.13193    216156.16   -20194.856    1508.4188   -21703.274    5.4957342   0.96737059 
    1500    232.85884   -297.50132    216156.16   -20231.306    1474.9794   -21706.285    5.8153325   0.96737059 
    1600    240.04176   -535.96184    216156.16   -20222.738    1520.4776   -21743.215    6.1222823   0.96737059 
    1700    237.65465   -355.27285    216156.16   -20244.208    1505.3572   -21749.565    6.5060227   0.96737059 
    1800    233.42468     -350.115    216156.16   -20216.858    1478.5636   -21695.422    6.7559077   0.96737059 
    1900    237.99097     -410.818    216156.16    -20175.88    1507.4875   -21683.368    6.8476169   0.96737059 
    2000    236.69163   -455.10121    216156.16   -20141.632    1499.2572    -21640.89    6.9432823   0.96737059 
    2100    234.07994   -478.05699    216156.16   -20228.864    1482.7141   -21711.578    7.3080529   0.96737059 
    2200    240.37665   -416.33599    216156.16   -20199.183    1522.5989   -21721.782    7.5184467   0.96737059 
    2300     238.9646   -432.32073    216156.16   -20186.443    1513.6547   -21700.098    7.8138511   0.96737059 
    2400    239.26607   -515.60403    216156.16   -20201.448    1515.5642   -21717.013    8.1222713   0.96737059 
    2500    242.61322   -303.82573    216156.16   -20221.068    1536.7658   -21757.834    8.2927284   0.96737059 
    2600     236.2619   -317.51011    216156.16   -20255.499    1496.5352   -21752.034    8.4806782   0.96737059 
    2700    230.34043   -414.11543    216156.16   -20232.021    1459.0272   -21691.048    8.7154423   0.96737059 
    2800     244.0611   -391.40512    216156.16   -20168.042     1545.937   -21713.979     8.942664   0.96737059 
    2900    237.41285   -121.73941    216156.16    -20192.25    1503.8255   -21696.076    9.3384891   0.96737059 
    3000    244.63293   -408.37316    216156.16   -20198.015    1549.5591   -21747.574    9.7219864   0.96737059 
    3100    237.42699   -456.58763    216156.16   -20200.541    1503.9151   -21704.456    9.9069855   0.96737059 
    3200    238.93036   -316.94759    216156.16   -20256.757    1513.4378   -21770.195    9.9995863   0.96737059 
    3300    229.19595   -408.05064    216156.16   -20330.911    1451.7779   -21782.689    10.423704   0.96737059 
    3400    235.43993   -523.67504    216156.16   -20269.869    1491.3286   -21761.198    10.405944   0.96737059 
    3500    237.63398   -213.47747    216156.16   -20264.536    1505.2262   -21769.762    10.663122   0.96737059 
    3600    236.54492   -323.46676    216156.16   -20267.229    1498.3279   -21765.557     11.00451   0.96737059 
    3700    245.18502   -380.14826    216156.16   -20231.646    1553.0562   -21784.702    11.429401   0.96737059 
    3800     235.3076   -469.43301    216156.16   -20226.558    1490.4904   -21717.048    11.653029   0.96737059 
    3900    229.65685   -338.10018    216156.16   -20236.793    1454.6973    -21691.49    11.839221   0.96737059 
    4000    235.73434   -436.68543    216156.16   -20245.655    1493.1935   -21738.848      12.1562   0.96737059 
    4100     237.2239   -445.78318    216156.16   -20238.293    1502.6287   -21740.922    12.614295   0.96737059 
    4200    234.68453   -363.27705    216156.16   -20241.771    1486.5437   -21728.315     13.16646   0.96737059 
    4300    230.97626   -313.03901    216156.16   -20301.702    1463.0548   -21764.757    13.260739   0.96737059 
    4400    230.59237   -441.71461    216156.16   -20249.606    1460.6231   -21710.229    13.471595   0.96737059 
    4500    240.74978   -427.76227    216156.16   -20280.215    1524.9624   -21805.178    13.886987   0.96737059 
    4600    231.13148   -389.27831    216156.16   -20307.939    1464.0379   -21771.977    14.441593   0.96737059 
    4700    237.52149   -377.45154    216156.16   -20242.142    1504.5137   -21746.656    14.807884   0.96737059 
    4800    237.35765   -505.01576    216156.16   -20206.659    1503.4759   -21710.135    14.965442   0.96737059 
    4900    243.92585   -427.59117    216156.16   -20168.228    1545.0803   -21713.308    15.253002   0.96737059 
    5000    229.55672   -467.29384    216156.16   -20217.464    1454.0631   -21671.527    15.713546   0.96737059 
    5100    240.92938   -248.97938    216156.16   -20176.678       1526.1   -21702.778    16.079395   0.96737059 
    5200    235.80542   -368.97564    216156.16   -20206.968    1493.6437   -21700.612    16.538901   0.96737059 
    5300    232.51093   -454.60167    216156.16   -20263.633    1472.7757   -21736.409    17.020616   0.96737059 
    5400    231.44354   -408.39079    216156.16   -20248.671    1466.0146   -21714.685    17.279709   0.96737059 
    5500    228.50488   -512.98873    216156.16   -20236.698    1447.4005   -21684.099    17.696277   0.96737059 
    5600    230.66134   -127.99069    216156.16   -20253.016      1461.06   -21714.076    17.866513   0.96737059 
    5700    224.75768   -419.53907    216156.16   -20231.504    1423.6649   -21655.169    18.425348   0.96737059 
    5800    238.51446   -393.10316    216156.16   -20211.123    1510.8034   -21721.926    18.679054   0.96737059 
    5900    231.18906   -326.80306    216156.16   -20233.755    1464.4027   -21698.157    18.954083   0.96737059 
    6000    234.18864   -416.98337    216156.16    -20249.32    1483.4027   -21732.722    19.174203   0.96737059 
    6100    236.35776    -201.1121    216156.16    -20268.01    1497.1424   -21765.152    19.240773   0.96737059 
    6200    237.43241   -197.71524    216156.16   -20272.995    1503.9494   -21776.944    19.443047   0.96737059 
    6300    234.36253   -368.75325    216156.16   -20216.835    1484.5041    -21701.34    19.846976   0.96737059 
    6400     236.7646   -467.17934    216156.16   -20252.815    1499.7194   -21752.534    20.236624   0.96737059 
    6500    233.89996   -551.72432    216156.16   -20276.056    1481.5741    -21757.63    20.396618   0.96737059 
    6600     233.5629   -493.22827    216156.16   -20281.535    1479.4391   -21760.974    20.338682   0.96737059 
    6700    228.27025   -397.23463    216156.16   -20305.774    1445.9143   -21751.688    20.907798   0.96737059 
    6800    230.52584   -337.93732    216156.16   -20270.577    1460.2017   -21730.778    21.182313   0.96737059 
    6900    232.31915   -145.90055    216156.16   -20224.686    1471.5609   -21696.247    21.369656   0.96737059 
    7000    236.19985    -291.9778    216156.16   -20218.682    1496.1421   -21714.824    21.450237   0.96737059 
    7100     237.6911    -370.1352    216156.16   -20218.408     1505.588   -21723.996    21.822476   0.96737059 
    7200    229.92884   -263.82333    216156.16   -20271.508    1456.4202   -21727.928    22.073354   0.96737059 
    7300    226.18262   -97.999264    216156.16   -20303.533    1432.6908   -21736.223    22.323824   0.96737059 
    7400    231.25661   -346.83158    216156.16   -20270.406    1464.8305   -21735.237    22.631654   0.96737059 
    7500    234.34788   -377.90095    216156.16   -20230.864    1484.4113   -21715.275    23.222259   0.96737059 
    7600    239.25925   -308.60426    216156.16       -20182     1515.521   -21697.521    23.611792   0.96737059 
    7700    234.46842   -300.43719    216156.16   -20220.781    1485.1749   -21705.955    24.035857   0.96737059 
    7800    231.02264   -412.18719    216156.16   -20268.278    1463.3485   -21731.626    24.316789   0.96737059 
    7900    230.98826   -469.10345    216156.16   -20222.353    1463.1308   -21685.484    24.743408   0.96737059 
    8000    238.45254   -330.42014    216156.16   -20179.256    1510.4112   -21689.667    24.849131   0.96737059 
    8100    236.39069   -423.63117    216156.16    -20171.58     1497.351   -21668.931    24.929337   0.96737059 
    8200    240.06492   -298.47741    216156.16   -20174.703    1520.6244   -21695.327    25.046881   0.96737059 
    8300    237.03002   -204.65738    216156.16   -20144.075    1501.4006   -21645.476    25.509333   0.96737059 
    8400    238.46427   -410.05887    216156.16   -20119.152    1510.4855   -21629.638    25.523576   0.96737059 
    8500    237.57418   -651.55953    216156.16   -20160.231    1504.8474   -21665.079    25.791207   0.96737059 
    8600    233.66084   -384.21625    216156.16    -20180.28    1480.0595   -21660.339     26.10474   0.96737059 
    8700    231.45977   -323.16243    216156.16   -20204.996    1466.1174   -21671.113    26.333483   0.96737059 
    8800    231.23122   -415.23254    216156.16   -20221.124    1464.6697   -21685.794    26.404034   0.96737059 
    8900    239.52781   -528.11851    216156.16   -20240.418    1517.2222    -21757.64    26.488927   0.96737059 
    9000    232.83034   -195.21598    216156.16   -20211.288    1474.7989   -21686.087    26.573746   0.96737059 
    9100     233.7892   -270.74148    216156.16   -20229.151    1480.8726   -21710.024    26.919098   0.96737059 
    9200    231.21313   -349.57705    216156.16   -20175.918    1464.5552   -21640.473    27.145291   0.96737059 
    9300    240.07163   -422.37348    216156.16   -20241.739    1520.6669   -21762.406    27.435675   0.96737059 
    9400    234.59428   -481.17117    216156.16    -20241.14    1485.9721   -21727.112    27.802775   0.96737059 
    9500    232.46286   -255.02772    216156.16   -20270.937    1472.4712   -21743.408    27.805268   0.96737059 
    9600    230.12138   -418.49463    216156.16   -20268.187    1457.6398   -21725.827     28.15013   0.96737059 
    9700    235.79429   -540.23235    216156.16   -20211.525    1493.5732   -21705.099    28.349943   0.96737059 
    9800    233.78976   -217.44829    216156.16   -20183.536    1480.8761   -21664.412    28.481972   0.96737059 
    9900    241.22385   -342.94988    216156.16   -20193.578    1527.9653   -21721.544    29.019435   0.96737059 
   10000    231.92247   -401.78244    216156.16   -20204.612    1469.0482   -21673.661    29.520363   0.96737059 
Loop time of 16.103 on 120 procs for 10000 steps with 9422 atoms

Performance: 268.273 ns/day, 0.089 hours/ns, 621.003 timesteps/s
98.0% CPU use with 120 MPI tasks x no OpenMP threads

MPI task timing breakdown:
Section |  min time  |  avg time  |  max time  |%varavg| %total
---------------------------------------------------------------
Pair    | 0.00084376 | 4.3149     | 13.001     | 202.0 | 26.80
Neigh   | 0.0037067  | 0.13354    | 0.42825    |  38.2 |  0.83
Comm    | 0.2952     | 6.051      | 13.246     | 162.7 | 37.58
Output  | 0.16252    | 0.16266    | 0.1696     |   0.2 |  1.01
Modify  | 0.75056    | 5.3357     | 15.534     | 254.3 | 33.13
Other   |            | 0.1051     |            |       |  0.65

Nlocal:    78.5167 ave 209 max 0 min
Histogram: 32 31 13 4 0 0 0 2 18 20
Nghost:    694.742 ave 938 max 528 min
Histogram: 32 3 13 3 29 1 15 5 11 8
Neighs:    0 ave 0 max 0 min
Histogram: 120 0 0 0 0 0 0 0 0 0
FullNghs:  8002.4 ave 25378 max 0 min
Histogram: 67 13 0 0 0 0 0 10 18 12

Total # of neighbors = 960288
Ave neighs/atom = 101.92
Neighbor list builds = 570
Dangerous builds = 0
write_data 	    ${DIR}/data.${NAME}_eq
write_data 	    run_19/data.${NAME}_eq
write_data 	    run_19/data.ibeam_cooling_19_eq

undump              1
unfix               4



################################################
#######         Run Simulation         #########
################################################

reset_timestep      0
timestep	    10.0
log                 ${DIR}/log.run_${NAME}
log                 run_19/log.run_${NAME}
log                 run_19/log.run_ibeam_cooling_19
