LAMMPS data file via write_data, version 16 Mar 2018, timestep = 5200000

9253 atoms
2 atom types

0.0000000000000000e+00 1.5750399999999999e+02 xlo xhi
0.0000000000000000e+00 4.2924150766889888e+01 ylo yhi
0.0000000000000000e+00 2.6855660523478988e+01 zlo zhi

Masses

1 12.01
2 18.015

Atoms # atomic

1 1 0.0000000000000000e+00 2.8417180249513345e+00 1.6770000000000000e+00 0 0 0
3 1 0.0000000000000000e+00 0.0000000000000000e+00 1.6770000000000000e+00 0 0 0
5 1 1.2304999999999999e+00 7.1042950623783474e-01 1.6770000000000000e+00 0 0 0
12 1 1.2304999999999999e+00 2.1312885187134998e+00 1.6770000000000000e+00 0 0 0
14 1 2.4609999999999999e+00 2.8417180249513345e+00 1.6770000000000000e+00 0 0 0
16 1 2.4609999999999999e+00 0.0000000000000000e+00 1.6770000000000000e+00 0 0 0
18 1 3.6915000000000000e+00 7.1042950623783474e-01 1.6770000000000000e+00 0 0 0
33 1 3.6914999999999996e+00 2.1312885187134998e+00 1.6770000000000000e+00 0 0 0
35 1 4.9219999999999997e+00 2.8417180249513341e+00 1.6770000000000000e+00 0 0 0
37 1 4.9219999999999997e+00 0.0000000000000000e+00 1.6770000000000000e+00 0 0 0
39 1 6.1524999999999999e+00 7.1042950623783430e-01 1.6770000000000000e+00 0 0 0
62 1 6.1524999999999999e+00 2.1312885187134993e+00 1.6770000000000000e+00 0 0 0
64 1 7.3829999999999991e+00 2.8417180249513345e+00 1.6770000000000000e+00 0 0 0
66 1 7.3829999999999991e+00 0.0000000000000000e+00 1.6770000000000000e+00 0 0 0
68 1 8.6134999999999984e+00 7.1042950623783430e-01 1.6770000000000000e+00 0 0 0
99 1 8.6134999999999984e+00 2.1312885187135002e+00 1.6770000000000000e+00 0 0 0
6 1 0.0000000000000000e+00 7.1042950623783341e+00 1.6770000000000000e+00 0 0 0
8 1 0.0000000000000000e+00 4.2625770374269996e+00 1.6770000000000000e+00 0 0 0
10 1 1.2305000000000001e+00 4.9730065436648339e+00 1.6770000000000000e+00 0 0 0
25 1 1.2304999999999999e+00 6.3938655561404989e+00 1.6770000000000000e+00 0 0 0
27 1 2.4609999999999999e+00 7.1042950623783341e+00 1.6770000000000000e+00 0 0 0
29 1 2.4609999999999999e+00 4.2625770374269996e+00 1.6770000000000000e+00 0 0 0
31 1 3.6914999999999996e+00 4.9730065436648339e+00 1.6770000000000000e+00 0 0 0
54 1 3.6914999999999996e+00 6.3938655561404989e+00 1.6770000000000000e+00 0 0 0
56 1 4.9219999999999997e+00 7.1042950623783341e+00 1.6770000000000000e+00 0 0 0
58 1 4.9219999999999997e+00 4.2625770374269987e+00 1.6770000000000000e+00 0 0 0
60 1 6.1524999999999999e+00 4.9730065436648339e+00 1.6770000000000000e+00 0 0 0
91 1 6.1524999999999999e+00 6.3938655561404989e+00 1.6770000000000000e+00 0 0 0
93 1 7.3830000000000000e+00 7.1042950623783341e+00 1.6770000000000000e+00 0 0 0
95 1 7.3829999999999991e+00 4.2625770374269996e+00 1.6770000000000000e+00 0 0 0
97 1 8.6135000000000002e+00 4.9730065436648339e+00 1.6770000000000000e+00 0 0 0
133 1 8.6135000000000002e+00 6.3938655561404998e+00 1.6770000000000000e+00 0 0 0
21 1 0.0000000000000000e+00 8.5251540748539991e+00 1.6770000000000000e+00 0 0 0
23 1 1.2304999999999997e+00 9.2355835810918343e+00 1.6770000000000000e+00 0 0 0
46 1 1.2304999999999997e+00 1.0656442593567498e+01 1.6770000000000000e+00 0 0 0
50 1 2.4609999999999994e+00 8.5251540748539991e+00 1.6770000000000000e+00 0 0 0
52 1 3.6915000000000000e+00 9.2355835810918343e+00 1.6770000000000000e+00 0 0 0
83 1 3.6914999999999996e+00 1.0656442593567499e+01 1.6770000000000000e+00 0 0 0
87 1 4.9219999999999997e+00 8.5251540748539991e+00 1.6770000000000000e+00 0 0 0
89 1 6.1524999999999999e+00 9.2355835810918343e+00 1.6770000000000000e+00 0 0 0
125 1 6.1524999999999999e+00 1.0656442593567499e+01 1.6770000000000000e+00 0 0 0
129 1 7.3830000000000000e+00 8.5251540748539991e+00 1.6770000000000000e+00 0 0 0
131 1 8.6134999999999984e+00 9.2355835810918343e+00 1.6770000000000000e+00 0 0 0
167 1 8.6134999999999984e+00 1.0656442593567498e+01 1.6770000000000000e+00 0 0 0
2 1 0.0000000000000000e+00 1.4208590124756650e+00 5.0310000000000006e+00 0 0 0
4 1 0.0000000000000000e+00 0.0000000000000000e+00 5.0310000000000006e+00 0 0 0
11 1 1.2304999999999999e+00 3.5521475311891648e+00 5.0310000000000006e+00 0 0 0
13 1 1.2304999999999999e+00 2.1312885187134998e+00 5.0310000000000006e+00 0 0 0
15 1 2.4609999999999999e+00 1.4208590124756650e+00 5.0310000000000006e+00 0 0 0
17 1 2.4609999999999999e+00 0.0000000000000000e+00 5.0310000000000006e+00 0 0 0
32 1 3.6914999999999996e+00 3.5521475311891648e+00 5.0310000000000006e+00 0 0 0
34 1 3.6914999999999996e+00 2.1312885187134998e+00 5.0310000000000006e+00 0 0 0
36 1 4.9219999999999997e+00 1.4208590124756650e+00 5.0310000000000006e+00 0 0 0
38 1 4.9219999999999997e+00 0.0000000000000000e+00 5.0310000000000006e+00 0 0 0
61 1 6.1524999999999999e+00 3.5521475311891653e+00 5.0310000000000006e+00 0 0 0
63 1 6.1524999999999999e+00 2.1312885187134993e+00 5.0310000000000006e+00 0 0 0
65 1 7.3829999999999991e+00 1.4208590124756659e+00 5.0310000000000006e+00 0 0 0
67 1 7.3829999999999991e+00 0.0000000000000000e+00 5.0310000000000006e+00 0 0 0
98 1 8.6134999999999984e+00 3.5521475311891662e+00 5.0310000000000006e+00 0 0 0
100 1 8.6134999999999984e+00 2.1312885187135002e+00 5.0310000000000006e+00 0 0 0
7 1 0.0000000000000000e+00 5.6834360499026646e+00 5.0310000000000006e+00 0 0 0
9 1 0.0000000000000000e+00 4.2625770374269996e+00 5.0310000000000006e+00 0 0 0
26 1 1.2304999999999999e+00 6.3938655561404989e+00 5.0310000000000006e+00 0 0 0
28 1 2.4609999999999999e+00 5.6834360499026646e+00 5.0310000000000006e+00 0 0 0
30 1 2.4609999999999999e+00 4.2625770374269996e+00 5.0310000000000006e+00 0 0 0
55 1 3.6914999999999996e+00 6.3938655561404989e+00 5.0310000000000006e+00 0 0 0
57 1 4.9219999999999997e+00 5.6834360499026655e+00 5.0310000000000006e+00 0 0 0
59 1 4.9219999999999997e+00 4.2625770374269987e+00 5.0310000000000006e+00 0 0 0
92 1 6.1524999999999999e+00 6.3938655561404989e+00 5.0310000000000006e+00 0 0 0
94 1 7.3829999999999991e+00 5.6834360499026655e+00 5.0310000000000006e+00 0 0 0
96 1 7.3829999999999991e+00 4.2625770374269996e+00 5.0310000000000006e+00 0 0 0
134 1 8.6135000000000002e+00 6.3938655561404998e+00 5.0310000000000006e+00 0 0 0
20 1 0.0000000000000000e+00 9.9460130873296642e+00 5.0310000000000006e+00 0 0 0
22 1 0.0000000000000000e+00 8.5251540748539991e+00 5.0310000000000006e+00 0 0 0
24 1 1.2304999999999997e+00 7.8147245686161639e+00 5.0310000000000006e+00 0 0 0
47 1 1.2304999999999997e+00 1.0656442593567498e+01 5.0310000000000006e+00 0 0 0
49 1 2.4609999999999994e+00 9.9460130873296642e+00 5.0310000000000006e+00 0 0 0
51 1 2.4609999999999994e+00 8.5251540748539991e+00 5.0310000000000006e+00 0 0 0
53 1 3.6914999999999996e+00 7.8147245686161648e+00 5.0310000000000006e+00 0 0 0
84 1 3.6914999999999996e+00 1.0656442593567499e+01 5.0310000000000006e+00 0 0 0
86 1 4.9219999999999997e+00 9.9460130873296659e+00 5.0310000000000006e+00 0 0 0
88 1 4.9219999999999997e+00 8.5251540748539991e+00 5.0310000000000006e+00 0 0 0
90 1 6.1524999999999999e+00 7.8147245686161657e+00 5.0310000000000006e+00 0 0 0
126 1 6.1524999999999999e+00 1.0656442593567499e+01 5.0310000000000006e+00 0 0 0
128 1 7.3830000000000000e+00 9.9460130873296642e+00 5.0310000000000006e+00 0 0 0
130 1 7.3830000000000000e+00 8.5251540748539991e+00 5.0310000000000006e+00 0 0 0
132 1 8.6135000000000002e+00 7.8147245686161639e+00 5.0310000000000006e+00 0 0 0
168 1 8.6134999999999984e+00 1.0656442593567498e+01 5.0310000000000006e+00 0 0 0
463 1 0.0000000000000000e+00 2.8417180249513345e+00 8.3849999999999998e+00 0 0 0
464 1 0.0000000000000000e+00 0.0000000000000000e+00 8.3849999999999998e+00 0 0 0
465 1 1.2304999999999999e+00 7.1042950623783474e-01 8.3849999999999998e+00 0 0 0
469 1 1.2304999999999999e+00 2.1312885187134998e+00 8.3849999999999998e+00 0 0 0
470 1 2.4609999999999999e+00 2.8417180249513345e+00 8.3849999999999998e+00 0 0 0
471 1 2.4609999999999999e+00 0.0000000000000000e+00 8.3849999999999998e+00 0 0 0
472 1 3.6915000000000000e+00 7.1042950623783474e-01 8.3849999999999998e+00 0 0 0
480 1 3.6914999999999996e+00 2.1312885187134998e+00 8.3849999999999998e+00 0 0 0
481 1 4.9219999999999997e+00 2.8417180249513341e+00 8.3849999999999998e+00 0 0 0
482 1 4.9219999999999997e+00 0.0000000000000000e+00 8.3849999999999998e+00 0 0 0
483 1 6.1524999999999999e+00 7.1042950623783430e-01 8.3849999999999998e+00 0 0 0
495 1 6.1524999999999999e+00 2.1312885187134993e+00 8.3849999999999998e+00 0 0 0
496 1 7.3829999999999991e+00 2.8417180249513345e+00 8.3849999999999998e+00 0 0 0
497 1 7.3829999999999991e+00 0.0000000000000000e+00 8.3849999999999998e+00 0 0 0
498 1 8.6134999999999984e+00 7.1042950623783430e-01 8.3849999999999998e+00 0 0 0
514 1 8.6134999999999984e+00 2.1312885187135002e+00 8.3849999999999998e+00 0 0 0
466 1 0.0000000000000000e+00 7.1042950623783341e+00 8.3849999999999998e+00 0 0 0
467 1 0.0000000000000000e+00 4.2625770374269996e+00 8.3849999999999998e+00 0 0 0
468 1 1.2305000000000001e+00 4.9730065436648339e+00 8.3849999999999998e+00 0 0 0
476 1 1.2304999999999999e+00 6.3938655561404989e+00 8.3849999999999998e+00 0 0 0
477 1 2.4609999999999999e+00 7.1042950623783341e+00 8.3849999999999998e+00 0 0 0
478 1 2.4609999999999999e+00 4.2625770374269996e+00 8.3849999999999998e+00 0 0 0
479 1 3.6914999999999996e+00 4.9730065436648339e+00 8.3849999999999998e+00 0 0 0
491 1 3.6914999999999996e+00 6.3938655561404989e+00 8.3849999999999998e+00 0 0 0
492 1 4.9219999999999997e+00 7.1042950623783341e+00 8.3849999999999998e+00 0 0 0
493 1 4.9219999999999997e+00 4.2625770374269987e+00 8.3849999999999998e+00 0 0 0
494 1 6.1524999999999999e+00 4.9730065436648339e+00 8.3849999999999998e+00 0 0 0
510 1 6.1524999999999999e+00 6.3938655561404989e+00 8.3849999999999998e+00 0 0 0
511 1 7.3830000000000000e+00 7.1042950623783341e+00 8.3849999999999998e+00 0 0 0
512 1 7.3829999999999991e+00 4.2625770374269996e+00 8.3849999999999998e+00 0 0 0
513 1 8.6135000000000002e+00 4.9730065436648339e+00 8.3849999999999998e+00 0 0 0
531 1 8.6135000000000002e+00 6.3938655561404998e+00 8.3849999999999998e+00 0 0 0
474 1 0.0000000000000000e+00 8.5251540748539991e+00 8.3849999999999998e+00 0 0 0
475 1 1.2304999999999997e+00 9.2355835810918343e+00 8.3849999999999998e+00 0 0 0
487 1 1.2304999999999997e+00 1.0656442593567498e+01 8.3849999999999998e+00 0 0 0
489 1 2.4609999999999994e+00 8.5251540748539991e+00 8.3849999999999998e+00 0 0 0
490 1 3.6915000000000000e+00 9.2355835810918343e+00 8.3849999999999998e+00 0 0 0
506 1 3.6914999999999996e+00 1.0656442593567499e+01 8.3849999999999998e+00 0 0 0
508 1 4.9219999999999997e+00 8.5251540748539991e+00 8.3849999999999998e+00 0 0 0
509 1 6.1524999999999999e+00 9.2355835810918343e+00 8.3849999999999998e+00 0 0 0
527 1 6.1524999999999999e+00 1.0656442593567499e+01 8.3849999999999998e+00 0 0 0
529 1 7.3830000000000000e+00 8.5251540748539991e+00 8.3849999999999998e+00 0 0 0
530 1 8.6134999999999984e+00 9.2355835810918343e+00 8.3849999999999998e+00 0 0 0
548 1 8.6134999999999984e+00 1.0656442593567498e+01 8.3849999999999998e+00 0 0 0
19 1 0.0000000000000000e+00 1.1366872099805333e+01 1.6770000000000000e+00 0 0 0
42 1 0.0000000000000000e+00 1.2787731112280998e+01 1.6770000000000000e+00 0 0 0
44 1 1.2305000000000001e+00 1.3498160618518833e+01 1.6770000000000000e+00 0 0 0
48 1 2.4609999999999999e+00 1.1366872099805335e+01 1.6770000000000000e+00 0 0 0
79 1 2.4609999999999999e+00 1.2787731112280998e+01 1.6770000000000000e+00 0 0 0
81 1 3.6915000000000000e+00 1.3498160618518833e+01 1.6770000000000000e+00 0 0 0
85 1 4.9219999999999997e+00 1.1366872099805333e+01 1.6770000000000000e+00 0 0 0
121 1 4.9219999999999997e+00 1.2787731112281000e+01 1.6770000000000000e+00 0 0 0
123 1 6.1524999999999990e+00 1.3498160618518833e+01 1.6770000000000000e+00 0 0 0
127 1 7.3829999999999991e+00 1.1366872099805335e+01 1.6770000000000000e+00 0 0 0
163 1 7.3829999999999991e+00 1.2787731112280998e+01 1.6770000000000000e+00 0 0 0
165 1 8.6135000000000002e+00 1.3498160618518835e+01 1.6770000000000000e+00 0 0 0
40 1 0.0000000000000000e+00 1.5629449137232333e+01 1.6770000000000000e+00 0 0 0
71 1 0.0000000000000000e+00 1.7050308149707998e+01 1.6770000000000000e+00 0 0 0
73 1 1.2305000000000001e+00 1.7760737655945832e+01 1.6770000000000000e+00 0 0 0
75 1 1.2305000000000001e+00 1.4919019630994498e+01 1.6770000000000000e+00 0 0 0
77 1 2.4610000000000003e+00 1.5629449137232331e+01 1.6770000000000000e+00 0 0 0
113 1 2.4610000000000003e+00 1.7050308149707998e+01 1.6770000000000000e+00 0 0 0
115 1 3.6914999999999996e+00 1.7760737655945832e+01 1.6770000000000000e+00 0 0 0
117 1 3.6915000000000000e+00 1.4919019630994498e+01 1.6770000000000000e+00 0 0 0
119 1 4.9219999999999988e+00 1.5629449137232333e+01 1.6770000000000000e+00 0 0 0
155 1 4.9219999999999988e+00 1.7050308149707998e+01 1.6770000000000000e+00 0 0 0
157 1 6.1524999999999999e+00 1.7760737655945832e+01 1.6770000000000000e+00 0 0 0
159 1 6.1524999999999990e+00 1.4919019630994498e+01 1.6770000000000000e+00 0 0 0
161 1 7.3829999999999991e+00 1.5629449137232333e+01 1.6770000000000000e+00 0 0 0
197 1 7.3830000000000000e+00 1.7050308149707998e+01 1.6770000000000000e+00 0 0 0
199 1 8.6134999999999984e+00 1.7760737655945832e+01 1.6770000000000000e+00 0 0 0
201 1 8.6135000000000002e+00 1.4919019630994498e+01 1.6770000000000000e+00 0 0 0
69 1 0.0000000000000000e+00 1.9892026174659332e+01 1.6770000000000000e+00 0 0 0
106 1 0.0000000000000000e+00 2.1312885187134999e+01 1.6770000000000000e+00 0 0 0
109 1 1.2305000000000001e+00 1.9181596668421498e+01 1.6770000000000000e+00 0 0 0
111 1 2.4609999999999994e+00 1.9892026174659332e+01 1.6770000000000000e+00 0 0 0
148 1 2.4609999999999994e+00 2.1312885187134995e+01 1.6770000000000000e+00 0 0 0
151 1 3.6914999999999996e+00 1.9181596668421498e+01 1.6770000000000000e+00 0 0 0
153 1 4.9219999999999997e+00 1.9892026174659332e+01 1.6770000000000000e+00 0 0 0
190 1 4.9220000000000006e+00 2.1312885187134995e+01 1.6770000000000000e+00 0 0 0
193 1 6.1524999999999999e+00 1.9181596668421498e+01 1.6770000000000000e+00 0 0 0
195 1 7.3829999999999991e+00 1.9892026174659332e+01 1.6770000000000000e+00 0 0 0
232 1 7.3829999999999991e+00 2.1312885187134999e+01 1.6770000000000000e+00 0 0 0
235 1 8.6135000000000002e+00 1.9181596668421498e+01 1.6770000000000000e+00 0 0 0
41 1 0.0000000000000000e+00 1.4208590124756665e+01 5.0310000000000006e+00 0 0 0
43 1 0.0000000000000000e+00 1.2787731112280998e+01 5.0310000000000006e+00 0 0 0
45 1 1.2304999999999997e+00 1.2077301606043164e+01 5.0310000000000006e+00 0 0 0
78 1 2.4609999999999999e+00 1.4208590124756665e+01 5.0310000000000006e+00 0 0 0
80 1 2.4609999999999999e+00 1.2787731112280998e+01 5.0310000000000006e+00 0 0 0
82 1 3.6914999999999996e+00 1.2077301606043164e+01 5.0310000000000006e+00 0 0 0
120 1 4.9219999999999997e+00 1.4208590124756663e+01 5.0310000000000006e+00 0 0 0
122 1 4.9219999999999997e+00 1.2787731112281000e+01 5.0310000000000006e+00 0 0 0
124 1 6.1524999999999999e+00 1.2077301606043164e+01 5.0310000000000006e+00 0 0 0
162 1 7.3830000000000000e+00 1.4208590124756665e+01 5.0310000000000006e+00 0 0 0
164 1 7.3829999999999991e+00 1.2787731112280998e+01 5.0310000000000006e+00 0 0 0
166 1 8.6135000000000002e+00 1.2077301606043164e+01 5.0310000000000006e+00 0 0 0
72 1 0.0000000000000000e+00 1.7050308149707998e+01 5.0310000000000006e+00 0 0 0
74 1 1.2305000000000001e+00 1.6339878643470165e+01 5.0310000000000006e+00 0 0 0
76 1 1.2305000000000001e+00 1.4919019630994498e+01 5.0310000000000006e+00 0 0 0
114 1 2.4610000000000003e+00 1.7050308149707998e+01 5.0310000000000006e+00 0 0 0
116 1 3.6915000000000000e+00 1.6339878643470165e+01 5.0310000000000006e+00 0 0 0
118 1 3.6915000000000000e+00 1.4919019630994498e+01 5.0310000000000006e+00 0 0 0
156 1 4.9219999999999988e+00 1.7050308149707998e+01 5.0310000000000006e+00 0 0 0
158 1 6.1524999999999999e+00 1.6339878643470165e+01 5.0310000000000006e+00 0 0 0
160 1 6.1524999999999990e+00 1.4919019630994498e+01 5.0310000000000006e+00 0 0 0
198 1 7.3830000000000000e+00 1.7050308149707998e+01 5.0310000000000006e+00 0 0 0
200 1 8.6134999999999984e+00 1.6339878643470165e+01 5.0310000000000006e+00 0 0 0
202 1 8.6135000000000002e+00 1.4919019630994498e+01 5.0310000000000006e+00 0 0 0
70 1 0.0000000000000000e+00 1.8471167162183665e+01 5.0310000000000006e+00 0 0 0
107 1 0.0000000000000000e+00 2.1312885187134999e+01 5.0310000000000006e+00 0 0 0
108 1 1.2305000000000001e+00 2.0602455680897165e+01 5.0310000000000006e+00 0 0 0
110 1 1.2305000000000001e+00 1.9181596668421498e+01 5.0310000000000006e+00 0 0 0
112 1 2.4610000000000003e+00 1.8471167162183662e+01 5.0310000000000006e+00 0 0 0
149 1 2.4609999999999994e+00 2.1312885187134995e+01 5.0310000000000006e+00 0 0 0
150 1 3.6915000000000004e+00 2.0602455680897165e+01 5.0310000000000006e+00 0 0 0
152 1 3.6914999999999996e+00 1.9181596668421498e+01 5.0310000000000006e+00 0 0 0
154 1 4.9220000000000006e+00 1.8471167162183662e+01 5.0310000000000006e+00 0 0 0
191 1 4.9220000000000006e+00 2.1312885187134995e+01 5.0310000000000006e+00 0 0 0
192 1 6.1524999999999999e+00 2.0602455680897165e+01 5.0310000000000006e+00 0 0 0
194 1 6.1524999999999999e+00 1.9181596668421498e+01 5.0310000000000006e+00 0 0 0
196 1 7.3829999999999991e+00 1.8471167162183665e+01 5.0310000000000006e+00 0 0 0
233 1 7.3829999999999991e+00 2.1312885187134999e+01 5.0310000000000006e+00 0 0 0
234 1 8.6134999999999984e+00 2.0602455680897162e+01 5.0310000000000006e+00 0 0 0
236 1 8.6135000000000002e+00 1.9181596668421498e+01 5.0310000000000006e+00 0 0 0
238 1 9.8439999999999976e+00 1.8471167162183662e+01 5.0310000000000006e+00 0 0 0
473 1 0.0000000000000000e+00 1.1366872099805333e+01 8.3849999999999998e+00 0 0 0
485 1 0.0000000000000000e+00 1.2787731112280998e+01 8.3849999999999998e+00 0 0 0
486 1 1.2305000000000001e+00 1.3498160618518833e+01 8.3849999999999998e+00 0 0 0
488 1 2.4609999999999999e+00 1.1366872099805335e+01 8.3849999999999998e+00 0 0 0
504 1 2.4609999999999999e+00 1.2787731112280998e+01 8.3849999999999998e+00 0 0 0
505 1 3.6915000000000000e+00 1.3498160618518833e+01 8.3849999999999998e+00 0 0 0
507 1 4.9219999999999997e+00 1.1366872099805333e+01 8.3849999999999998e+00 0 0 0
525 1 4.9219999999999997e+00 1.2787731112281000e+01 8.3849999999999998e+00 0 0 0
526 1 6.1524999999999990e+00 1.3498160618518833e+01 8.3849999999999998e+00 0 0 0
528 1 7.3829999999999991e+00 1.1366872099805335e+01 8.3849999999999998e+00 0 0 0
546 1 7.3829999999999991e+00 1.2787731112280998e+01 8.3849999999999998e+00 0 0 0
547 1 8.6135000000000002e+00 1.3498160618518835e+01 8.3849999999999998e+00 0 0 0
484 1 0.0000000000000000e+00 1.5629449137232333e+01 8.3849999999999998e+00 0 0 0
500 1 0.0000000000000000e+00 1.7050308149707998e+01 8.3849999999999998e+00 0 0 0
501 1 1.2305000000000001e+00 1.7760737655945832e+01 8.3849999999999998e+00 0 0 0
502 1 1.2305000000000001e+00 1.4919019630994498e+01 8.3849999999999998e+00 0 0 0
503 1 2.4610000000000003e+00 1.5629449137232331e+01 8.3849999999999998e+00 0 0 0
521 1 2.4610000000000003e+00 1.7050308149707998e+01 8.3849999999999998e+00 0 0 0
522 1 3.6914999999999996e+00 1.7760737655945832e+01 8.3849999999999998e+00 0 0 0
523 1 3.6915000000000000e+00 1.4919019630994498e+01 8.3849999999999998e+00 0 0 0
524 1 4.9219999999999988e+00 1.5629449137232333e+01 8.3849999999999998e+00 0 0 0
542 1 4.9219999999999988e+00 1.7050308149707998e+01 8.3849999999999998e+00 0 0 0
543 1 6.1524999999999999e+00 1.7760737655945832e+01 8.3849999999999998e+00 0 0 0
544 1 6.1524999999999990e+00 1.4919019630994498e+01 8.3849999999999998e+00 0 0 0
545 1 7.3829999999999991e+00 1.5629449137232333e+01 8.3849999999999998e+00 0 0 0
563 1 7.3830000000000000e+00 1.7050308149707998e+01 8.3849999999999998e+00 0 0 0
564 1 8.6134999999999984e+00 1.7760737655945832e+01 8.3849999999999998e+00 0 0 0
565 1 8.6135000000000002e+00 1.4919019630994498e+01 8.3849999999999998e+00 0 0 0
499 1 0.0000000000000000e+00 1.9892026174659332e+01 8.3849999999999998e+00 0 0 0
518 1 0.0000000000000000e+00 2.1312885187134999e+01 8.3849999999999998e+00 0 0 0
519 1 1.2305000000000001e+00 1.9181596668421498e+01 8.3849999999999998e+00 0 0 0
520 1 2.4609999999999994e+00 1.9892026174659332e+01 8.3849999999999998e+00 0 0 0
539 1 2.4609999999999994e+00 2.1312885187134995e+01 8.3849999999999998e+00 0 0 0
540 1 3.6914999999999996e+00 1.9181596668421498e+01 8.3849999999999998e+00 0 0 0
541 1 4.9219999999999997e+00 1.9892026174659332e+01 8.3849999999999998e+00 0 0 0
560 1 4.9220000000000006e+00 2.1312885187134995e+01 8.3849999999999998e+00 0 0 0
561 1 6.1524999999999999e+00 1.9181596668421498e+01 8.3849999999999998e+00 0 0 0
562 1 7.3829999999999991e+00 1.9892026174659332e+01 8.3849999999999998e+00 0 0 0
581 1 7.3829999999999991e+00 2.1312885187134999e+01 8.3849999999999998e+00 0 0 0
582 1 8.6135000000000002e+00 1.9181596668421498e+01 8.3849999999999998e+00 0 0 0
694 1 0.0000000000000000e+00 2.4154603212086332e+01 1.6770000000000000e+00 0 0 0
696 1 1.2304999999999993e+00 2.2023314693372832e+01 1.6770000000000000e+00 0 0 0
703 1 1.2304999999999993e+00 2.3444173705848499e+01 1.6770000000000000e+00 0 0 0
705 1 2.4609999999999994e+00 2.4154603212086332e+01 1.6770000000000000e+00 0 0 0
707 1 3.6914999999999996e+00 2.2023314693372832e+01 1.6770000000000000e+00 0 0 0
722 1 3.6915000000000004e+00 2.3444173705848499e+01 1.6770000000000000e+00 0 0 0
724 1 4.9219999999999988e+00 2.4154603212086332e+01 1.6770000000000000e+00 0 0 0
726 1 6.1524999999999990e+00 2.2023314693372832e+01 1.6770000000000000e+00 0 0 0
749 1 6.1524999999999999e+00 2.3444173705848499e+01 1.6770000000000000e+00 0 0 0
751 1 7.3830000000000000e+00 2.4154603212086336e+01 1.6770000000000000e+00 0 0 0
753 1 8.6135000000000002e+00 2.2023314693372836e+01 1.6770000000000000e+00 0 0 0
784 1 8.6134999999999984e+00 2.3444173705848499e+01 1.6770000000000000e+00 0 0 0
697 1 0.0000000000000000e+00 2.8417180249513333e+01 1.6770000000000000e+00 0 0 0
699 1 0.0000000000000000e+00 2.5575462224561996e+01 1.6770000000000000e+00 0 0 0
701 1 1.2305000000000001e+00 2.6285891730799833e+01 1.6770000000000000e+00 0 0 0
714 1 1.2305000000000010e+00 2.7706750743275496e+01 1.6770000000000000e+00 0 0 0
716 1 2.4609999999999994e+00 2.8417180249513329e+01 1.6770000000000000e+00 0 0 0
718 1 2.4610000000000003e+00 2.5575462224561996e+01 1.6770000000000000e+00 0 0 0
720 1 3.6914999999999987e+00 2.6285891730799833e+01 1.6770000000000000e+00 0 0 0
741 1 3.6914999999999996e+00 2.7706750743275499e+01 1.6770000000000000e+00 0 0 0
743 1 4.9219999999999997e+00 2.8417180249513336e+01 1.6770000000000000e+00 0 0 0
745 1 4.9219999999999997e+00 2.5575462224561996e+01 1.6770000000000000e+00 0 0 0
747 1 6.1524999999999999e+00 2.6285891730799836e+01 1.6770000000000000e+00 0 0 0
776 1 6.1524999999999990e+00 2.7706750743275499e+01 1.6770000000000000e+00 0 0 0
778 1 7.3830000000000009e+00 2.8417180249513336e+01 1.6770000000000000e+00 0 0 0
780 1 7.3829999999999991e+00 2.5575462224561996e+01 1.6770000000000000e+00 0 0 0
782 1 8.6135000000000019e+00 2.6285891730799836e+01 1.6770000000000000e+00 0 0 0
816 1 8.6135000000000002e+00 2.7706750743275499e+01 1.6770000000000000e+00 0 0 0
710 1 0.0000000000000000e+00 2.9838039261988996e+01 1.6770000000000000e+00 0 0 0
712 1 1.2304999999999993e+00 3.0548468768226833e+01 1.6770000000000000e+00 0 0 0
733 1 1.2304999999999993e+00 3.1969327780702496e+01 1.6770000000000000e+00 0 0 0
737 1 2.4610000000000003e+00 2.9838039261988996e+01 1.6770000000000000e+00 0 0 0
739 1 3.6915000000000004e+00 3.0548468768226833e+01 1.6770000000000000e+00 0 0 0
768 1 3.6914999999999996e+00 3.1969327780702496e+01 1.6770000000000000e+00 0 0 0
772 1 4.9219999999999988e+00 2.9838039261988996e+01 1.6770000000000000e+00 0 0 0
774 1 6.1525000000000007e+00 3.0548468768226833e+01 1.6770000000000000e+00 0 0 0
808 1 6.1524999999999999e+00 3.1969327780702500e+01 1.6770000000000000e+00 0 0 0
812 1 7.3830000000000000e+00 2.9838039261988996e+01 1.6770000000000000e+00 0 0 0
814 1 8.6135000000000002e+00 3.0548468768226833e+01 1.6770000000000000e+00 0 0 0
848 1 8.6134999999999984e+00 3.1969327780702500e+01 1.6770000000000000e+00 0 0 0
695 1 0.0000000000000000e+00 2.2733744199610662e+01 5.0310000000000006e+00 0 0 0
702 1 1.2305000000000001e+00 2.4865032718324162e+01 5.0310000000000006e+00 0 0 0
704 1 1.2304999999999993e+00 2.3444173705848499e+01 5.0310000000000006e+00 0 0 0
706 1 2.4610000000000003e+00 2.2733744199610662e+01 5.0310000000000006e+00 0 0 0
721 1 3.6914999999999996e+00 2.4865032718324166e+01 5.0310000000000006e+00 0 0 0
723 1 3.6915000000000004e+00 2.3444173705848499e+01 5.0310000000000006e+00 0 0 0
725 1 4.9219999999999997e+00 2.2733744199610662e+01 5.0310000000000006e+00 0 0 0
748 1 6.1524999999999990e+00 2.4865032718324159e+01 5.0310000000000006e+00 0 0 0
750 1 6.1524999999999999e+00 2.3444173705848499e+01 5.0310000000000006e+00 0 0 0
752 1 7.3829999999999991e+00 2.2733744199610662e+01 5.0310000000000006e+00 0 0 0
783 1 8.6134999999999984e+00 2.4865032718324159e+01 5.0310000000000006e+00 0 0 0
785 1 8.6134999999999984e+00 2.3444173705848499e+01 5.0310000000000006e+00 0 0 0
787 1 9.8439999999999976e+00 2.2733744199610662e+01 5.0310000000000006e+00 0 0 0
698 1 0.0000000000000000e+00 2.6996321237037662e+01 5.0310000000000006e+00 0 0 0
700 1 0.0000000000000000e+00 2.5575462224561996e+01 5.0310000000000006e+00 0 0 0
715 1 1.2305000000000010e+00 2.7706750743275496e+01 5.0310000000000006e+00 0 0 0
717 1 2.4609999999999994e+00 2.6996321237037662e+01 5.0310000000000006e+00 0 0 0
719 1 2.4610000000000003e+00 2.5575462224561996e+01 5.0310000000000006e+00 0 0 0
742 1 3.6914999999999996e+00 2.7706750743275499e+01 5.0310000000000006e+00 0 0 0
744 1 4.9219999999999988e+00 2.6996321237037662e+01 5.0310000000000006e+00 0 0 0
746 1 4.9219999999999997e+00 2.5575462224561996e+01 5.0310000000000006e+00 0 0 0
777 1 6.1524999999999990e+00 2.7706750743275499e+01 5.0310000000000006e+00 0 0 0
779 1 7.3829999999999982e+00 2.6996321237037662e+01 5.0310000000000006e+00 0 0 0
781 1 7.3829999999999991e+00 2.5575462224561996e+01 5.0310000000000006e+00 0 0 0
817 1 8.6135000000000002e+00 2.7706750743275499e+01 5.0310000000000006e+00 0 0 0
709 1 0.0000000000000000e+00 3.1258898274464663e+01 5.0310000000000006e+00 0 0 0
711 1 0.0000000000000000e+00 2.9838039261988996e+01 5.0310000000000006e+00 0 0 0
713 1 1.2304999999999993e+00 2.9127609755751163e+01 5.0310000000000006e+00 0 0 0
734 1 1.2304999999999993e+00 3.1969327780702496e+01 5.0310000000000006e+00 0 0 0
736 1 2.4609999999999985e+00 3.1258898274464659e+01 5.0310000000000006e+00 0 0 0
738 1 2.4610000000000003e+00 2.9838039261988996e+01 5.0310000000000006e+00 0 0 0
740 1 3.6914999999999987e+00 2.9127609755751159e+01 5.0310000000000006e+00 0 0 0
769 1 3.6914999999999996e+00 3.1969327780702496e+01 5.0310000000000006e+00 0 0 0
771 1 4.9219999999999979e+00 3.1258898274464659e+01 5.0310000000000006e+00 0 0 0
773 1 4.9219999999999988e+00 2.9838039261988996e+01 5.0310000000000006e+00 0 0 0
775 1 6.1524999999999981e+00 2.9127609755751159e+01 5.0310000000000006e+00 0 0 0
809 1 6.1524999999999999e+00 3.1969327780702500e+01 5.0310000000000006e+00 0 0 0
811 1 7.3829999999999991e+00 3.1258898274464663e+01 5.0310000000000006e+00 0 0 0
813 1 7.3830000000000000e+00 2.9838039261988996e+01 5.0310000000000006e+00 0 0 0
815 1 8.6134999999999984e+00 2.9127609755751159e+01 5.0310000000000006e+00 0 0 0
849 1 8.6134999999999984e+00 3.1969327780702500e+01 5.0310000000000006e+00 0 0 0
851 1 9.8439999999999976e+00 3.1258898274464663e+01 5.0310000000000006e+00 0 0 0
1134 1 0.0000000000000000e+00 2.4154603212086332e+01 8.3849999999999998e+00 0 0 0
1135 1 1.2304999999999993e+00 2.2023314693372832e+01 8.3849999999999998e+00 0 0 0
1139 1 1.2304999999999993e+00 2.3444173705848499e+01 8.3849999999999998e+00 0 0 0
1140 1 2.4609999999999994e+00 2.4154603212086332e+01 8.3849999999999998e+00 0 0 0
1141 1 3.6914999999999996e+00 2.2023314693372832e+01 8.3849999999999998e+00 0 0 0
1149 1 3.6915000000000004e+00 2.3444173705848499e+01 8.3849999999999998e+00 0 0 0
1150 1 4.9219999999999988e+00 2.4154603212086332e+01 8.3849999999999998e+00 0 0 0
1151 1 6.1524999999999990e+00 2.2023314693372832e+01 8.3849999999999998e+00 0 0 0
1163 1 6.1524999999999999e+00 2.3444173705848499e+01 8.3849999999999998e+00 0 0 0
1164 1 7.3830000000000000e+00 2.4154603212086336e+01 8.3849999999999998e+00 0 0 0
1165 1 8.6135000000000002e+00 2.2023314693372836e+01 8.3849999999999998e+00 0 0 0
1181 1 8.6134999999999984e+00 2.3444173705848499e+01 8.3849999999999998e+00 0 0 0
1136 1 0.0000000000000000e+00 2.8417180249513333e+01 8.3849999999999998e+00 0 0 0
1137 1 0.0000000000000000e+00 2.5575462224561996e+01 8.3849999999999998e+00 0 0 0
1138 1 1.2305000000000001e+00 2.6285891730799833e+01 8.3849999999999998e+00 0 0 0
1145 1 1.2305000000000010e+00 2.7706750743275496e+01 8.3849999999999998e+00 0 0 0
1146 1 2.4609999999999994e+00 2.8417180249513329e+01 8.3849999999999998e+00 0 0 0
1147 1 2.4610000000000003e+00 2.5575462224561996e+01 8.3849999999999998e+00 0 0 0
1148 1 3.6914999999999987e+00 2.6285891730799833e+01 8.3849999999999998e+00 0 0 0
1159 1 3.6914999999999996e+00 2.7706750743275499e+01 8.3849999999999998e+00 0 0 0
1160 1 4.9219999999999997e+00 2.8417180249513336e+01 8.3849999999999998e+00 0 0 0
1161 1 4.9219999999999997e+00 2.5575462224561996e+01 8.3849999999999998e+00 0 0 0
1162 1 6.1524999999999999e+00 2.6285891730799836e+01 8.3849999999999998e+00 0 0 0
1177 1 6.1524999999999990e+00 2.7706750743275499e+01 8.3849999999999998e+00 0 0 0
1178 1 7.3830000000000009e+00 2.8417180249513336e+01 8.3849999999999998e+00 0 0 0
1179 1 7.3829999999999991e+00 2.5575462224561996e+01 8.3849999999999998e+00 0 0 0
1180 1 8.6135000000000019e+00 2.6285891730799836e+01 8.3849999999999998e+00 0 0 0
1197 1 8.6135000000000002e+00 2.7706750743275499e+01 8.3849999999999998e+00 0 0 0
1143 1 0.0000000000000000e+00 2.9838039261988996e+01 8.3849999999999998e+00 0 0 0
1144 1 1.2304999999999993e+00 3.0548468768226833e+01 8.3849999999999998e+00 0 0 0
1155 1 1.2304999999999993e+00 3.1969327780702496e+01 8.3849999999999998e+00 0 0 0
1157 1 2.4610000000000003e+00 2.9838039261988996e+01 8.3849999999999998e+00 0 0 0