

### IMPORT ATOMS ###
read_data ../Box_Setup/data.Ibeam_240K
  orthogonal box = (0 0 0) to (157.504 42.9242 26.8557)
  16 by 4 by 2 MPI processor grid
  reading atoms ...
  9253 atoms
  reading velocities ...
  9253 velocities
group water type 2
1381 atoms in group water
group graphite type 1
7872 atoms in group graphite


# Define potential
#
pair_style          sw
pair_coeff * * MLC_e.sw C mW

# Add velocity/set timestep
#

fix		1 graphite setforce 0.0 0.0 0.0
velocity 	graphite set 0.0 0.0 0.0
velocity            water create ${START_TEMP} ${SEED} rot yes dist gaussian
velocity            water create 240 ${SEED} rot yes dist gaussian
velocity            water create 240 16897 rot yes dist gaussian
timestep            5.0

# Define output
#
compute 1 water msd
compute 2 water temp


thermo	            100
thermo_style custom step c_2 press vol etotal ke pe c_1[4] density

# Neighbor lists
#
neigh_modify        delay 0 every 1 check yes


# Set fixes
#
fix                 2 water momentum 10 linear 1 1 1 rescale
fix                 3 all nve
fix                 4 water temp/csvr ${START_TEMP} ${START_TEMP} 500.0 928347
fix                 4 water temp/csvr 240 ${START_TEMP} 500.0 928347
fix                 4 water temp/csvr 240 240 500.0 928347

# Run 0.05 ns equilibration
#
dump                1 all custom 100 ${DIR}/eq.${NAME}.dump id type x y z vx vy vz
dump                1 all custom 100 run_11/eq.${NAME}.dump id type x y z vx vy vz
dump                1 all custom 100 run_11/eq.ibeam_cooling_11.dump id type x y z vx vy vz
run                 10000
Neighbor list info ...
  update every 1 steps, delay 0 steps, check yes
  max neighbors/atom: 2000, page size: 100000
  master list distance cutoff = 6.67472
  ghost atom cutoff = 6.67472
  binsize = 3.33736, bins = 48 13 9
  1 neighbor lists, perpetual/occasional/extra = 1 0 0
  (1) pair sw, perpetual
      attributes: full, newton on
      pair build: full/bin/atomonly
      stencil: full/bin/3d
      bin: standard
Per MPI rank memory allocation (min/avg/max) = 3.359 | 4.246 | 4.732 Mbytes
Step c_2 Press Volume TotEng KinEng PotEng c_1[4] Density 
       0          240   -344.39513    181563.75    -13284.54    987.24429   -14271.784            0    1.0922001 
     100    240.16333   -354.39388    181563.75    -13245.26    987.91615   -14233.176   0.86879552    1.0922001 
     200    238.29911   -236.26342    181563.75   -13273.103    980.24765    -14253.35    1.3239402    1.0922001 
     300    240.39554   -356.02113    181563.75   -13264.267    988.87137   -14253.138    1.8017821    1.0922001 
     400    235.45033   -486.13177    181563.75   -13291.574    968.52914   -14260.104    2.4192845    1.0922001 
     500    232.46552   -313.45948    181563.75   -13299.311    956.25107   -14255.562    2.8193857    1.0922001 
     600    230.72367   -485.70468    181563.75   -13378.769    949.08592   -14327.854    3.0924058    1.0922001 
     700    236.97341   -572.26169    181563.75   -13358.373    974.79434   -14333.167    3.2966249    1.0922001 
     800    225.39902   -386.79123    181563.75   -13398.778    927.18291   -14325.961    3.6554062    1.0922001 
     900    232.44835   -116.39014    181563.75   -13367.748    956.18045   -14323.928    3.9980635    1.0922001 
    1000    243.45205   -234.56056    181563.75   -13325.854    1001.4443   -14327.298    4.2251124    1.0922001 
    1100    233.57325   -558.15711    181563.75   -13340.866    960.80773   -14301.673    4.4692085    1.0922001 
    1200    234.18174    -435.2569    181563.75   -13373.561    963.31076   -14336.872    4.6630098    1.0922001 
    1300    235.87405   -344.59152    181563.75    -13335.67    970.27214   -14305.943    5.0662767    1.0922001 
    1400    245.88873   -247.44908    181563.75   -13282.058    1011.4677   -14293.526    5.5026877    1.0922001 
    1500    246.66357   -326.04023    181563.75   -13292.768     1014.655   -14307.423    6.0431773    1.0922001 
    1600     242.7664   -356.20122    181563.75   -13272.668    998.62394   -14271.292    6.4995636    1.0922001 
    1700    242.50936   -272.59475    181563.75   -13282.712    997.56659   -14280.279    6.7670541    1.0922001 
    1800    240.48351   -355.37837    181563.75   -13291.916    989.23322   -14281.149    7.1935313    1.0922001 
    1900    238.79633   -360.61282    181563.75   -13215.753    982.29296   -14198.046    7.6493008    1.0922001 
    2000    238.71722   -326.35855    181563.75   -13189.744    981.96754   -14171.711    8.1606343    1.0922001 
    2100    242.25319   -224.10794    181563.75   -13202.595    996.51282   -14199.107    8.6493939    1.0922001 
    2200    254.43775   -378.72917    181563.75   -13207.407    1046.6342   -14254.041    8.8965725    1.0922001 
    2300       240.84   -526.46855    181563.75   -13251.506    990.69963   -14242.205    9.1655994    1.0922001 
    2400    250.46261   -236.29075    181563.75   -13263.842    1030.2824   -14294.124    9.3211837    1.0922001 
    2500    239.74332   -217.44955    181563.75   -13257.777    986.18842   -14243.965    9.5989287    1.0922001 
    2600     236.6622   -294.81056    181563.75   -13287.336    973.51419    -14260.85    9.7448835    1.0922001 
    2700    244.73286   -342.19365    181563.75   -13262.698     1006.713   -14269.411    10.220599    1.0922001 
    2800    240.58633   -322.90603    181563.75   -13271.182    989.65616   -14260.838    10.642737    1.0922001 
    2900    240.95655   -297.81622    181563.75   -13330.624    991.17909   -14321.803    11.255026    1.0922001 
    3000     236.6261    -345.4019    181563.75   -13357.543    973.36567   -14330.909    11.418591    1.0922001 
    3100    232.35429   -247.70588    181563.75   -13349.274    955.79352   -14305.068    11.820574    1.0922001 
    3200     234.6636   -198.81447    181563.75   -13363.632    965.29289   -14328.925    12.424029    1.0922001 
    3300    245.00329     -314.043    181563.75   -13322.043    1007.8254   -14329.868    12.586165    1.0922001 
    3400    230.57142   -372.36323    181563.75   -13329.755    948.45968   -14278.215    12.955052    1.0922001 
    3500     239.8556   -477.00039    181563.75   -13324.019    986.65031    -14310.67    13.371274    1.0922001 
    3600    242.01545   -305.41776    181563.75    -13306.39    995.53488   -14301.925    13.774602    1.0922001 
    3700    224.17009   -357.46952    181563.75   -13335.268    922.12767   -14257.395    14.209222    1.0922001 
    3800    237.91337   -239.15034    181563.75   -13317.456    978.66089   -14296.117    14.891084    1.0922001 
    3900    240.50143   -367.29174    181563.75   -13329.287    989.30692   -14318.594    15.346493    1.0922001 
    4000     232.0864   -369.71868    181563.75   -13347.401    954.69153   -14302.093    15.695276    1.0922001 
    4100    234.95572   -469.98624    181563.75   -13310.793    966.49457   -14277.288      16.2205    1.0922001 
    4200    238.33077   -397.41578    181563.75   -13275.941    980.37789   -14256.319    16.470847    1.0922001 
    4300    256.10096   -299.18335    181563.75   -13216.146    1053.4759   -14269.622    16.988187    1.0922001 
    4400    252.27406   -356.04688    181563.75   -13234.077    1037.7338   -14271.811    17.368664    1.0922001 
    4500    246.18328   -170.80888    181563.75   -13295.685    1012.6793   -14308.364    17.860195    1.0922001 
    4600    239.36809   -260.10966    181563.75   -13320.807    984.64493   -14305.452    18.184109    1.0922001 
    4700    234.08608   -324.51116    181563.75   -13318.912    962.91728   -14281.829     18.47602    1.0922001 
    4800    241.36782   -318.65101    181563.75   -13299.769    992.87082    -14292.64     18.61063    1.0922001 
    4900    237.97513   -355.24468    181563.75   -13329.811    978.91493   -14308.726    18.973941    1.0922001 
    5000    230.98028   -308.77529    181563.75   -13351.996     950.1415   -14302.137    19.505829    1.0922001 
    5100    244.10917   -348.22155    181563.75   -13366.687    1004.1474   -14370.834    19.578049    1.0922001 
    5200    234.84653   -312.04274    181563.75   -13353.512     966.0454   -14319.557    19.803156    1.0922001 
    5300    235.75699   -196.12709    181563.75   -13399.339    969.79058    -14369.13    20.088721    1.0922001 
    5400    235.91988   -418.65385    181563.75   -13356.149    970.46063    -14326.61    20.157853    1.0922001 
    5500    235.80037   -407.30132    181563.75    -13387.07    969.96902   -14357.039    20.199365    1.0922001 
    5600    238.74181   -547.33785    181563.75   -13400.454     982.0687   -14382.522    20.326732    1.0922001 
    5700    242.89195    -460.2984    181563.75   -13359.931    999.14038   -14359.072    20.600558    1.0922001 
    5800    245.88572   -415.53156    181563.75   -13300.085    1011.4553    -14311.54    20.552491    1.0922001 
    5900    240.32799   -384.74284    181563.75   -13333.349    988.59348   -14321.943    20.542456    1.0922001 
    6000    232.21561   -258.45887    181563.75   -13404.328    955.22307   -14359.551    20.858584    1.0922001 
    6100    242.08385   -317.41084    181563.75   -13384.093    995.81625   -14379.909     20.86326    1.0922001 
    6200    241.51856   -389.32129    181563.75   -13363.787     993.4909   -14357.278    20.775266    1.0922001 
    6300    244.95372   -319.75729    181563.75   -13352.314    1007.6215   -14359.936    20.728663    1.0922001 
    6400    243.82413   -435.30524    181563.75   -13353.644    1002.9749   -14356.619    20.951381    1.0922001 
    6500    240.88422   -353.86899    181563.75   -13364.439    990.88153   -14355.321    21.445266    1.0922001 
    6600    233.36045   -358.62783    181563.75   -13413.719    959.93239   -14373.652    21.603752    1.0922001 
    6700    232.37353     -405.694    181563.75   -13429.591    955.87268   -14385.464     21.83873    1.0922001 
    6800    234.36449   -445.74093    181563.75   -13416.193    964.06251   -14380.255    22.074532    1.0922001 
    6900    235.91584    -247.3314    181563.75   -13458.125    970.44403   -14428.569    22.261208    1.0922001 
    7000    234.97181   -494.79961    181563.75   -13444.288    966.56074   -14410.848    22.657585    1.0922001 
    7100    238.83708   -503.96748    181563.75   -13360.507    982.46059   -14342.967    23.062928    1.0922001 
    7200    236.94389   -558.85449    181563.75   -13366.171    974.67293   -14340.844    23.523671    1.0922001 
    7300    232.27493   -398.42755    181563.75    -13426.08    955.46708   -14381.548    23.744506    1.0922001 
    7400    238.08342   -306.38256    181563.75   -13444.798    979.36039   -14424.158    24.049663    1.0922001 
    7500    233.44623   -359.08438    181563.75   -13465.736    960.28524   -14426.021    24.340221    1.0922001 
    7600     231.8953   -366.43015    181563.75   -13479.071    953.90545   -14432.976    25.327832    1.0922001 
    7700    229.04658   -404.93925    181563.75   -13457.474    942.18718   -14399.661    26.068472    1.0922001 
    7800    235.18361   -431.05973    181563.75   -13409.001    967.43199   -14376.433    26.690293    1.0922001 
    7900    234.92349   -369.01019    181563.75   -13401.587    966.36197   -14367.949    26.598547    1.0922001 
    8000    246.05348   -383.05371    181563.75   -13407.735    1012.1454    -14419.88      26.5208    1.0922001 
    8100     242.8765   -394.20763    181563.75   -13427.813    999.07683    -14426.89    26.497396    1.0922001 
    8200     237.1959   -530.79378    181563.75   -13447.062    975.70956   -14422.772    26.691613    1.0922001 
    8300    233.14549   -492.22594    181563.75   -13453.376    959.04813   -14412.424    27.063757    1.0922001 
    8400    234.73352   -453.67906    181563.75   -13441.286    965.58051   -14406.867    27.587845    1.0922001 
    8500    244.45157   -311.93692    181563.75   -13423.763    1005.5559   -14429.319    27.746568    1.0922001 
    8600    243.00348   -411.08822    181563.75   -13390.332    999.59914   -14389.931    27.959799    1.0922001 
    8700    245.26218   -342.28001    181563.75   -13457.443    1008.8904   -14466.333    28.099233    1.0922001 
    8800    240.32975   -514.45511    181563.75   -13402.532    988.60074   -14391.132    28.093702    1.0922001 
    8900    238.58913   -427.67374    181563.75   -13413.295    981.44067   -14394.736    28.535326    1.0922001 
    9000    240.58001   -489.15305    181563.75   -13377.023    989.63016   -14366.653    28.761384    1.0922001 
    9100    246.85474   -254.94266    181563.75   -13377.002    1015.4414   -14392.443    28.995216    1.0922001 
    9200    240.90595    -213.3359    181563.75    -13407.52    990.97093   -14398.491      29.1462    1.0922001 
    9300     236.4634   -143.91871    181563.75   -13425.002    972.69643   -14397.699    29.276922    1.0922001 
    9400     234.8501    -318.6302    181563.75   -13438.016    966.06008   -14404.076    29.751507    1.0922001 
    9500    237.48513   -510.74263    181563.75   -13422.374    976.89935   -14399.273    29.684493    1.0922001 
    9600     223.4085   -405.08039    181563.75   -13480.319    918.99484   -14399.314    29.870134    1.0922001 
    9700     236.0244   -324.87136    181563.75   -13418.476     970.8906   -14389.367    30.425818    1.0922001 
    9800    235.46102   -420.86709    181563.75   -13440.572    968.57313   -14409.145    31.200291    1.0922001 
    9900    243.53489   -379.52998    181563.75   -13396.588    1001.7851   -14398.374    31.117059    1.0922001 
   10000    246.78235   -276.51209    181563.75   -13349.935    1015.1436   -14365.079     30.75537    1.0922001 
Loop time of 12.7555 on 128 procs for 10000 steps with 9253 atoms

Performance: 338.678 ns/day, 0.071 hours/ns, 783.978 timesteps/s
97.6% CPU use with 128 MPI tasks x no OpenMP threads

MPI task timing breakdown:
Section |  min time  |  avg time  |  max time  |%varavg| %total
---------------------------------------------------------------
Pair    | 0.00084424 | 3.4489     | 10.225     | 216.7 | 27.04
Neigh   | 0.0044575  | 0.11831    | 0.28893    |  27.6 |  0.93
Comm    | 0.17734    | 2.0322     | 8.5607     | 163.0 | 15.93
Output  | 0.14852    | 0.1487     | 0.15584    |   0.2 |  1.17
Modify  | 0.32712    | 6.8808     | 12.305     | 198.2 | 53.94
Other   |            | 0.1266     |            |       |  0.99

Nlocal:    72.2891 ave 150 max 0 min
Histogram: 40 0 8 16 0 0 0 13 39 12
Nghost:    704.695 ave 968 max 516 min
Histogram: 27 11 2 32 12 4 8 13 4 15
Neighs:    0 ave 0 max 0 min
Histogram: 128 0 0 0 0 0 0 0 0 0
FullNghs:  7809.12 ave 18394 max 0 min
Histogram: 43 21 0 0 0 0 3 29 23 9

Total # of neighbors = 999568
Ave neighs/atom = 108.026
Neighbor list builds = 547
Dangerous builds = 0
write_data 	    ${DIR}/data.${NAME}_eq
write_data 	    run_11/data.${NAME}_eq
write_data 	    run_11/data.ibeam_cooling_11_eq

undump              1
unfix               4



################################################
#######         Run Simulation         #########
################################################

reset_timestep      0
timestep	    10.0
log                 ${DIR}/log.run_${NAME}
log                 run_11/log.run_${NAME}
log                 run_11/log.run_ibeam_cooling_11
