
# Set production fixes - Nose/Hoover
#
fix                 4 water temp/csvr ${START_TEMP} ${END_TEMP} 500.0 928347
fix                 4 water temp/csvr 235 ${END_TEMP} 500.0 928347
fix                 4 water temp/csvr 235 225 500.0 928347


## divide "droplet" into core and surface
#region		core_reg cylinder z 135 135 44.6 20 INF units box
#region		surface_reg cylinder z 135 135 44.6 20 INF units box side out
#group		core dynamic all region core_reg
#group		surface dynamic all region surface_reg

## compute pressure core
#compute        peratom_core core stress/atom NULL
#compute        p_core core reduce sum c_peratom_core[1] c_peratom_core[2] c_peratom_core[3]
#variable       press_core equal -(c_p_core[1]+c_p_core[2]+c_p_core[3])/(3*1249982.5)


## compute pressure surface
#compute        peratom_surf surface stress/atom NULL
#compute        p_surf surface reduce sum c_peratom_surf[1] c_peratom_surf[2] #c_peratom_surf[3]
#variable       press_surf equal -(c_p_surf[1]+c_p_surf[2]+c_p_surf[3])/(3*42395)

## compute total pressure of drop
compute        peratom water stress/atom NULL
compute        p water reduce sum c_peratom[1] c_peratom[2] c_peratom[3]
variable       press equal -(c_p[1]+c_p[2]+c_p[3])/(3*58187)


# compute order parameter
compute        3 all orientorder/atom nnn NULL cutoff 3.5

# compute center of mass of bridge
compute 	4 water com

# Run simulation
thermo_style        custom step c_2 press vol etotal ke pe v_press c_1[4] c_4[*]
thermo              200
dump		     1 water custom 400 ${DIR}/prod.${NAME}.dump id type x y z vx vy vz c_3[*] c_peratom[*]
dump		     1 water custom 400 run_10/prod.${NAME}.dump id type x y z vx vy vz c_3[*] c_peratom[*]
dump		     1 water custom 400 run_10/prod.ibeam_cooling_10.dump id type x y z vx vy vz c_3[*] c_peratom[*]
run                 ${STEPS}
run                 4000000
Neighbor list info ...
  update every 1 steps, delay 0 steps, check yes
  max neighbors/atom: 2000, page size: 100000
  master list distance cutoff = 6.6747184
  ghost atom cutoff = 6.6747184
  binsize = 3.3373592, bins = 24 22 12
  2 neighbor lists, perpetual/occasional/extra = 1 1 0
  (1) pair sw, perpetual
      attributes: full, newton on
      pair build: full/bin/atomonly
      stencil: full/bin/3d
      bin: standard
  (2) compute orientorder/atom, occasional, copy from (1)
      attributes: full, newton on
      pair build: copy
      stencil: none
      bin: none
Per MPI rank memory allocation (min/avg/max) = 6.108 | 6.688 | 7.324 Mbytes
Step c_2 Press Volume TotEng KinEng PotEng v_press c_1[4] c_4[1] c_4[2] c_4[3] 
       0    234.62751   -300.67129       229892   -22637.861    1668.0214   -24305.883   -673.87339    30.631965    39.433465    35.563219    26.712435 
     200    231.00564   -414.19808       229892   -22643.621    1642.2727   -24285.894   -1103.4219    31.670496    39.435925    35.564523    26.728644 
     400    230.86273   -434.98957       229892   -22653.307    1641.2567   -24294.564   -1170.2134    33.219952     39.43785    35.565934    26.733902 
     600    237.81352    -387.5527       229892   -22547.976    1690.6715   -24238.647   -941.85057    34.161888    39.437666    35.566049     26.74822 
     800    236.17284   -283.21101       229892   -22525.379    1679.0075   -24204.387   -568.28665     35.63005    39.436377    35.567543    26.769631 
    1000    232.16999   -173.29504       229892   -22570.993    1650.5503   -24221.543    -135.1074    37.551232    39.436351    35.568617    26.783201 
    1200    237.59044    -250.9813       229892   -22525.337    1689.0856   -24214.423    -419.5911    38.071951    39.436031    35.571185    26.785955 
    1400    237.30362   -360.68577       229892   -22506.237    1687.0465   -24193.284   -882.02367    38.688382    39.434736    35.571001    26.775187 
    1600    235.94503   -266.16252       229892   -22501.956    1677.3879   -24179.344   -464.49934    39.841665    39.434327    35.570832    26.769997 
    1800    238.18332   -361.95439       229892   -22501.718    1693.3005   -24195.018   -885.72218    41.127258    39.432351    35.571402    26.774521 
    2000    237.97175   -349.76799       229892   -22417.365    1691.7964   -24109.161   -788.25235    42.877521    39.430624    35.571152    26.787533 
    2200    234.41841   -305.07403       229892   -22476.412    1666.5349   -24142.946   -643.34144    44.738032    39.430526    35.570177    26.791048 
    2400    237.08085   -317.54875       229892   -22480.628    1685.4627    -24166.09   -712.53619    46.931607    39.430804    35.569558    26.803503 
    2600    239.67809   -423.26274       229892   -22491.843    1703.9271    -24195.77     -1090.79    48.353475    39.431293    35.568384    26.814353 
    2800    241.51892   -345.60698       229892   -22414.173    1717.0141   -24131.187   -789.57777    50.124909    39.433595    35.569518    26.830045 
    3000    238.99503   -192.03795       229892   -22488.166    1699.0711   -24187.237   -226.20632    52.204712    39.434277    35.569614    26.833021 
    3200    231.38074   -433.20578       229892   -22556.254    1644.9393   -24201.194   -1150.9888    53.888551    39.436212    35.569112    26.847827 
    3400    231.13496   -290.16246       229892   -22568.217     1643.192   -24211.409   -588.78009    54.569224     39.43659    35.569457    26.840558 
    3600    227.33237   -317.22114       229892   -22568.074    1616.1586   -24184.233   -677.60799    55.895095    39.435006    35.570417    26.816644 
    3800     231.1298   -301.72963       229892   -22492.117    1643.1553   -24135.272   -671.21145    56.611332    39.434749    35.572248    26.814268 
    4000    232.48861   -371.11251       229892   -22533.761    1652.8155   -24186.577   -899.88202    57.229175      39.4356    35.573144    26.808006 
    4200    233.92105   -371.89406       229892   -22476.753     1662.999   -24139.752   -913.74907    57.271351    39.434957    35.573033    26.814925 
    4400    235.98515   -274.35254       229892   -22491.621    1677.6732   -24169.294   -518.78579     58.43286    39.434472    35.571898    26.817717 
    4600    231.82892   -423.49821       229892   -22584.612    1648.1255   -24232.738   -1123.9309    59.171208    39.434666    35.571287    26.816965 
    4800     234.2907    -465.9966       229892   -22446.149     1665.627   -24111.776   -1309.3616    60.634438    39.433837    35.572729    26.816584 
    5000    228.87889   -500.26008       229892    -22493.89    1627.1531   -24121.043   -1404.1442    62.628965    39.433732    35.576965    26.799878 
    5200    230.81355   -229.45597       229892   -22500.144    1640.9071   -24141.051   -376.41357    64.517242    39.433494      35.5798     26.82283 
    5400    234.24459   -394.73525       229892   -22558.977    1665.2991   -24224.276   -992.86926    65.760405    39.432542    35.578659    26.837953 
    5600    235.22163    -347.1179       229892    -22575.35    1672.2451   -24247.595   -805.36658    68.299966    39.434406    35.577703    26.833982 
    5800     239.0586   -381.20862       229892    -22517.97    1699.5231   -24217.493   -961.49459    69.175436    39.436084    35.578982    26.841014 
    6000    237.63642   -378.54172       229892   -22562.655    1689.4124   -24252.068   -938.87445    69.706698    39.437718    35.579887    26.856571 
    6200    229.69554   -427.03747       229892   -22595.438    1632.9589   -24228.397   -1132.0812      72.1948    39.440243    35.582313    26.851453 
    6400    231.33682   -388.02632       229892   -22589.811    1644.6271   -24234.438   -973.37108    74.272056     39.44089    35.583089    26.838033 
    6600    235.25918    -200.7753       229892   -22589.817    1672.5121   -24262.329   -291.84313    74.826035    39.437939    35.583192    26.834056 
    6800    234.69735   -441.33261       229892   -22557.396    1668.5179   -24225.914   -1213.3248    75.959062    39.436293    35.582068    26.830225 
    7000    241.37861   -316.91973       229892   -22533.155    1716.0166   -24249.172   -736.72967    76.541521    39.435278    35.581735    26.841952 
    7200    229.97156   -474.51248       229892   -22619.204    1634.9211   -24254.125   -1325.6974    77.688848    39.435425    35.580503     26.85306 
    7400    232.77875   -394.33426       229892   -22602.913    1654.8782   -24257.791   -992.10829    78.737356    39.435042     35.57989    26.855301 
    7600    236.87868   -395.13391       229892   -22554.309    1684.0255   -24238.335    -998.8182    80.603246    39.434015    35.580742    26.852936 
    7800    237.05704   -279.64809       229892   -22641.197    1685.2935   -24326.491    -574.2501    82.431731    39.434993    35.581914     26.85561 
    8000    237.61529   -333.33752       229892   -22542.667    1689.2622    -24231.93   -769.50997    82.593052    39.436294     35.58333    26.858691 
    8200    240.64691   -161.08219       229892   -22586.252    1710.8147   -24297.067   -118.32397    84.440126     39.43639    35.586276    26.859135 
    8400    236.09474   -238.36533       229892   -22559.744    1678.4523   -24238.196   -382.37883    85.403833    39.436367    35.589271    26.865418 
    8600    231.49677   -235.24103       229892   -22597.472    1645.7642   -24243.236   -363.95345    86.527065    39.437358    35.592885    26.863475 
    8800     230.9356    -327.5144       229892    -22606.04    1641.7748   -24247.815   -722.80034     86.55804    39.437242    35.593394    26.860508 
    9000    231.40507   -336.97343       229892   -22565.716    1645.1123   -24210.829   -782.33959    88.670673    39.440518     35.59528     26.86713 
    9200    240.44492   -288.44169       229892   -22530.893    1709.3787   -24240.272    -573.1187    89.135956    39.442419     35.59588    26.857281 
    9400    231.92912    -409.2319       229892   -22590.662    1648.8379     -24239.5   -1047.1508    90.740449    39.444672    35.598003    26.857507 
    9600    235.41744    -476.9581       229892   -22615.744    1673.6372   -24289.381   -1315.7242    91.857141    39.443644    35.598363    26.864732 
    9800    232.07378   -386.81627       229892   -22538.651    1649.8663   -24188.517   -971.80508    92.407123    39.444339    35.599387    26.870541 
   10000    234.86655   -416.24157       229892   -22591.858    1669.7208   -24261.579   -1124.1178    93.616688     39.44253    35.600573    26.872299 
   10200    240.61182   -385.68123       229892   -22526.985    1710.5652    -24237.55   -944.98609    95.062802    39.443713     35.59997    26.866697 
   10400    240.66023   -297.94767       229892    -22552.28    1710.9094    -24263.19   -613.57639    94.943947    39.443427    35.596283    26.838966 
   10600    226.22487   -568.49112       229892   -22601.189    1608.2851   -24209.474   -1689.3384     97.42941    39.444807    35.593716    26.844655 
   10800    232.49685   -335.92805       229892   -22627.353    1652.8741   -24280.227   -759.77409    99.129511    39.447417    35.594526    26.841623 
   11000    235.40303   -563.18004       229892    -22644.97    1673.5348   -24318.505   -1667.0962    99.451377    39.449381    35.593244    26.832484 
   11200      228.696    -308.5027       229892   -22652.137    1625.8529   -24277.989   -652.44724    100.53008    39.449453    35.590738    26.856458 
   11400    233.69493   -346.47875       229892   -22609.128    1661.3915    -24270.52   -838.69308    101.27281    39.450009    35.592725    26.859191 
   11600    238.49946    -452.4296       229892   -22519.074     1695.548   -24214.622   -1247.4279    101.15533    39.449801    35.593646    26.878028 
   11800    242.07225   -419.83782       229892   -22533.413    1720.9478   -24254.361   -1094.1098    103.78892    39.449496    35.592671    26.885693 
   12000    228.33142   -542.83458       229892   -22534.555     1623.261   -24157.817   -1620.4107    106.79106    39.449525    35.592727    26.905463 
   12200    233.50386   -96.792436       229892   -22524.096    1660.0331    -24184.13    132.44789     107.2289    39.447538    35.591407    26.924109 
   12400    232.09113   -416.52761       229892   -22569.477    1649.9897   -24219.466   -1099.2953    106.46119      39.4435    35.589952    26.931797 
   12600    236.68148   -475.11876       229892   -22481.947    1682.6235    -24164.57   -1282.6174    107.91038    39.442866    35.587618    26.940506 
   12800     238.0327   -256.30688       229892   -22536.919    1692.2297   -24229.149   -495.47992    108.78355       39.443    35.587891    26.927014 
   13000    238.23864   -390.93782       229892   -22572.626    1693.6938    -24266.32   -1028.4504    109.39994    39.442116    35.588216    26.924443 
   13200    233.93079    -305.1015       229892    -22608.38    1663.0683   -24271.449   -645.20425    110.60129    39.441931     35.58513    26.895123 
   13400    234.42527   -349.83155       229892   -22680.407    1666.5836    -24346.99   -835.33213    111.86902      39.4425     35.58565     26.87051 
   13600    237.24598   -330.88283       229892    -22618.52    1686.6367   -24305.157     -764.667    113.26075    39.439473    35.584272    26.872045 
   13800    235.18511   -252.35101       229892    -22557.38    1671.9855   -24229.366   -452.22586    114.02236    39.439279    35.582816    26.888876 
   14000    240.68506   -423.79612       229892   -22519.281    1711.0859   -24230.366   -1134.2954    114.91879    39.440662    35.582905    26.898763 
   14200    236.69726   -278.69749       229892   -22573.158    1682.7357   -24255.894   -540.46154    114.69906    39.442494     35.58427    26.880268 
   14400    232.70422   -204.77073       229892   -22641.677    1654.3483   -24296.026   -250.57477     115.0529    39.442398    35.581336    26.883878 
   14600    235.13366   -418.56883       229892   -22604.436    1671.6197   -24276.055   -1077.5433    115.37324    39.443466     35.58056    26.887676 
   14800     233.7084   -266.75425       229892    -22530.54    1661.4872   -24192.028   -518.63466    116.68882    39.443028    35.581403    26.891946 
   15000    232.61413   -330.16425       229892   -22581.008    1653.7078   -24234.716   -708.17228    118.30226    39.441758    35.581266     26.88779 
   15200    235.16387   -290.33891       229892   -22568.353    1671.8345   -24240.188   -571.97853     118.8779    39.444171    35.581684     26.89031 
   15400    231.76074     -671.644       229892   -22626.146    1647.6409   -24273.787   -2086.4232    118.98292    39.444529    35.580667    26.883641 
   15600    239.63523    -459.1632       229892   -22491.128    1703.6225    -24194.75   -1218.4383    119.56585    39.445688    35.581231    26.893465 
   15800    236.58365   -298.94483       229892   -22521.867    1681.9281   -24203.795   -592.16913     120.1402    39.447707    35.582928    26.874262 
   16000     238.0685   -468.92816       229892   -22565.244    1692.4842   -24257.728   -1304.2466    120.54204    39.448586    35.585191    26.850598 
   16200    236.06202   -467.25227       229892   -22498.934    1678.2197   -24177.154   -1284.4923    121.47663    39.446918     35.58374     26.83836 
   16400    231.83517   -178.49503       229892   -22531.712      1648.17   -24179.882   -186.84429    123.13768    39.447634    35.585828    26.839366 
   16600    240.75977   -375.97661       229892    -22519.67     1711.617   -24231.287   -962.79829    123.73612    39.447021    35.589818    26.855092 
   16800    237.14475   -352.80142       229892   -22564.696     1685.917   -24250.613   -823.33482    124.16055    39.447882    35.593826    26.862839 
   17000     231.3087    -332.5361       229892   -22578.929    1644.4272   -24223.356   -741.88775    125.64483    39.447954    35.595334    26.883774 
   17200    234.48034   -247.55635       229892    -22576.96    1666.9751   -24243.935   -416.04875    125.77617    39.447738    35.594713    26.879587 
   17400    231.73754   -330.34042       229892    -22660.27    1647.4759   -24307.746   -742.73726    127.81328    39.447806     35.59384    26.881972 
   17600    238.45965   -307.12269       229892   -22555.178    1695.2649   -24250.443   -616.45011    129.74345    39.448828    35.592232    26.883254 
   17800    237.37342   -332.80697       229892   -22595.285    1687.5427   -24282.827   -807.79602     130.6254    39.448029     35.59437    26.870348 
   18000    235.87302   -288.60789       229892   -22553.408     1676.876   -24230.284   -565.09895    130.51339    39.447036    35.594324    26.845792 
   18200    234.26133   -422.64613       229892    -22527.38    1665.4181   -24192.799   -1134.6534    131.70858    39.446624    35.593165     26.85071 
   18400     235.0644   -332.43207       229892   -22533.256    1671.1273   -24204.383   -766.72148    131.02314    39.446858    35.595871    26.843694 
   18600    239.50702    -324.8619       229892   -22546.387     1702.711   -24249.098    -720.1681    132.23967    39.446296    35.596964    26.835311 
   18800    225.70821   -346.58948       229892   -22609.952     1604.612   -24214.564   -765.82182    133.12752    39.446315     35.59586    26.832529 
   19000    228.80943   -468.56044       229892   -22529.986    1626.6593   -24156.646   -1271.1526    134.28977     39.44698    35.595909    26.827204 
   19200    228.66495   -265.49742       229892   -22537.879    1625.6322   -24163.511   -499.36092    135.87525    39.449115    35.596546    26.829462 
   19400    248.43474   -312.51627       229892   -22487.022    1766.1802   -24253.202   -673.65101    136.98915    39.450008    35.597833    26.843194 
   19600    234.11273   -364.10524       229892   -22482.474    1664.3617   -24146.835   -889.84781    138.09834    39.448154    35.599056    26.858548 
   19800    235.11881   -376.57477       229892   -22463.176    1671.5141   -24134.691    -955.1165    138.84533    39.449289    35.599119     26.87095 
   20000    241.06489   -349.40324       229892     -22461.3    1713.7862   -24175.086   -863.71134    141.06456    39.447942     35.59813    26.871153 
   20200    235.73294   -348.03064       229892   -22524.331    1675.8802   -24200.211    -816.6839    142.41675    39.449487    35.596712    26.874751 
   20400    234.47201   -206.68542       229892   -22466.208    1666.9159   -24133.124   -284.18231    143.23921     39.44859    35.596187    26.860533 
   20600    229.20938   -234.23032       229892   -22565.947    1629.5026    -24195.45   -377.38555    143.11318    39.448748    35.595571    26.847519 
   20800     245.0126   -365.71029       229892   -22467.585    1741.8514   -24209.436   -897.48804    145.14599    39.449884    35.594873    26.853364 
   21000    239.95809    -348.2433       229892   -22465.515    1705.9177   -24171.433   -810.58899    146.84296    39.450964    35.600058    26.855626 
   21200    235.76646   -362.54345       229892   -22462.434    1676.1184   -24138.553   -929.76845     148.4929    39.447388    35.603062    26.855072 
   21400    235.03598   -278.14448       229892   -22469.836    1670.9253   -24140.762   -565.06221    150.81631    39.444627    35.605415    26.842258 
   21600    241.76483   -452.45122       229892    -22393.27    1718.7623   -24112.032   -1260.2651    152.62858    39.443034    35.606152    26.830415 
   21800    231.55018   -271.78992       229892   -22516.645     1646.144   -24162.789   -558.32404    154.01489    39.443885    35.606588    26.832227 
   22000    227.13036   -211.57629       229892   -22603.251    1614.7224   -24217.974   -288.01903    156.47079    39.444156    35.606243     26.82869 
   22200    226.37118   -418.07615       229892    -22625.47    1609.3252   -24234.796   -1102.0097    156.04232    39.444514    35.605773    26.837584 
   22400     237.0954   -274.93194       229892   -22468.534    1685.5662     -24154.1   -546.73654    156.28834    39.444627    35.605365    26.824363 
   22600    235.12617   -443.12016       229892   -22562.936    1671.5665   -24234.502   -1157.2936    156.26714    39.443109    35.604872    26.803291 
   22800    236.43489   -326.01097       229892   -22506.299    1680.8705    -24187.17   -722.85119    158.60364    39.443997    35.604184    26.792628 
   23000    236.79698    -327.2081       229892   -22599.895    1683.4447    -24283.34   -752.32293    159.04619    39.443788    35.605981    26.793037 
   23200    236.34117   -354.53576       229892   -22534.919    1680.2042   -24215.123   -828.66255    160.45809    39.443952    35.606794    26.779845 
   23400      240.083   -382.06054       229892    -22538.17    1706.8057   -24244.976   -950.43669    160.76752    39.444162    35.607261    26.808652 
   23600    242.07908   -284.42672       229892   -22507.694    1720.9964   -24228.691   -567.49788    161.02053    39.443892    35.606669    26.807968 
   23800    233.99744   -222.33265       229892   -22547.318    1663.5421    -24210.86   -287.64805    162.79805    39.444643    35.607641    26.778904 
   24000    234.05453    -317.3669       229892   -22562.511    1663.9479   -24226.459   -753.51701    162.14908    39.445833    35.609414    26.798716 
   24200    237.23947   -206.26869       229892   -22569.041    1686.5904   -24255.631   -283.64823    163.68617    39.445363    35.612667    26.806022 
   24400    231.84003   -195.13612       229892   -22617.191    1648.2045   -24265.396   -201.56132    165.24051    39.445923    35.613798    26.810792 
   24600    232.50297   -333.70797       229892   -22626.639    1652.9175   -24279.556   -764.16659    163.81639    39.447516    35.612276    26.822333 
   24800    235.80667   -422.95874       229892   -22604.638    1676.4043   -24281.042   -1119.1302    164.36086    39.449432    35.612512    26.805602 
   25000     241.6545   -355.68732       229892   -22644.868    1717.9779   -24362.846   -802.91125    165.72351     39.45064    35.612036    26.800077 
   25200    227.36384    -339.4526       229892   -22752.515    1616.3822   -24368.897   -741.99797    165.98842    39.450959    35.613454    26.808618 
   25400    236.51711   -295.06194       229892   -22624.806     1681.455   -24306.261   -588.18988    167.75763    39.453411    35.613954    26.813242 
   25600    248.20429    -485.3615       229892   -22498.347    1764.5419   -24262.889   -1363.7775    168.39737    39.452441    35.614061    26.806786 
   25800    243.06972   -490.92817       229892   -22545.261     1728.039     -24273.3     -1350.09     169.2745    39.451918    35.616273     26.80739 
   26000    234.64689   -258.84567       229892   -22611.739    1668.1592   -24279.898   -467.30177    170.16431    39.449997    35.620388    26.829848 
   26200    239.10416   -432.57797       229892   -22622.885    1699.8469   -24322.731   -1154.8124    171.70669    39.452454    35.623489    26.811944 
   26400    234.78098   -332.92422       229892   -22692.424    1669.1125   -24361.537   -770.96488    173.43028    39.453982    35.624774    26.804367 
   26600     240.2554   -234.98111       229892   -22592.788    1708.0314    -24300.82    -370.1606     174.7268    39.453794     35.62396    26.804583 
   26800    230.03472   -241.09316       229892   -22621.459    1635.3702   -24256.829   -400.05004     174.9689    39.452639    35.623727    26.812605 
   27000    235.90478   -393.06944       229892   -22540.607    1677.1018   -24217.709   -980.56992    177.20635    39.452163    35.623208    26.812052 
   27200    235.24648   -438.14761       229892   -22542.859    1672.4218   -24215.281   -1120.2416    177.35006    39.451651    35.622594    26.808078 
   27400    241.74003   -135.21851       229892   -22491.382    1718.5859   -24209.968    17.889121    178.46626    39.451552    35.623643    26.816233 
   27600    229.86265   -247.61737       229892    -22650.91    1634.1469   -24285.056    -452.7648    177.21442    39.451116    35.625415    26.805861 
   27800    237.01099   -60.956757       229892   -22514.328    1684.9661   -24199.295    316.50861    177.57307    39.452008    35.623473    26.818393 
   28000    230.24649   -391.73398       229892   -22591.398    1636.8757   -24228.273   -986.32175    179.27403    39.449117       35.627    26.803694 
   28200    239.91719   -307.05903       229892   -22557.222    1705.6269   -24262.849   -648.11901    180.80517    39.448723    35.628237    26.780387 
   28400    240.44423   -349.03243       229892   -22575.908    1709.3738   -24285.282   -840.94777    181.87302    39.450517    35.626819    26.769738 
   28600    234.33228    -268.5572       229892   -22622.983    1665.9225   -24288.906   -493.01468    182.05819    39.452138    35.626664    26.754231 
   28800    228.17446   -239.98199       229892   -22618.844    1622.1452    -24240.99   -353.47691    181.69876    39.453386    35.626809    26.752706 
   29000    232.50951   -526.97458       229892   -22590.127     1652.964   -24243.091   -1517.9485    182.85174    39.451351    35.625892    26.755125 
   29200    236.85635   -363.54561       229892   -22583.419    1683.8667   -24267.286   -850.53376    182.72869    39.449558    35.625643     26.77727 
   29400      229.981    -310.1945       229892   -22558.973    1634.9883   -24193.961   -673.37595    185.57526    39.447159    35.626971    26.779317 
   29600    231.92018   -577.59208       229892   -22517.936    1648.7743    -24166.71   -1720.4769    185.19627    39.444705    35.626257    26.783764 
   29800    229.08788   -304.70175       229892   -22599.666    1628.6389   -24228.305    -649.5705    186.53508    39.444515    35.626985    26.757874 
   30000    220.71019   -381.05443       229892   -22660.617    1569.0799   -24229.697    -929.9386    188.13715    39.443842    35.625772    26.739777 
   30200    236.21662   -277.34053       229892   -22577.764    1679.3187   -24257.083   -509.23247    188.53607    39.443396    35.626804    26.729131 
   30400    233.41707   -371.19967       229892   -22633.436    1659.4161   -24292.853   -867.65853    189.34232    39.442342    35.626268    26.726035 
   30600     231.5262   -368.82977       229892   -22661.152    1645.9734   -24307.125   -881.37396    190.70202    39.443917    35.625856    26.725309 
   30800    234.53314   -269.05965       229892   -22626.575    1667.3505   -24293.926   -484.38988    191.23307    39.446294    35.625494    26.733124 
   31000    233.40189   -253.37627       229892    -22624.45    1659.3082   -24283.758   -456.59584    192.27282    39.447638    35.625628     26.72838 
   31200    229.22719   -341.40685       229892   -22586.119    1629.6293   -24215.749   -789.41334    194.41099    39.448959    35.624867    26.737595 
   31400    239.53241   -306.78911       229892   -22549.853    1702.8914   -24252.745   -670.70203    194.20296    39.450421    35.625491    26.737993 
   31600    234.73525   -344.29056       229892   -22572.207    1668.7874   -24240.994    -799.3076    195.10146    39.452769    35.627377    26.748052 
   31800    233.71832   -384.04471       229892   -22459.125    1661.5577   -24120.683   -951.46413    196.17004    39.452264    35.628763    26.746666 
   32000    229.58341   -328.45875       229892   -22570.864    1632.1617   -24203.025   -755.73159    195.21489    39.451265    35.629469    26.747534 
   32200    238.71581   -294.86156       229892   -22584.517    1697.0861   -24281.603   -601.60595    196.72649    39.451391    35.631674    26.746277 
   32400    236.20418   -312.07549       229892   -22611.495    1679.2303   -24290.725    -708.0395     198.1935    39.451514    35.633367    26.746989 
   32600    233.40781   -420.57913       229892   -22546.751    1659.3503   -24206.101   -1098.9199    197.81338    39.452894    35.632115    26.758575 
   32800    236.70078   -391.87964       229892   -22557.116    1682.7607   -24239.877   -988.47105    200.00837     39.45341    35.634376    26.759999 
   33000    239.94754   -403.21277       229892   -22578.999    1705.8427   -24284.842   -1052.3376     200.8214    39.450698    35.634149      26.7538 
   33200    236.78204   -287.07572       229892   -22585.531    1683.3384   -24268.869   -591.66897    202.19159    39.450036     35.63366    26.744468 
   33400    230.87809   -310.72965       229892   -22644.852    1641.3659   -24286.218   -661.49001    202.08927    39.451113    35.635114    26.735839 
   33600    236.89513    -288.6582       229892   -22620.178    1684.1424    -24304.32   -591.41085    203.31187    39.454489    35.632866    26.737274 
   33800    242.53332   -351.27538       229892    -22492.52    1724.2256   -24216.746   -799.89038    204.28051    39.456751    35.634792    26.726226 
   34000    234.74678   -406.12619       229892   -22580.037    1668.8693   -24248.906   -1030.4091    205.16747     39.45761    35.634529    26.736995 
   34200    233.23028   -199.62177       229892   -22568.843    1658.0882   -24226.931   -224.51451    204.91917    39.457313    35.635856    26.730991 
   34400    229.77007   -449.14468       229892   -22622.721    1633.4887    -24256.21   -1196.5911    205.72795    39.458496    35.637549    26.730661 
   34600    235.68366   -390.77796       229892   -22465.292    1675.5298   -24140.822   -952.64681    206.70772    39.458613    35.637557    26.703859 
   34800     238.4757    -399.6601       229892   -22547.033    1695.3791   -24242.412   -1017.7375    206.61177    39.459633    35.639802    26.707546 
   35000    226.23191   -380.81116       229892   -22597.355    1608.3351    -24205.69   -934.47059    207.16434    39.460075    35.640887    26.706675 
   35200    239.99589    -319.1903       229892   -22520.994    1706.1864   -24227.181   -717.44258    208.89377    39.461309    35.643315    26.699703 
   35400    229.96527   -345.82517       229892   -22525.504    1634.8765    -24160.38   -812.12186    210.05068    39.461234    35.644317      26.7234 
   35600     232.6347   -374.33379       229892   -22541.931    1653.8541   -24195.785    -930.0742     210.6634    39.461013    35.644369     26.73484 
   35800    234.92576   -251.98355       229892   -22449.945    1670.1417   -24120.087   -464.39004    212.58756    39.461157    35.644426    26.747158 
   36000    238.82436   -372.39464       229892   -22578.907    1697.8578   -24276.765   -970.89445    212.35367    39.464043    35.645638    26.771987 
   36200    224.61818   -248.06528       229892    -22593.98    1596.8628   -24190.843   -413.25828    213.59304    39.464656    35.644215    26.783759 
   36400    234.12276   -357.43806       229892   -22542.108     1664.433   -24206.541   -857.38809    213.26751    39.463157     35.64324    26.797688 
   36600    238.55666   -346.09357       229892   -22534.729    1695.9546   -24230.683   -839.80242    214.21398    39.464457    35.642431    26.787459 
   36800    230.38799    -362.4644       229892   -22594.542    1637.8817   -24232.424   -852.85271    213.90578    39.464862    35.643195    26.788572 
   37000    230.11986   -224.11928       229892   -22652.237    1635.9755   -24288.213   -317.74126    215.38781    39.465418    35.645796    26.780854 
   37200    230.50972   -326.50558       229892   -22657.249     1638.747   -24295.997    -722.9356      216.041     39.46368    35.648087    26.804358 
   37400    234.21212   -403.77014       229892   -22619.495    1665.0683   -24284.563   -1063.8721     217.2329    39.462343    35.647257    26.800664 
   37600     229.6419   -353.25487       229892   -22614.962    1632.5775   -24247.539   -848.69478    217.11995    39.463049    35.646767    26.800516 
   37800    226.89082   -381.15695       229892   -22641.678    1613.0195   -24254.697   -931.69498    217.27142    39.464911    35.647952    26.802328 
   38000    238.49856   -257.36971       229892   -22531.289    1695.5416   -24226.831   -451.99264    218.41017    39.465073    35.648928    26.804132 
   38200    229.65865   -311.10116       229892   -22569.524    1632.6966    -24202.22   -674.35361    219.31697    39.464935    35.649917     26.78448 
   38400    238.69333   -278.07864       229892   -22500.811    1696.9263   -24197.737   -546.71621    220.20675    39.463856    35.648759    26.758184 
   38600    227.50461   -403.45527       229892   -22543.124     1617.383   -24160.507   -1037.4694    220.39344    39.463373     35.64799    26.759911 
   38800    235.21312   -313.05631       229892   -22548.489    1672.1846   -24220.674   -676.25386    222.45315    39.463841    35.646409    26.750527 
   39000    235.67746   -396.53007       229892   -22523.486    1675.4858   -24198.972   -999.19254    222.61774    39.464962    35.644548    26.750607 
   39200    228.12813   -414.99852       229892   -22589.319    1621.8158   -24211.135   -1083.4811    223.34453    39.463713    35.644047    26.776248 
   39400    235.44175   -208.89877       229892   -22565.694      1673.81   -24239.504   -277.86572    224.44685    39.465453    35.644228    26.790653 
   39600    235.91469   -229.87862       229892   -22513.422    1677.1723   -24190.595   -374.55018    224.76812    39.465117    35.644817      26.8051 
   39800    235.56065   -380.59671       229892   -22548.416    1674.6553   -24223.072   -955.08612    224.68561    39.464057    35.646093    26.805287 
   40000       234.39   -450.62732       229892   -22535.632    1666.3329   -24201.965   -1243.7598    225.62462    39.461857    35.645518    26.822791 
   40200    231.42132   -367.55721       229892    -22547.79    1645.2278   -24193.017    -935.7786    226.70711    39.459432    35.644533    26.819775 
   40400     234.1485   -400.65072       229892   -22598.748     1664.616   -24263.364   -1044.2528    228.39515    39.460199    35.645872    26.828753 
   40600    235.18546   -312.62748       229892   -22503.338     1671.988   -24175.326   -669.12542    228.19637    39.460725    35.645488    26.827159 
   40800    233.59474   -324.15844       229892    -22630.06    1660.6792   -24290.739   -724.27096    230.06057    39.462676    35.646706    26.816802 
   41000    240.34183   -351.86607       229892   -22600.918    1708.6458   -24309.564   -814.92541    230.17999    39.463151    35.647535    26.805093 
   41200    236.38062   -381.96068       229892   -22533.932    1680.4846   -24214.416   -937.95641    230.71782     39.46476    35.648182    26.818829 
   41400    234.74819   -328.89602       229892   -22575.739    1668.8794   -24244.619   -728.16505    231.46112    39.464837    35.647219    26.820655 
   41600    236.68968   -322.19074       229892   -22582.095    1682.6818   -24264.777   -750.08946    232.37289    39.467688    35.646278    26.833549 
   41800    235.56805    -167.0896       229892    -22573.81    1674.7079   -24248.518   -80.781182    233.68818    39.468935    35.642021    26.814182 
   42000    232.09845   -231.04328       229892   -22598.297    1650.0417   -24248.338   -332.17604     233.7843    39.470286    35.641476    26.787203 
   42200    229.81194   -367.85478       229892    -22635.74    1633.7864   -24269.526   -871.89612    234.37077    39.469503    35.641438    26.760021 
   42400    234.95716   -268.95097       229892    -22589.41    1670.3649   -24259.775   -535.04071     234.5881    39.470002    35.643241    26.725449 
   42600    236.31611   -324.94549       229892   -22641.145     1680.026   -24321.171   -721.54871    235.05414    39.471103    35.643937    26.710648 
   42800    235.36777   -363.55703       229892   -22561.855    1673.2841   -24235.139   -850.88823    236.03892    39.471592    35.642442    26.715633 
   43000    236.41396   -566.70653       229892   -22578.712    1680.7217   -24259.434    -1668.491    237.54653    39.471508    35.644834    26.723611 
   43200    237.61008   -491.63377       229892   -22600.275    1689.2252     -24289.5   -1389.8904    239.06003    39.472507    35.647341     26.70702 
   43400    227.90496   -336.46717       229892   -22584.512    1620.2292   -24204.741   -756.01849    239.98591    39.470253    35.649106     26.69975 
   43600    233.84463   -397.33283       229892   -22586.995    1662.4557   -24249.451   -1021.6701    239.09649    39.468945    35.649776    26.695023 
   43800    233.83399   -317.33021       229892   -22639.528    1662.3801   -24301.908   -670.50777    238.84831    39.467924    35.648481    26.692385 
   44000    231.49688   -443.10665       229892   -22686.054     1645.765   -24331.819   -1187.7365    238.83719    39.468287     35.64935    26.675966 
   44200    229.99167   -378.14591       229892   -22602.454    1635.0642   -24237.518   -959.61188    239.28221    39.469774    35.650705    26.676681 
   44400    229.75712   -228.17772       229892   -22623.898    1633.3966   -24257.295    -321.6523    239.76145    39.469009    35.650658    26.681404 
   44600    233.52741   -181.21898       229892   -22621.969    1660.2005    -24282.17   -184.70844    241.06666    39.468809    35.650521    26.697774 
   44800     225.2488    -296.5711       229892   -22632.202    1601.3459   -24233.548   -638.46063    241.87925    39.468886    35.650218    26.690036 
   45000    234.59138   -347.71903       229892   -22594.729    1667.7646   -24262.494   -823.74479    243.27696    39.466434     35.64763    26.673419 
   45200    233.05231   -569.27913       229892   -22555.054    1656.8229   -24211.877   -1674.3137    245.17533    39.467353    35.646323    26.676943 
   45400    231.22244   -242.32008       229892   -22629.459     1643.814   -24273.273   -408.00338    245.89018    39.469142    35.645812    26.666214 
   45600    240.58053   -478.85782       229892   -22562.892    1710.3428   -24273.235   -1302.6237    246.64445    39.469038    35.646333    26.669676 
   45800     238.0225   -422.50541       229892     -22576.4    1692.1571   -24268.557   -1064.5397    246.12384     39.46899    35.646164    26.660938 
   46000    234.29888   -221.39163       229892   -22514.985    1665.6851    -24180.67   -294.32385    247.69091     39.46698     35.64383    26.657819 
   46200    238.12339   -431.12849       229892   -22484.056    1692.8744    -24176.93   -1128.4731    248.92473    39.464884    35.645556    26.658493 
   46400    234.05628   -372.43081       229892   -22566.943    1663.9604   -24230.904   -900.54779    250.13681      39.4656    35.644172    26.653668 
   46600    233.76415   -446.83279       229892   -22556.765    1661.8836   -24218.649   -1196.9412    250.17349     39.46569    35.646341    26.670956 
   46800    235.17383   -217.74392       229892   -22524.496    1671.9053   -24196.401   -280.61409    252.52467    39.463895    35.648318    26.646896 
   47000    232.24937    -360.3603       229892   -22485.364    1651.1146   -24136.478   -857.97159    254.56037    39.463271      35.6463    26.631993 
   47200    227.87765   -307.40023       229892   -22588.738    1620.0351   -24208.773   -634.01431    254.60683    39.462759    35.647758    26.619871 
   47400    235.86755   -224.39215       229892   -22526.643    1676.8371    -24203.48    -338.0098    256.28413    39.461378    35.647172    26.614829 
   47600    235.34766    -312.9485       229892   -22576.755    1673.1411   -24249.896    -647.9997    257.83337    39.460711    35.646289    26.622085 
   47800    230.68748    -376.8452       229892   -22599.337    1640.0108   -24239.348    -930.6709    258.07961    39.461995    35.647266    26.620041 
   48000    233.29301   -629.20019       229892   -22561.316    1658.5341    -24219.85   -1911.3517    259.17419     39.46321    35.644642    26.608001 
   48200      233.722   -319.77218       229892   -22583.753    1661.5839   -24245.337   -707.37884    259.42142    39.461704    35.644284     26.60515 
   48400    233.16857   -316.87439       229892   -22575.907    1657.6495   -24233.557   -715.36731    260.27195    39.464842    35.644011    26.629613 
   48600    235.73992   -297.73352       229892   -22640.578    1675.9298   -24316.508   -619.90311    261.36572    39.465816    35.641887    26.639462 
   48800    230.30721   -578.54409       229892   -22603.196    1637.3074   -24240.503   -1729.7881    261.75186    39.468191    35.641588    26.641186 
   49000    238.84743   -315.84801       229892    -22620.83    1698.0218   -24318.852   -669.65022    261.77425    39.466442    35.641209     26.65668 
   49200    234.06044   -318.79574       229892   -22584.742      1663.99   -24248.732   -677.76799    263.22753    39.464593    35.641686    26.651628 
   49400     231.1325    -235.5213       229892   -22619.749    1643.1745   -24262.924   -401.93693    262.29826    39.464225    35.641458    26.638489 
   49600    230.71397   -401.29099       229892   -22591.382    1640.1992   -24231.581   -1017.7871     264.0481    39.464421    35.642477    26.646599 
   49800    231.72998   -234.68039       229892   -22596.272    1647.4222   -24243.694   -361.57554    264.87176    39.464458    35.640983    26.651869 
   50000     235.0452   -373.17681       229892   -22565.743    1670.9908   -24236.734   -896.98851    266.68309    39.465134    35.640203    26.645809 
   50200    239.95336   -368.15852       229892   -22505.713    1705.8841   -24211.597   -867.20799    268.34807    39.463479    35.638197    26.646281 
   50400    236.17694   -356.00223       229892   -22533.612    1679.0367   -24212.648   -873.05109    268.29197    39.463719      35.6391    26.638683 
   50600    241.43503   -277.76186       229892   -22418.259    1716.4176   -24134.676   -518.93531    268.79108    39.463249    35.639432     26.65365 
   50800    225.72023   -316.28011       229892    -22581.55    1604.6975   -24186.247   -720.49968    268.58443    39.465759     35.63873    26.687849 
   51000    232.13314   -335.83021       229892   -22557.075    1650.2884   -24207.363   -754.45841    270.94702     39.46509    35.638537    26.705415 
   51200    230.83111   -278.93784       229892   -22595.913    1641.0319   -24236.945   -515.51652    272.09423    39.463714    35.640196    26.694058 
   51400    234.90113   -267.11287       229892   -22579.376    1669.9666   -24249.343   -473.43215    273.32791    39.463959    35.641262    26.688666 
   51600    231.19355   -380.42983       229892   -22605.383    1643.6086   -24248.992   -944.81651     273.5558    39.463035    35.640058    26.665516 
   51800     235.9093   -408.12479       229892   -22556.037     1677.134   -24233.171   -1028.6608     274.7467    39.465821    35.639434    26.646612 
   52000    241.35831   -431.93961       229892   -22618.827    1715.8722   -24334.699   -1168.5487    277.11359    39.465927     35.63871    26.636213 
   52200     228.3439   -112.26848       229892   -22637.045    1623.3497   -24260.394    93.217495    277.01942    39.463904    35.640464    26.646987 
   52400    228.81633   -399.65369       229892   -22682.601    1626.7083   -24309.309   -999.29822     277.1903     39.46305    35.638949    26.623127 
   52600    238.61178   -479.52836       229892   -22568.783    1696.3465    -24265.13   -1335.4233    279.40848     39.46342    35.639686    26.613487 
   52800    236.98253   -577.90239       229892   -22514.263    1684.7638   -24199.027   -1727.2593    280.17625    39.465831    35.641978    26.634217 
   53000    240.16582   -303.99205       229892   -22527.661    1707.3945   -24235.056   -628.80019    280.37469    39.467635    35.641532    26.636839 
   53200    234.39278   -286.24639       229892   -22637.657    1666.3526   -24304.009   -592.88319    283.07782    39.470687    35.638057    26.636388 
   53400    237.39973   -371.23793       229892   -22615.447    1687.7297   -24303.177   -887.89931    283.78776    39.471713    35.638192    26.643732 
   53600     229.7585    -469.6983       229892   -22677.619    1633.4065   -24311.025   -1287.7281    284.51688    39.471591    35.638878    26.642746 
   53800    235.80449   -312.05702       229892   -22613.378    1676.3888   -24289.767    -622.7696    285.05471    39.470376    35.638068    26.611603 
   54000    235.59467   -357.59479       229892   -22557.002    1674.8971   -24231.899   -884.80727    286.89573    39.470551    35.638389    26.594178 
   54200     237.4411   -250.56994       229892   -22496.395    1688.0239   -24184.419   -412.10052    287.56564    39.471598    35.639161    26.592292 
   54400    239.80359   -319.52231       229892   -22494.192    1704.8193   -24199.011   -740.19513    289.22631    39.469725    35.640062    26.581941 
   54600    237.25028   -336.19059       229892   -22549.205    1686.6672   -24235.872   -787.59117    290.34362    39.472289    35.638037    26.569202 
   54800    235.59758    -384.6916       229892   -22522.276    1674.9178   -24197.194   -990.64685     291.5536    39.472525    35.639332    26.569898 
   55000    240.02958   -328.33335       229892   -22497.616     1706.426   -24204.042   -692.70603    291.02155     39.47422    35.639208    26.574974 
   55200    227.68059   -387.66617       229892   -22608.348    1618.6342   -24226.982   -988.60063     292.4346    39.475687    35.639688    26.590596 
   55400    235.37125   -375.88125       229892   -22552.096    1673.3088   -24225.405   -926.12329    294.32131    39.473921    35.638941    26.586889 
   55600      228.644   -612.23567       229892   -22569.419    1625.4832   -24194.902   -1815.2441    295.15058    39.474536    35.640805    26.590496 
   55800    243.22245   -278.07297       229892   -22477.191    1729.1248   -24206.316   -525.87649    296.31378    39.474402    35.642543    26.592626 
   56000    237.98756    -619.1398       229892   -22527.785    1691.9088   -24219.693   -1875.2285    297.00177    39.476223    35.644309    26.568827 
   56200    237.10746   -512.72308       229892   -22547.326     1685.652   -24232.978   -1413.9948    296.32994    39.478289      35.6448    26.564442 
   56400    235.35075   -425.16062       229892   -22638.526     1673.163   -24311.689   -1127.2566    296.67901    39.480231    35.643166      26.5444 
   56600    228.65293   -385.43464       229892   -22686.198    1625.5467   -24311.744   -942.09658    298.20516    39.482248    35.645127    26.560369 
   56800    231.02754   -404.35109       229892   -22598.013    1642.4284   -24240.441   -1045.3438    299.46539    39.481747     35.64549    26.557468 
   57000    227.44123    -382.5262       229892   -22660.755    1616.9324   -24277.687   -932.63524    302.32531    39.479777    35.646518    26.570871 
   57200    240.36349   -328.02293       229892   -22577.239    1708.7998   -24286.039   -749.69373    303.51623     39.48024    35.648695    26.565555 
   57400    236.79355   -358.37988       229892   -22612.894    1683.4203   -24296.314   -823.01534    305.40431    39.479799    35.649166    26.572835 
   57600    233.63433   -314.33736       229892   -22632.088    1660.9606   -24293.048   -623.15265    306.20086    39.480313    35.652141    26.556502 
   57800    237.21457   -328.09479       229892   -22583.166    1686.4134    -24269.58   -686.46037    306.87297    39.481552    35.651712    26.578369 
   58000    232.77465   -413.85703       229892   -22603.868     1654.849   -24258.717   -1083.9722    308.66069    39.480182    35.653738    26.563124 
   58200    239.63177   -240.02945       229892   -22548.695    1703.5979   -24252.293   -384.62612    309.34972    39.479939    35.652899    26.593431 
   58400    236.65386   -107.60682       229892   -22578.851    1682.4272   -24261.278    143.31078    310.04581     39.47924    35.651691    26.600021 
   58600    230.81883   -422.15693       229892   -22577.829    1640.9446   -24218.774   -1075.4286     311.4912    39.480431    35.650213    26.612249 
   58800    233.50776   -259.16623       229892   -22564.047    1660.0609   -24224.108   -460.31436    313.12938    39.480667      35.6522    26.619234 
   59000    241.46122   -293.87149       229892   -22524.644    1716.6038   -24241.247   -577.10623    313.47234     39.48113    35.650894    26.640042 
   59200    237.75958   -387.89003       229892   -22584.366     1690.288   -24274.654   -921.54492    316.64558    39.480903    35.649047    26.650203 
   59400    235.29743   -353.89932       229892   -22599.075     1672.784   -24271.859   -835.43552    316.71154    39.482696    35.649776    26.648286 
   59600    230.98543    -541.7087       229892     -22634.6     1642.129   -24276.729    -1583.354    317.23115    39.484296    35.646915    26.663391 
   59800    235.66362   -377.90016       229892   -22596.378    1675.3874   -24271.766   -899.13567    317.91688    39.485651    35.645993    26.658052 
   60000    242.55037   -307.23303       229892   -22566.455    1724.3469   -24290.802    -669.8997    319.24162    39.486279    35.645287    26.640442 
   60200    232.77526    -444.3284       229892   -22594.021    1654.8533   -24248.874   -1185.5142    319.37199    39.488573    35.643958    26.643573 
   60400    237.05583   -215.15738       229892   -22575.622    1685.2849   -24260.907   -267.82265    319.78767    39.487931    35.646246    26.631733 
   60600    238.07665   -496.21318       229892   -22548.742    1692.5421   -24241.284    -1397.273    321.07289     39.48947    35.644421    26.635945 
   60800    242.34962   -349.86443       229892   -22424.595    1722.9196   -24147.514     -844.349    321.89987    39.490824    35.645149    26.675021 
   61000    234.93883   -384.39822       229892   -22525.367    1670.2346   -24195.602   -933.18586    322.27403     39.49141    35.645975      26.6756 
   61200    237.54697     -334.053       229892   -22511.952    1688.7765   -24200.729   -777.07977      323.287    39.492292     35.64744    26.683507 
   61400     240.8363    -128.7916       229892   -22544.639    1712.1612     -24256.8    8.7950985     325.2154    39.494934    35.646442    26.660281 
   61600    238.07947   -352.75225       229892   -22559.362    1692.5622   -24251.924   -843.66199    327.59507     39.49729    35.647434    26.668467 
   61800    237.74883   -330.59443       229892   -22617.057    1690.2116   -24307.268   -735.59867    328.32839    39.500107    35.650539    26.683229 
   62000     234.5656   -448.91439       229892   -22536.419    1667.5813       -24204   -1189.9669    331.30587     39.49985    35.652096    26.704285 
   62200    233.04329   -443.99716       229892   -22556.171    1656.7588   -24212.929   -1189.6195    331.63392    39.498415    35.653754    26.703897 
   62400    233.76936   -325.25473       229892   -22569.943    1661.9206   -24231.864   -752.26159    331.50732    39.496835    35.652781    26.703155 
   62600     234.0709   -287.27508       229892   -22582.903    1664.0644   -24246.968   -570.56328    331.04993    39.496769    35.651181    26.727283 
   62800    231.50059   -366.99833       229892   -22665.824    1645.7914   -24311.616   -881.44548    332.72568    39.496156    35.649014    26.720713 
   63000    236.21224   -316.09968       229892   -22564.342    1679.2876    -24243.63   -725.69086    332.00575    39.495431    35.646809    26.730133 
   63200    229.40486   -345.99032       229892   -22612.611    1630.8924   -24243.504   -822.40735    332.55634    39.493294    35.645993    26.743965 
   63400    230.64327   -260.03917       229892   -22663.516    1639.6965   -24303.213   -455.85394    333.86169    39.493113    35.644261    26.734013 
   63600     229.2056   -323.94245       229892   -22660.767    1629.4758   -24290.243   -701.07356    333.03944    39.496935    35.644527    26.730541 
   63800    229.37578   -451.01925       229892   -22658.394    1630.6857   -24289.079   -1242.5187    333.49595     39.50091    35.645329    26.748304 
   64000     240.5721   -195.12458       229892   -22588.309    1710.2829   -24298.592      -255.26    333.80115    39.502527    35.644207    26.756724 
   64200    231.41253   -298.46794       229892   -22572.996    1645.1654   -24218.161   -593.90279    334.49225     39.50217     35.64357    26.748495 
   64400    233.28133   -440.41153       229892   -22607.595    1658.4511   -24266.046   -1177.3843    334.68223    39.503448    35.642104    26.732026 
   64600    235.14518   -360.42743       229892   -22634.689    1671.7016   -24306.391   -869.66824    333.19805    39.504202    35.640893    26.738353 
   64800    234.30593   -409.90575       229892   -22611.973    1665.7352   -24277.708   -1042.4939    333.49477    39.503071    35.638482    26.741831 
   65000    239.13522   -437.19187       229892   -22508.462    1700.0678    -24208.53   -1205.4996    334.52076     39.50245    35.637582     26.74196 
   65200    234.03271   -447.02976       229892   -22579.111    1663.7928   -24242.904   -1249.1631    335.69132    39.503378    35.636975    26.744599 
   65400    231.49489   -387.61375       229892   -22627.634    1645.7509   -24273.385   -963.47592     336.2933    39.502577    35.638117    26.733824 
   65600     228.9177   -140.31611       229892   -22546.077     1627.429   -24173.507    8.1073229    336.85288    39.503909    35.640127    26.753587 
   65800    236.09456   -274.54097       229892   -22571.454     1678.451   -24249.905   -500.73974    336.93246    39.502866    35.640773    26.762306 
   66000    232.04845   -458.13462       229892   -22510.066    1649.6862   -24159.753   -1234.2128    337.38473    39.504976    35.643764    26.775272 
   66200    232.66841   -166.07958       229892   -22547.666    1654.0937    -24201.76   -97.326709    339.33498    39.507966    35.644649    26.793621 
   66400     233.0354   -428.74983       229892   -22545.987    1656.7027    -24202.69   -1151.4293    339.06743    39.508309    35.644513    26.774845 
   66600    231.27285   -343.25059       229892   -22621.452    1644.1723   -24265.624   -824.51625    340.48678     39.50654    35.644766    26.772575 
   66800    230.35142   -352.34658       229892   -22611.088    1637.6217   -24248.709   -833.41875    340.50585    39.504696    35.644083    26.775335 
   67000    222.52659   -380.32613       229892   -22679.089    1581.9931   -24261.083   -998.31171    341.01639    39.504212    35.646777    26.776641 
   67200    235.07288   -288.48406       229892   -22604.811    1671.1877   -24275.999   -612.88344    341.91199    39.504306    35.649378    26.773175 
   67400    233.81194   -504.54155       229892   -22588.887    1662.2233   -24251.111   -1448.7896    342.96801    39.501975    35.649134     26.75007 
   67600    238.69418   -308.98955       229892   -22545.351    1696.9323   -24242.283   -669.73014     341.4997    39.501144    35.650321    26.748524 
   67800    237.64615   -496.78877       229892   -22592.765    1689.4816   -24282.247   -1398.4794    341.99832    39.502264    35.651374    26.748003 
   68000    233.04865   -346.89474       229892   -22643.096    1656.7969   -24299.893   -781.65789    343.03624    39.503244    35.652647    26.759111 
   68200    230.89279   -347.07254       229892    -22588.13    1641.4704   -24229.601   -805.50879    345.41588    39.501218    35.656458    26.756112 
   68400    235.82063   -315.02759       229892   -22542.366    1676.5036    -24218.87   -644.84308    346.13006     39.50068    35.658543    26.741273 
   68600    232.12742   -407.71962       229892   -22592.245    1650.2477   -24242.492   -1028.8679    345.61902    39.498122    35.659389    26.737755 
   68800    236.70965   -412.07909       229892   -22524.347    1682.8238    -24207.17    -1094.174    345.72409    39.495994    35.659168    26.721444 
   69000    232.25045   -285.93733       229892   -22536.159    1651.1223   -24187.281   -594.59419    346.50085    39.496025    35.658484    26.708935 
   69200    231.60001   -430.40436       229892   -22638.179    1646.4982   -24284.677   -1122.8113    347.75821    39.495688     35.65683    26.706399 
   69400    231.68552   -239.43845       229892   -22632.231    1647.1061   -24279.337   -412.22164    347.59229    39.497108    35.655671    26.713736 
   69600    233.15449   -317.77873       229892   -22506.858    1657.5494   -24164.408   -635.11216    348.93451    39.497731    35.653753    26.709105 
   69800    235.52651   -394.02338       229892   -22542.645    1674.4126   -24217.058    -998.3939    349.48327    39.498405    35.653425    26.700799 
   70000    235.88776   -270.42368       229892   -22602.679    1676.9808    -24279.66   -525.85903    349.93604    39.497715    35.655273     26.70828 
   70200    245.64689   -318.18606       229892   -22512.941    1746.3607   -24259.302   -699.45061    350.82542    39.497933    35.656064    26.716898 
   70400    239.62893   -341.47494       229892   -22535.341    1703.5776   -24238.918   -850.63221     351.7788    39.496064    35.655891     26.70571 
   70600    231.37121   -361.46025       229892   -22548.725    1644.8716   -24193.597   -872.16832    353.43846     39.49334    35.655967    26.726571 
   70800    239.73553   -287.91259       229892   -22532.415    1704.3355    -24236.75    -621.2218    351.85118    39.493381    35.655052    26.733704 
   71000    232.49792   -327.13192       229892   -22522.701    1652.8816   -24175.582   -761.52926    353.60967    39.496328     35.65409    26.747281 
   71200    229.32383   -489.15539       229892    -22514.97    1630.3163   -24145.286   -1379.8018    353.69026    39.497652    35.654794    26.744022 
   71400    237.42181   -336.03427       229892   -22543.509    1687.8867   -24231.396   -743.24104    355.71848    39.498889    35.655604    26.737646 
   71600    240.33112   -345.99099       229892   -22479.626    1708.5697   -24188.195    -808.5465    356.53405    39.499725    35.654904    26.716296 
   71800    229.39215   -241.37679       229892   -22558.053     1630.802   -24188.855   -403.71907    355.73739     39.50149    35.654214    26.711043 
   72000    232.62929   -214.73822       229892   -22587.348    1653.8156   -24241.164   -330.33454    355.97044    39.501463    35.653979     26.69253 
   72200    236.14211   -298.86924       229892   -22458.711    1678.7891   -24137.501   -645.22055    359.40912    39.500898    35.652795    26.715593 
   72400    234.14642   -365.09244       229892   -22527.608    1664.6012    -24192.21   -920.63184     360.2611    39.500834    35.652609    26.711622 
   72600    235.59775   -431.49151       229892    -22510.26    1674.9191   -24185.179   -1109.9068    358.92943    39.501197    35.650977    26.721371 
   72800    236.46181   -465.48611       229892   -22546.125    1681.0619   -24227.187   -1257.9582    360.14321    39.501302    35.650556    26.718341 
   73000    228.89535   -336.64512       229892   -22563.331    1627.2702   -24190.602   -787.42491    360.89559    39.500215    35.650836    26.710865 
   73200    235.95508   -209.58456       229892   -22483.316    1677.4594   -24160.776   -260.12588    361.50519    39.498072    35.652064    26.681562 
   73400    240.46258   -428.36329       229892   -22441.821    1709.5043   -24151.325   -1170.8452    361.91948    39.496118    35.653423    26.698683 
   73600    240.31103    -348.9548       229892   -22494.665    1708.4269   -24203.092   -822.03234    362.06187    39.495328    35.653019     26.69905 
   73800    226.26593   -200.04235       229892   -22568.451     1608.577   -24177.028   -189.51775     362.0554    39.493918    35.655115    26.716294 
   74000    232.41065   -387.09463       229892   -22563.482    1652.2612   -24215.743   -934.57647    364.43536    39.492677     35.65545    26.706109 
   74200    234.49675   -360.91687       229892   -22457.422    1667.0918   -24124.513   -852.14207    364.71754    39.491892    35.654879    26.705493 
   74400     238.8873   -309.66201       229892   -22491.514    1698.3053   -24189.819   -679.58662    366.03241    39.492367    35.654352    26.698771 
   74600    236.22283   -365.90598       229892   -22538.069    1679.3629   -24217.432   -869.86733    368.79516    39.493081    35.654592    26.684802 
   74800    234.95006   -310.77717       229892   -22596.882    1670.3145   -24267.196   -685.79851    368.75024    39.494292    35.654559    26.659527 
   75000    233.40931   -304.04937       229892   -22586.885    1659.3609   -24246.246   -626.00276    368.72602    39.494921    35.655773    26.661544 
   75200    235.62247   -373.24413       229892   -22507.147    1675.0948   -24182.242   -914.54405    371.09729    39.495483    35.657146    26.664892 
   75400    230.91219   -322.57216       229892   -22601.674    1641.6083   -24243.282   -714.96129    370.52632    39.494452    35.657061    26.696719 
   75600    235.68174   -342.18294       229892   -22550.599    1675.5161   -24226.116   -814.72298    372.42468    39.494736    35.655442    26.715128 
   75800    238.28311   -230.11632       229892   -22509.523    1694.0099   -24203.533   -365.55494    374.45946    39.493627    35.655224    26.706966 
   76000    240.53154    -261.6912       229892    -22511.99    1709.9945   -24221.984   -479.96088    375.27684    39.491722    35.654576    26.705724 
   76200    228.13827   -228.48594       229892   -22628.107    1621.8878   -24249.995   -358.50115    375.18042    39.490834    35.653908    26.678342 
   76400    231.38625   -301.88461       229892   -22611.556    1644.9786   -24256.534   -640.44543    374.94982    39.491965     35.65596     26.67088 
   76600    241.11796    -251.4385       229892   -22591.454    1714.1635   -24305.618   -434.92641    375.97654    39.491901    35.655375    26.681839 
   76800    230.38536    -492.7115       229892   -22567.926     1637.863   -24205.789   -1380.2215    376.91919     39.49335    35.653636    26.701299 
   77000    232.12941   -486.34343       229892   -22529.908    1650.2618    -24180.17   -1379.0409     378.0216    39.494358    35.651745    26.699646 
   77200    235.26796   -190.48027       229892   -22492.829    1672.5745   -24165.404   -167.02758    378.49688    39.494024    35.650923    26.684384 
   77400    229.27995   -498.66381       229892   -22488.831    1630.0044   -24118.835   -1424.4894    377.83296    39.493898    35.652355    26.666804 
   77600    230.27195   -353.23553       229892   -22536.516    1637.0567   -24173.572   -878.74303    378.41961    39.492285    35.651597    26.665867 
   77800    233.96554   -395.13832       229892   -22540.597    1663.3153   -24203.913     -1024.33    379.66106    39.490656    35.650704    26.639441 
   78000    235.07918   -453.04279       229892   -22511.313    1671.2324   -24182.545   -1259.6537    379.80271    39.490805    35.650886    26.646192 
   78200    240.48668   -337.57038       229892   -22532.253    1709.6756   -24241.928    -777.3709    380.17871    39.489538    35.650843    26.655062 
   78400    233.76728   -431.86093       229892   -22498.502    1661.9058   -24160.408   -1155.7639    381.97639    39.487307    35.654424    26.644911 
   78600    234.63733    -235.7998       229892   -22511.311    1668.0912   -24179.402   -364.37198    382.54809    39.487644    35.651465    26.653145 
   78800    238.23206   -207.47103       229892   -22468.256     1693.647   -24161.903   -260.35322    383.07539    39.486794    35.650211    26.667838 
   79000    233.52644   -166.96603       229892   -22491.929    1660.1936   -24152.123    -116.6497    384.79963    39.485391    35.650025    26.681377 
   79200    238.10965   -388.88142       229892   -22491.265    1692.7767   -24184.042   -990.39051    386.56843    39.483745    35.650607    26.697742 
   79400    236.31155   -381.79671       229892   -22461.657    1679.9936    -24141.65   -949.16244     387.3711    39.482594    35.650436    26.675219 
   79600    233.97088   -126.40314       229892   -22560.611    1663.3533   -24223.964    12.054138    388.70415    39.480944    35.648412    26.642825 
   79800    232.75547   -360.59454       229892   -22539.789    1654.7126   -24194.502   -864.02044    391.55908    39.478392    35.646884    26.638128 
   80000    232.48057   -410.16974       229892   -22570.901    1652.7583   -24223.659   -1090.2037    392.95634    39.477194    35.644096    26.644526 
   80200     230.6795   -258.65395       229892   -22597.509    1639.9541   -24237.463   -455.17135    394.60946    39.476447    35.642711    26.662641 
   80400    227.97818   -350.85745       229892   -22618.642    1620.7497   -24239.392   -852.05895    396.00603     39.47382    35.642297    26.641551 
   80600    235.68559   -239.62947       229892   -22589.591    1675.5435   -24265.135   -374.41167    397.12351    39.471458    35.643784    26.638783 
   80800    229.85657   -474.84133       229892   -22540.262    1634.1037   -24174.366   -1326.8186    398.31461    39.470592    35.645591    26.662106 
   81000     229.0388   -341.20558       229892   -22576.336      1628.29   -24204.626   -813.13747    398.15852     39.46968    35.645836    26.675269 
   81200    232.77528   -375.34348       229892   -22528.865    1654.8535   -24183.718    -933.1947    398.12391    39.468883    35.646924    26.688933 
   81400    239.35219   -356.40516       229892   -22496.142    1701.6102   -24197.752   -826.15231    398.80937    39.470632    35.646578    26.700453 
   81600    234.39847   -625.27039       229892   -22589.982    1666.3931   -24256.375   -1866.8114    399.71372    39.471216    35.647545    26.697232 
   81800    232.12561   -390.54609       229892     -22622.4    1650.2348   -24272.635   -986.55575    399.54314    39.471727    35.646192    26.708532 
   82000    240.70681   -343.95837       229892   -22543.064    1711.2406   -24254.304   -825.72686    399.67946     39.47152    35.645293    26.711711 
   82200    236.13567   -413.97729       229892   -22499.831    1678.7433   -24178.574    -1123.508    401.27801    39.472133    35.644858    26.710147 
   82400    240.99494   -433.37776       229892   -22524.475    1713.2889   -24237.764   -1129.5337    402.17538    39.468373    35.648268    26.694037 
   82600    240.24893   -469.04305       229892   -22455.423    1707.9854   -24163.409   -1323.4898    402.89276    39.469873    35.647966    26.689708 
   82800    234.77513   -434.78754       229892   -22564.148    1669.0708   -24233.219   -1148.5636    403.55274    39.472205    35.648071    26.684757 
   83000    236.29452   -365.50628       229892   -22489.517    1679.8726    -24169.39   -864.05696      404.209    39.472642    35.647605    26.657442 
   83200    232.98886    -336.5436       229892   -22499.355    1656.3719   -24155.727   -762.33977    406.11383    39.472857     35.64603    26.655972 
   83400    232.66066   -408.41135       229892   -22507.148    1654.0386   -24161.187   -1045.6593    406.38816     39.47434    35.643923    26.671845 
   83600    230.80824   -467.53319       229892   -22634.545    1640.8693   -24275.414    -1274.198     406.7378    39.476319    35.644164     26.67929 
   83800    232.73448   -430.67059       229892   -22601.797    1654.5634    -24256.36   -1138.4117    407.83309    39.475578      35.6456    26.671459 
   84000    233.16356   -482.22263       229892   -22581.617    1657.6138    -24239.23   -1347.6153    410.06823    39.474866    35.648173    26.659104 
   84200    236.70012   -557.49471       229892   -22559.422     1682.756   -24242.178   -1621.4694    409.85285     39.47372    35.647554    26.644596 
   84400    233.90255   -506.57074       229892   -22614.075    1662.8675   -24276.943   -1433.2245    408.16966    39.472265     35.64781     26.65108 
   84600    237.01072   -484.75573       229892   -22547.742    1684.9642   -24232.706    -1362.389    409.85786    39.470782    35.651019     26.64321 
   84800    235.60566   -256.73687       229892   -22565.172    1674.9753   -24240.148   -460.49551    410.47447    39.467885    35.652801    26.633321 
   85000     238.3473   -339.11323       229892   -22495.136    1694.4663   -24189.603   -778.65937    410.88064    39.465306    35.652058    26.623182 
   85200    235.23159   -447.36298       229892   -22524.095    1672.3159   -24196.411   -1190.2936    411.59627       39.466    35.651029    26.633549 
   85400    236.11062    -310.6781       229892   -22669.857    1678.5651   -24348.422   -663.73299    412.37067     39.46611    35.650892    26.634852 
   85600    234.24282   -188.21975       229892   -22629.877    1665.2865   -24295.164   -163.43163    414.40648    39.465623    35.648922    26.627365 
   85800    232.10769   -338.54419       229892   -22608.523    1650.1074    -24258.63   -785.71045    415.10143    39.466899    35.647891    26.617707 
   86000    234.54464   -380.49535       229892   -22570.461    1667.4322   -24237.893   -903.00196      415.259    39.469713    35.647597    26.592472 
   86200    238.99622   -343.27007       229892   -22550.681    1699.0796    -24249.76   -766.03504     415.0881    39.472127    35.645805    26.586114 
   86400    235.51301   -269.06373       229892   -22612.515    1674.3166   -24286.832   -532.89959    415.43756    39.473988    35.647392    26.585105 
   86600     241.8704   -495.24724       229892   -22536.974    1719.5128   -24256.487   -1351.6275    417.06002    39.473122    35.647204    26.573002 
   86800    233.91358   -594.08264       229892    -22563.38    1662.9459   -24226.326   -1759.7294    418.56539    39.472185      35.6473     26.58005 
   87000    237.10968   -242.67052       229892   -22533.055    1685.6677   -24218.723   -397.73686    417.99397    39.470517    35.648407    26.591234 
   87200    235.69611   -510.87725       229892   -22501.753    1675.6183   -24177.371   -1453.1786    417.80025    39.471173    35.649594    26.596051 
   87400    227.10879   -492.59691       229892    -22587.68    1614.5691   -24202.249   -1377.2348    420.91245    39.471394    35.649993    26.588862 
   87600    234.47995   -320.92312       229892   -22510.529    1666.9724   -24177.501   -706.29954    422.06157    39.468229    35.651838    26.584355 
   87800     237.5011   -418.23218       229892   -22589.724    1688.4504   -24278.175    -1081.057    423.15187     39.46767    35.653991    26.547767 
   88000    234.59865   -243.66499       229892   -22588.258    1667.8162   -24256.074   -410.91955    423.08375    39.468337    35.652591    26.525757 
   88200    232.33879   -332.60321       229892   -22587.708    1651.7504   -24239.458   -743.17793    422.54739    39.469902    35.652929    26.515651 
   88400     239.0371   -391.23708       229892   -22515.277    1699.3702   -24214.648   -1004.0782    424.45521    39.471292    35.655944    26.505373 
   88600     233.5602   -501.83097       229892   -22542.676    1660.4337    -24203.11   -1443.4051    425.13312     39.47094     35.65851    26.485318 
   88800    233.12925   -375.15852       229892   -22612.992    1657.3699   -24270.362   -939.63574    424.69091    39.472266    35.660035    26.485255 
   89000    235.69737   -449.23955       229892   -22589.611    1675.6273   -24265.238   -1248.8901    425.11366    39.471091    35.660577    26.476532 
   89200    237.62106   -260.97253       229892   -22627.987    1689.3032    -24317.29   -479.33354    425.38489    39.466765    35.662213    26.452219 
   89400    238.78214   -289.44441       229892   -22536.808    1697.5577   -24234.365   -568.16288    425.90859     39.46679    35.659368    26.452999 
   89600    230.00394   -202.99099       229892   -22627.581    1635.1513   -24262.733   -296.74338    426.44971    39.466491    35.662317    26.443269 
   89800    229.95161   -315.61157       229892   -22537.691    1634.7793   -24172.471   -732.60613    428.70817    39.466129    35.662595     26.43126 
   90000     236.4557    -329.1506       229892   -22530.035    1681.0184   -24211.053   -718.52207    429.46756    39.465304    35.664823    26.430846 
   90200    230.87095    -491.6592       229892   -22574.015    1641.3151    -24215.33   -1355.9682    430.48416    39.466574    35.669994    26.421678 
   90400    235.57347   -274.47724       229892   -22533.692    1674.7464   -24208.438   -553.53316    430.86729     39.46516    35.668877    26.426137 
   90600    233.46505   -453.98377       229892   -22564.772    1659.7572   -24224.529   -1226.2771    432.00434    39.465552    35.668943    26.425178 
   90800    235.51672    -220.7834       229892   -22550.301     1674.343   -24224.644   -335.74744    431.53312    39.464695    35.668059    26.426666 
   91000    232.07066   -521.15109       229892    -22582.81    1649.8442   -24232.654   -1490.2246    431.83224    39.462274    35.669743     26.42015 
   91200    233.22155   -365.35507       229892   -22622.225    1658.0261   -24280.251   -884.49216    432.05234    39.462194    35.671655    26.419228 
   91400    235.66373   -573.64523       229892   -22544.165    1675.3881   -24219.553   -1682.2365     432.4587    39.462966    35.673302    26.423216 
   91600    235.01473   -375.51239       229892   -22465.164    1670.7742   -24135.938   -938.46584    433.77243    39.460787    35.674664    26.417506 
   91800    236.35896   -448.91919       229892    -22507.72    1680.3307   -24188.051   -1207.5224    435.16651    39.462384    35.675087    26.434644 
   92000    236.79947   -320.48201       229892   -22495.507    1683.4624    -24178.97   -723.08748    434.82832    39.461639    35.675274    26.434605 
   92200    233.79168   -277.06678       229892   -22531.425    1662.0793   -24193.504   -526.64674    436.58868    39.462721    35.677445    26.430844 
   92400    237.34563   -381.61645       229892   -22532.379    1687.3451   -24219.724   -939.65647    438.71661    39.464886    35.677916    26.434129 
   92600    235.36721   -406.78812       229892    -22479.66    1673.2801    -24152.94   -1019.9345    439.32659     39.46498    35.676351    26.417318 
   92800    232.02076   -601.85111       229892   -22591.122    1649.4894   -24240.611   -1781.4953    440.60012    39.466005    35.677857    26.410092 
   93000    230.50666   -327.69275       229892   -22604.143    1638.7253   -24242.868   -698.00922    442.66177    39.465947    35.676568    26.405322 
   93200    237.43544   -381.03917       229892   -22594.767    1687.9836   -24282.751   -906.67479    444.35361    39.466194    35.675585    26.416233 
   93400    230.09238   -153.55627       229892   -22664.854    1635.7801   -24300.634    -34.84197    445.05781    39.465527    35.676517    26.441896 
   93600    236.94755   -398.17992       229892   -22617.105    1684.5151    -24301.62   -980.42465      446.514    39.463403    35.676068     26.45941 
   93800     227.5447   -491.54889       229892   -22675.885    1617.6681   -24293.553   -1389.6337    447.51158    39.462273    35.677885     26.47269 
   94000    234.92536   -271.90642       229892   -22652.228    1670.1389   -24322.367   -515.70321    447.61978    39.461796    35.678559    26.495325 
   94200     238.8077   -384.57448       229892   -22561.042    1697.7394   -24258.781   -923.34759    447.65511    39.459232    35.678994    26.519145 
   94400    234.13594    -180.1832       229892   -22602.975    1664.5267   -24267.502   -172.14246    446.78044    39.460695    35.677945    26.516396 
   94600    235.07041   -255.18751       229892   -22614.617    1671.1701   -24285.787   -471.92824    446.80061    39.461391    35.676337    26.539681 
   94800    235.75038   -220.85106       229892   -22583.986    1676.0041    -24259.99   -312.50559    447.72533    39.463586     35.67415    26.525205 
   95000    232.87593   -327.12122       229892    -22617.95     1655.569   -24273.519    -762.6422    447.44381    39.463084     35.67397    26.527496 
   95200    234.97386   -303.63577       229892   -22609.041    1670.4837   -24279.525   -641.18288    447.18019    39.462928    35.674065    26.518416 
   95400    236.88422     -379.376       229892   -22557.495    1684.0648    -24241.56   -923.29788    449.23529    39.463356    35.672478    26.517629 
   95600    230.17626   -198.96224       229892   -22553.098    1636.3764   -24189.474   -231.36865    449.83329    39.463454    35.670636    26.503758 
   95800    234.30562   -248.09639       229892   -22512.389     1665.733   -24178.122   -446.63168    452.02463    39.463327    35.671027    26.519938 
   96000    237.15498   -396.08635       229892   -22469.668    1685.9898   -24155.658   -1024.5583    452.73275    39.464637    35.669867    26.517622 
   96200     246.1525    -328.1237       229892   -22406.534    1749.9552    -24156.49   -722.82302    454.56125    39.466304    35.670318    26.499798 
   96400     241.2092   -393.58351       229892    -22495.92    1714.8122   -24210.732   -978.28732    456.51339    39.468074    35.670124    26.501234 
   96600    233.75026    -373.7139       229892     -22536.9    1661.7848   -24198.684   -923.79538    459.84492    39.467605    35.668258    26.509186 
   96800    231.46869   -311.93645       229892   -22499.162    1645.5646   -24144.727   -653.09617    461.99874    39.467501    35.667457    26.507053 
   97000    237.75752    -415.5093       229892   -22508.439    1690.2734   -24198.712   -1023.7194     461.6229    39.465649    35.667586    26.506774 
   97200    232.50842   -371.02419       229892   -22511.949    1652.9563   -24164.905   -878.29591    463.03785     39.46785     35.66606    26.497825 
   97400     236.7691    -394.3925       229892   -22486.308    1683.2465   -24169.554   -1045.2578    465.38412    39.467555    35.664005    26.482471 
   97600    237.14097   -320.33554       229892   -22479.638    1685.8902   -24165.529   -676.32199    467.11263     39.46714    35.665702    26.462092 
   97800    237.07999   -396.55078       229892   -22514.202    1685.4566   -24199.659   -1004.4051    469.93655    39.468637    35.667495    26.459319 
   98000    237.52864   -611.10729       229892   -22572.419    1688.6462   -24261.065   -1868.4009    468.63364    39.468325    35.668924     26.47975 
   98200     235.7408   -434.01655       229892   -22603.146     1675.936   -24279.082   -1158.1114    466.09763    39.469577     35.66651    26.494692 
   98400    228.61791   -333.30168       229892   -22513.498    1625.2977   -24138.796   -719.05492    467.14084    39.469444    35.662645     26.50408 
   98600    237.80486   -373.56891       229892    -22549.47    1690.6099    -24240.08     -903.294    469.36123    39.470934      35.6606    26.503157 
   98800    235.86905   -438.43839       229892   -22501.937    1676.8478   -24178.784    -1177.238    468.39544    39.471012    35.661531    26.509673 
   99000    230.46428   -391.37678       229892   -22561.071    1638.4241   -24199.495   -995.23413    467.48424      39.4705    35.661993    26.510537 
   99200    233.87311   -479.44632       229892   -22535.161    1662.6582    -24197.82   -1313.7568    468.16048    39.471979    35.663602     26.51401 
   99400    239.20567   -238.55825       229892   -22505.754    1700.5686   -24206.323   -363.51483    469.43297    39.472873    35.662401    26.513977 
   99600    234.48993   -192.16207       229892   -22502.896    1667.0433   -24169.939   -187.42919    471.28916    39.474857    35.660031      26.5094 
   99800     237.5919   -436.53612       229892   -22500.827     1689.096   -24189.923   -1155.0225    474.29923    39.475194    35.660292    26.505183 
  100000    234.85352   -514.62982       229892   -22527.043    1669.6282   -24196.671   -1477.5641    476.11511    39.474731    35.660022    26.526623 
  100200    236.06811   -347.86651       229892   -22554.726     1678.263   -24232.989   -789.23073    476.96891    39.474823    35.661532    26.515283 
  100400     234.3643    -220.2045       229892   -22466.634    1666.1502   -24132.784   -298.74409    477.20299    39.473025    35.661582    26.525206 
  100600    234.70628   -353.76007       229892   -22487.018    1668.5814   -24155.599   -762.15223    478.92566     39.47229     35.66248    26.522615 
  100800     240.7995   -298.44875       229892   -22543.396    1711.8995   -24255.296   -560.64177    480.87199    39.472728    35.661454    26.536878 
[...]
 3976000    220.80683   -274.13963       229892   -24681.946     1569.767   -26251.713   -570.29071    5904.8667    38.287598    34.931386    26.793511 
 3976200     220.4489   -112.13837       229892   -24677.279    1567.2224   -26244.501    74.847906    5903.7581    38.286389    34.931536     26.79259 
 3976400    218.04335   -230.27056       229892   -24707.679    1550.1208   -26257.799   -370.64129    5906.8924    38.285498    34.932305    26.795353 
 3976600    219.90441   -442.51511       229892   -24703.117    1563.3514   -26266.468    -1232.644    5905.5262    38.285625     34.93223    26.798756 
 3976800    227.33751   -257.87621       229892   -24624.567    1616.1951   -26240.762   -438.90753    5905.6042    38.285402    34.931798    26.794271 
 3977000    217.41207   -293.07778       229892   -24741.029    1545.6328   -26286.661   -639.78816    5905.3977    38.285503    34.931844    26.783997 
 3977200    229.06328   -300.01677       229892   -24641.982     1628.464   -26270.446   -662.17868    5904.7746    38.286067    34.931915    26.791585 
 3977400    220.96082   -281.18773       229892   -24660.649    1570.8617    -26231.51   -597.16561    5906.5108     38.28535     34.93158    26.804502 
 3977600    222.88873   -120.52706       229892   -24691.859    1584.5677   -26276.427    12.770533    5904.2098    38.284574    34.930921    26.799293 
 3977800    224.27092   -254.13433       229892   -24653.116     1594.394    -26247.51   -484.20955    5905.4397    38.283499    34.929818    26.787461 
 3978000    227.35441   -259.95511       229892   -24695.187    1616.3152   -26311.502   -512.14973    5906.4535    38.283017    34.930047    26.791108 
 3978200    223.80659   -213.79498       229892   -24631.283     1591.093   -26222.376   -288.65599    5905.9994    38.283082    34.929745     26.79289 
 3978400    217.33677   -206.40474       229892   -24682.002    1545.0975     -26227.1   -289.95536    5906.5374    38.282878    34.930302    26.800721 
 3978600    222.25174   -230.56188       229892   -24681.145    1580.0392   -26261.184   -407.18379    5906.3463    38.283312     34.92931     26.79898 
 3978800    226.93963   -236.71791       229892    -24641.82    1613.3664   -26255.187   -423.45667    5904.7349    38.284002     34.93007     26.79502 
 3979000    220.99509   -199.32801       229892   -24661.848    1571.1053   -26232.954   -257.88365    5906.7695    38.284407    34.930615    26.798131 
 3979200    223.20878   -198.10506       229892   -24686.471     1586.843   -26273.314   -250.86882    5905.7515    38.284427    34.931397    26.796128 
 3979400    224.35532   -214.12393       229892   -24662.354     1594.994   -26257.348   -277.22402    5906.0889    38.284081     34.93073    26.803047 
 3979600    223.04495   -251.36413       229892    -24669.51    1585.6783   -26255.188    -440.7499    5904.5338    38.283601    34.931632      26.8024 
 3979800    225.30374    -354.6875       229892   -24663.416    1601.7365   -26265.153    -891.2193    5905.0881    38.284035    34.932051    26.806785 
 3980000    226.02778   -186.59596       229892   -24643.397    1606.8839   -26250.281   -225.34785    5905.8258    38.283743    34.933134    26.805545 
 3980200    224.40248   -241.78847       229892   -24640.753    1595.3293   -26236.082    -411.4965    5905.0935    38.282958    34.933894    26.795433 
 3980400    221.59567   -380.34324       229892   -24648.455     1575.375    -26223.83   -967.45199    5905.2999    38.282857    34.934384    26.796594 
 3980600     226.9386    -285.2514       229892   -24610.075    1613.3592   -26223.434   -630.55652    5905.2862    38.281787    34.933942    26.783564 
 3980800    225.37893   -349.35566       229892   -24625.899    1602.2711    -26228.17   -846.34528    5905.0189    38.281727    34.934323    26.783513 
 3981000    222.77108   -459.32649       229892   -24640.323    1583.7313   -26224.054    -1271.821     5906.428     38.28104    34.934186    26.779104 
 3981200    227.98818   -215.97273       229892   -24627.022    1620.8209   -26247.843   -315.23171    5905.7932    38.280831    34.934498     26.77685 
 3981400    228.78055   -167.54204       229892   -24630.268     1626.454   -26256.722   -130.33664    5904.8697    38.280617    34.934689    26.771205 
 3981600    222.01523   -467.47445       229892   -24682.153    1578.3578    -26260.51   -1293.4918    5906.3783    38.280689     34.93497     26.77853 
 3981800    224.74688   -189.99647       229892   -24656.718    1597.7777   -26254.495   -154.03862    5906.5718    38.280435    34.934256    26.774658 
 3982000     224.6131   -242.71009       229892   -24687.555    1596.8266   -26284.381   -440.86331    5906.1577    38.280211    34.933864    26.780916 
 3982200    225.12461   -276.59273       229892   -24706.543    1600.4631   -26307.006   -525.53588    5905.3406    38.278794      34.9337    26.787351 
 3982400    231.39082   -280.76892       229892   -24637.435     1645.011   -26282.446   -566.52869    5904.4044    38.276542    34.933615    26.781641 
 3982600     223.8976   -270.44674       229892   -24663.016    1591.7399   -26254.756   -539.99297    5903.5818    38.276422     34.93228    26.779691 
 3982800    226.93033   -371.16841       229892   -24612.497    1613.3004   -26225.797   -940.99499    5906.1761    38.276686    34.933285    26.786236 
 3983000    231.56078   -315.12732       229892   -24611.138    1646.2193   -26257.357   -689.02311    5905.5306    38.276273    34.933534    26.783322 
 3983200    229.84958   -240.55199       229892   -24638.344     1634.054   -26272.398    -449.5083    5905.0213    38.276501    34.934107     26.79568 
 3983400    228.63268   -312.47914       229892   -24585.996    1625.4028   -26211.399   -714.60161    5904.6433    38.276547    34.935212    26.791553 
 3983600      229.178   -321.58471       229892    -24648.21    1629.2796   -26277.489   -749.13403    5904.7398    38.276404    34.935202    26.785494 
 3983800    231.25692   -207.84674       229892   -24633.094    1644.0591   -26277.153   -285.52891    5903.9855    38.275706    34.935261    26.783085 
 3984000    223.65326   -251.28902       229892   -24668.844    1590.0029   -26258.847   -496.19978    5903.9663    38.275469    34.935766    26.781345 
 3984200    224.08616   -267.40019       229892   -24644.416    1593.0805   -26237.497   -536.26279     5903.637    38.274837    34.935559    26.784484 
 3984400    226.93716   -314.21847       229892   -24663.003    1613.3489   -26276.352    -695.5043    5905.2888    38.275167    34.936578    26.782618 
 3984600    223.25284   -304.31454       229892   -24669.693    1587.1562    -26256.85   -693.69516    5906.1041    38.274851    34.937464    26.785547 
 3984800    221.10989   -342.03783       229892   -24642.016    1571.9215   -26213.937   -803.41434    5905.3402    38.275131    34.937427    26.784065 
 3985000     225.6285   -257.00713       229892   -24669.612    1604.0453   -26273.657   -452.04396    5904.4932    38.275098    34.937419    26.779686 
 3985200      228.775   -254.66779       229892   -24634.543    1626.4145   -26260.958   -449.86746    5904.5449    38.273979    34.938307    26.783978 
 3985400    222.58403   -308.10466       229892   -24646.436    1582.4015   -26228.838   -674.26292    5905.6702     38.27378    34.937915    26.785045 
 3985600    222.84728   -254.59052       229892    -24622.35     1584.273   -26206.623   -475.82767    5905.6857    38.274314    34.937048    26.790602 
 3985800    227.47064   -364.66649       229892    -24643.01    1617.1415   -26260.152   -917.20608     5905.138    38.274204    34.936754    26.791489 
 3986000    227.65355   -334.18561       229892   -24548.997    1618.4419   -26167.439   -788.00202    5905.8963    38.274903    34.936146    26.787235 
 3986200     227.9529   -216.74331       229892   -24573.177      1620.57   -26193.747   -343.09024     5905.521    38.274805    34.935703    26.784656 
 3986400    219.31901   -340.63491       229892   -24695.584    1559.1897   -26254.774   -829.27406    5906.0234    38.274818    34.935805    26.780017 
 3986600      220.667   -417.90576       229892   -24671.967    1568.7729    -26240.74   -1124.0453    5906.9496    38.274901     34.93648    26.780801 
 3986800    220.82252   -329.64399       229892   -24657.556    1569.8785   -26227.435   -791.81993    5907.1253     38.27545    34.936198    26.777386 
 3987000    227.30587   -223.64418       229892   -24636.533    1615.9702   -26252.503   -347.57033    5905.3575    38.276348    34.935319    26.774395 
 3987200    215.35237   -248.62944       229892   -24744.406      1530.99   -26275.396   -489.92164     5904.357    38.276458    34.934446    26.774721 
 3987400    220.12365   -368.51404       229892   -24672.137    1564.9101   -26237.047   -984.34917    5906.5064    38.276457    34.934482    26.771126 
 3987600    226.32306   -252.24973       229892   -24613.338    1608.9831   -26222.321   -495.66068    5905.3388    38.276705    34.934526    26.779015 
 3987800    227.93404   -327.14683       229892    -24659.37     1620.436   -26279.806   -747.86732    5904.1277    38.277295    34.934072    26.782191 
 3988000    226.41289   -327.65277       229892   -24613.345    1609.6218   -26222.966   -782.16379    5906.8891    38.276836     34.93416    26.781267 
 3988200    222.47443   -337.57327       229892   -24618.124    1581.6224   -26199.746    -822.6164    5906.9934    38.277782    34.933713    26.778286 
 3988400    222.90448    -237.3836       229892   -24623.789    1584.6796   -26208.469   -400.68374    5904.6243    38.276962    34.933986    26.784659 
 3988600    220.25088   -364.27519       229892   -24662.165    1565.8146    -26227.98   -931.41315    5906.6632    38.276078    34.934202    26.792234 
 3988800    227.97359   -413.41081       229892   -24652.001    1620.7171   -26272.718   -1109.9888    5906.7359    38.276553    34.934255    26.794588 
 3989000    231.34859   -327.84111       229892   -24592.288    1644.7108   -26236.998   -746.73436    5905.3527    38.276001     34.93488    26.785412 
 3989200    225.04782   -382.69022       229892   -24653.546    1599.9172   -26253.464   -986.03282    5906.0918     38.27644    34.935676    26.786661 
 3989400    225.06164   -244.54677       229892   -24666.507    1600.0154   -26266.523   -434.71502    5907.6039    38.276934    34.935677    26.783304 
 3989600    226.67081   -204.97935       229892   -24579.149    1611.4554   -26190.604   -303.39234    5905.2361    38.276624     34.93593    26.778734 
 3989800    227.94001   -345.49278       229892   -24623.305    1620.4784   -26243.783   -883.12946    5906.6944    38.276781    34.936131     26.78318 
 3990000    229.78765   -300.51605       229892   -24654.322    1633.6137   -26287.936   -683.89332    5906.6951    38.275987    34.936402    26.780744 
 3990200    223.67085   -155.19387       229892   -24684.081    1590.1279   -26274.209   -74.918065     5904.565    38.275285    34.935871    26.783357 
 3990400    229.49838   -303.94676       229892   -24636.929    1631.5572   -26268.486   -675.55406    5906.1343    38.274723    34.936616    26.780372 
 3990600    225.52428   -393.87923       229892   -24671.547    1603.3044   -26274.852   -1038.4473    5906.1323    38.274942    34.936053    26.771872 
 3990800    225.33854   -325.82597       229892   -24618.205     1601.984   -26220.189   -801.19426    5905.8893     38.27412    34.936545    26.776806 
 3991000     225.7352   -267.68281       229892   -24626.668    1604.8039   -26231.472   -553.87143    5905.6594    38.275236     34.93525    26.776849 
 3991200    227.54948   -290.80492       229892   -24586.497     1617.702   -26204.199   -644.15282    5906.8004     38.27461     34.93517    26.778219 
 3991400    231.38354   -399.69737       229892   -24581.277    1644.9593   -26226.236   -1022.7493    5906.5059    38.275508    34.935346    26.771506 
 3991600     226.8986   -251.58317       229892   -24644.405    1613.0748    -26257.48   -471.02252    5905.8216    38.274932    34.935644    26.771861 
 3991800    217.01144    -307.4027       229892   -24711.018    1542.7847   -26253.803   -691.15565    5906.7922    38.275346    34.936578    26.774799 
 3992000    225.09001   -291.46309       229892    -24643.24    1600.2171   -26243.457   -634.63366    5906.5595    38.274641    34.936276    26.766714 
 3992200    219.61102   -307.19678       229892   -24644.893    1561.2656   -26206.159   -725.66742    5903.9792    38.275648     34.93635    26.766193 
 3992400    228.01773   -377.64339       229892   -24658.779    1621.0309    -26279.81   -930.74754    5906.7854    38.275943    34.936991    26.760892 
 3992600    219.50447   -418.70559       229892    -24646.29    1560.5082   -26206.798   -1158.2013    5906.5407    38.277105    34.936343    26.761497 
 3992800    227.82252   -219.02153       229892   -24657.482    1619.6432   -26277.125   -345.10807    5906.1285    38.276535    34.936398    26.762941 
 3993000    215.49126   -277.98037       229892   -24754.009    1531.9774   -26285.986   -588.31931     5906.162    38.276608    34.934976    26.772633 
 3993200    222.57475    -205.2378       229892   -24631.295    1582.3355    -26213.63   -277.41008    5904.6585    38.276728    34.934272    26.771704 
 3993400    226.31653   -223.79648       229892   -24611.707    1608.9367   -26220.644   -334.04212    5904.9924    38.276272    34.933188    26.764246 
 3993600    228.73811   -288.21895       229892   -24631.459    1626.1523   -26257.611   -607.99748    5905.3431    38.276596    34.933827    26.762608 
 3993800    228.27889   -277.05833       229892   -24620.867    1622.8876   -26243.754   -575.20549    5906.8915    38.276802     34.93453    26.770398 
 3994000    226.75897   -279.17807       229892   -24643.574    1612.0821   -26255.656   -544.43119    5905.0247    38.276161    34.934647    26.773058 
 3994200    227.22366   -374.82138       229892    -24685.33    1615.3857   -26300.716   -963.95187     5906.948    38.276467    34.935254     26.76758 
 3994400    223.99991   -299.67751       229892   -24640.916    1592.4673   -26233.384   -674.42648    5906.3289    38.276951    34.935363    26.758772 
 3994600    217.47187   -254.67313       229892   -24700.888     1546.058   -26246.946   -483.48285    5905.7151    38.276978    34.935624    26.762052 
 3994800    229.11588   -368.67913       229892   -24640.775    1628.8379   -26269.613   -913.34537    5907.7383     38.27764    34.935883    26.752399 
 3995000    228.41523   -373.94623       229892   -24601.759    1623.8568   -26225.616   -923.26644    5907.2169    38.277965    34.935113    26.750189 
 3995200    217.75131   -215.41384       229892    -24691.81    1548.0446   -26239.855   -347.68236    5906.4216    38.278416    34.935006    26.752883 
 3995400     228.7161   -325.32042       229892   -24615.273    1625.9958   -26241.269   -763.43229    5905.8348    38.278169    34.934298    26.751489 
 3995600    224.65293   -326.20358       229892   -24569.007    1597.1098   -26166.116   -762.60973    5908.4605     38.27764    34.932999    26.749299 
 3995800    228.11464   -187.15163       229892   -24581.254    1621.7199   -26202.974   -239.44487    5907.4085    38.277828    34.932771    26.754741 
 3996000    234.46473   -233.35411       229892   -24516.146    1666.8642    -26183.01   -393.71638    5906.1374     38.27713    34.932308    26.762952 
 3996200    228.29373   -224.06897       229892   -24585.732    1622.9931   -26208.726    -361.9416    5905.5723    38.276581    34.930141    26.761603 
 3996400    225.38706   -220.73748       229892   -24665.656    1602.3289   -26267.985   -348.97747    5905.8036    38.276312    34.929431    26.759828 
 3996600       223.04   -223.87032       229892   -24632.927    1585.6431   -26218.571   -371.44405    5906.3929    38.275869    34.929447    26.747291 
 3996800    223.13584   -310.76198       229892   -24687.525    1586.3244    -26273.85   -695.36957    5906.1955    38.274855    34.928864    26.742935 
 3997000    234.08209   -265.14088       229892   -24556.922    1664.1439   -26221.066   -546.08859    5905.7658    38.274154    34.928599    26.745546 
 3997200    228.98951   -243.87572       229892   -24626.153    1627.9396   -26254.092   -426.52139    5905.3739    38.273814    34.928214    26.749819 
 3997400    223.43913   -285.94578       229892   -24681.227    1588.4806   -26269.708   -631.63943    5906.0932    38.273841    34.927036    26.753945 
 3997600    223.46175   -314.09698       229892   -24640.604    1588.6414   -26229.246    -732.0398    5906.6691    38.274038    34.926152    26.750487 
 3997800    211.63246   -277.00731       229892   -24745.152    1504.5442   -26249.696   -563.06804    5907.2965    38.274202    34.924962    26.756843 
 3998000    225.56276   -264.62284       229892   -24658.643     1603.578   -26262.221   -508.99584    5906.3617    38.274617    34.925237    26.747936 
 3998200    226.06403   -269.93009       229892   -24677.471    1607.1416   -26284.613   -545.30882    5905.7655    38.274474    34.924778    26.747077 
 3998400    230.52017   -222.98071       229892    -24571.82    1638.8213   -26210.641   -363.48313    5904.7533    38.273567      34.9243    26.750453 
 3998600    219.87131   -311.05748       229892   -24680.937    1563.1162   -26244.053   -673.31077    5906.0454    38.272621    34.923659    26.738892 
 3998800    230.68444   -260.68964       229892     -24637.5    1639.9892    -26277.49   -534.73534    5905.6989    38.272799     34.92373    26.742354 
 3999000    230.86041    -275.3034       229892   -24590.008    1641.2402   -26231.249    -587.2204    5906.0174    38.274072     34.92289    26.746104 
 3999200    223.76867   -264.76934       229892   -24651.668    1590.8234   -26242.491   -498.97331    5905.5514    38.273847     34.92151    26.743849 
 3999400    218.73387     -357.706       229892   -24686.649    1555.0298   -26241.679   -872.97697    5906.7964    38.273702    34.920567    26.740464 
 3999600    221.93792   -369.54163       229892   -24693.252    1577.8082    -26271.06   -959.94604    5906.6712     38.27333    34.921129    26.750471 
 3999800    224.83078   -254.22798       229892   -24617.721    1598.3741   -26216.095   -441.92189      5906.22    38.272296    34.920774    26.753943 
 4000000    229.83978   -306.65754       229892   -24583.035    1633.9843   -26217.019   -669.54984    5905.4912    38.272983    34.920071     26.75226 
Loop time of 7364.72 on 64 procs for 4000000 steps with 9010 atoms

Performance: 469.264 ns/day, 0.051 hours/ns, 543.130 timesteps/s
99.1% CPU use with 64 MPI tasks x no OpenMP threads

MPI task timing breakdown:
Section |  min time  |  avg time  |  max time  |%varavg| %total
---------------------------------------------------------------
Pair    | 0.54041    | 1862.4     | 5447.8     |4708.6 | 25.29
Neigh   | 1.083      | 218.4      | 785.25     |1823.4 |  2.97
Comm    | 360.71     | 2905.1     | 5526.4     |3122.3 | 39.45
Output  | 195.87     | 196.15     | 196.59     |   1.2 |  2.66
Modify  | 204.99     | 2061.7     | 6736.1     |4906.9 | 27.99
Other   |            | 121        |            |       |  1.64

Nlocal:        140.781 ave         426 max           0 min
Histogram: 24 4 20 0 0 0 0 0 0 16
Nghost:        811.516 ave        1182 max          43 min
Histogram: 8 0 0 7 1 0 4 20 0 24
Neighs:         0.00000 ave           0 max           0 min
Histogram: 64 0 0 0 0 0 0 0 0 0
FullNghs:      13876.2 ave       51991 max           0 min
Histogram: 38 10 0 0 0 0 0 0 4 12

Total # of neighbors = 888080
Ave neighs/atom = 98.566038
Neighbor list builds = 433103
Dangerous builds = 0
write_data 		${DIR}/data.${NAME}_run
write_data 		run_10/data.${NAME}_run
write_data 		run_10/data.ibeam_cooling_10_run
System init for write_data ...
Total wall time: 2:03:03
