
### Dimensions ###


### IMPORT ATOMS ###
read_data ../Box_Setup/data.Ibeam_235K
Reading data file ...
  orthogonal box = (0.0000000 0.0000000 0.0000000) to (78.752000 72.975319 40.002420)
  4 by 4 by 4 MPI processor grid
  reading atoms ...
  9010 atoms
  reading velocities ...
  9010 velocities
  read_data CPU = 0.023 seconds
group water type 2
2386 atoms in group water
group graphite type 1
6624 atoms in group graphite


# Define potential
#
pair_style          sw
pair_coeff * * MLC_e.sw C mW

# Add velocity/set timestep
#

fix		1 graphite setforce 0.0 0.0 0.0
velocity 	graphite set 0.0 0.0 0.0
velocity            water create ${START_TEMP} ${SEED} rot yes dist gaussian
velocity            water create 235 ${SEED} rot yes dist gaussian
velocity            water create 235 16327 rot yes dist gaussian
timestep            5.0

# Define output
#
compute 1 water msd
compute 2 water temp


thermo	            100
thermo_style custom step c_2 press vol etotal ke pe c_1[4] density

# Neighbor lists
#
neigh_modify        delay 0 every 1 check yes


# Set fixes
#
fix                 2 water momentum 10 linear 1 1 1 rescale
fix                 3 all nve
fix                 4 water temp/csvr ${START_TEMP} ${START_TEMP} 500.0 928347
fix                 4 water temp/csvr 235 ${START_TEMP} 500.0 928347
fix                 4 water temp/csvr 235 235 500.0 928347

# Run 0.05 ns equilibration
#
dump                1 all custom 100 ${DIR}/eq.${NAME}.dump id type x y z vx vy vz
dump                1 all custom 100 run_10/eq.${NAME}.dump id type x y z vx vy vz
dump                1 all custom 100 run_10/eq.ibeam_cooling_10.dump id type x y z vx vy vz
run                 10000
Neighbor list info ...
  update every 1 steps, delay 0 steps, check yes
  max neighbors/atom: 2000, page size: 100000
  master list distance cutoff = 6.6747184
  ghost atom cutoff = 6.6747184
  binsize = 3.3373592, bins = 24 22 12
  1 neighbor lists, perpetual/occasional/extra = 1 0 0
  (1) pair sw, perpetual
      attributes: full, newton on
      pair build: full/bin/atomonly
      stencil: full/bin/3d
      bin: standard
Per MPI rank memory allocation (min/avg/max) = 3.602 | 4.441 | 4.793 Mbytes
Step c_2 Press Volume TotEng KinEng PotEng c_1[4] Density 
       0          235   -397.42353       229892   -22660.138    1670.6695   -24330.807            0   0.88510766 
     100    234.39687   -381.54696       229892   -22661.723    1666.3817   -24328.104   0.80587159   0.88510766 
     200    235.44216   -366.81142       229892   -22687.634    1673.8129   -24361.447    1.1981997   0.88510766 
     300    230.97397   -401.87492       229892   -22671.812    1642.0475    -24313.86    1.5023972   0.88510766 
     400    236.79345   -407.66285       229892     -22665.8    1683.4195    -24349.22    1.9062818   0.88510766 
     500    235.83593   -272.82115       229892   -22644.924    1676.6123   -24321.536    2.1873003   0.88510766 
     600    234.04915    -323.4863       229892   -22582.945    1663.9097   -24246.855    2.5113116   0.88510766 
     700     236.2152   -207.14825       229892   -22596.722    1679.3087    -24276.03    2.8658605   0.88510766 
     800    239.35138   -323.84986       229892   -22587.404    1701.6045   -24289.008    3.1066155   0.88510766 
     900    241.94183   -327.50592       229892   -22610.996    1720.0206   -24331.017    3.3527942   0.88510766 
    1000    238.06944   -344.78106       229892   -22630.099    1692.4909    -24322.59    3.6828801   0.88510766 
    1100    237.94146   -205.72212       229892   -22604.517    1691.5811   -24296.098    4.0430262   0.88510766 
    1200    238.55491   -338.79702       229892   -22620.865    1695.9422   -24316.808    4.3860401   0.88510766 
    1300     237.5091   -342.60508       229892   -22569.938    1688.5073   -24258.446    4.8274452   0.88510766 
    1400    239.38226   -356.04229       229892   -22608.795     1701.824   -24310.619    5.3009311   0.88510766 
    1500    235.38356   -387.00702       229892   -22640.682    1673.3963   -24314.078    5.7565296   0.88510766 
    1600    236.69856   -334.76492       229892   -22614.669    1682.7449   -24297.414    6.3463945   0.88510766 
    1700    237.63836   -388.26027       229892   -22619.716    1689.4262   -24309.142    6.6194838   0.88510766 
    1800    238.91383   -354.33484       229892   -22578.132    1698.4938   -24276.626    6.9899223   0.88510766 
    1900    241.04394   -337.28756       229892   -22552.665    1713.6373   -24266.302    7.4073853   0.88510766 
    2000     238.8227   -363.18141       229892   -22515.672     1697.846   -24213.518    7.7003454   0.88510766 
    2100    237.13985   -513.47902       229892   -22625.442    1685.8822   -24311.325    8.0670632   0.88510766 
    2200    236.93727   -533.52029       229892     -22593.1     1684.442   -24277.542    8.2801599   0.88510766 
    2300     235.4917   -395.65896       229892   -22568.539    1674.1651   -24242.704    8.3255711   0.88510766 
    2400    237.83135   -201.80309       229892   -22580.381    1690.7982   -24271.179    8.5976911   0.88510766 
    2500    235.64417   -432.44089       229892   -22611.734     1675.249   -24286.983    8.8730974   0.88510766 
    2600    232.65268   -218.28313       229892   -22627.268    1653.9819    -24281.25    9.2842222   0.88510766 
    2700    237.92625   -408.42055       229892   -22621.491    1691.4729   -24312.964    9.4755808   0.88510766 
    2800    242.82471   -337.34241       229892   -22589.207    1726.2972   -24315.504    9.9249911   0.88510766 
    2900    240.70693   -372.93752       229892   -22586.736    1711.2414   -24297.978    10.418457   0.88510766 
    3000    237.46474   -258.74223       229892   -22568.189    1688.1919   -24256.381    10.707768   0.88510766 
    3100    237.16079   -426.01534       229892   -22552.492    1686.0311   -24238.523    10.783089   0.88510766 
    3200    234.09173   -471.05362       229892   -22605.577    1664.2124    -24269.79    11.214048   0.88510766 
    3300    228.25211   -266.17862       229892   -22683.363    1622.6972    -24306.06    11.407909   0.88510766 
    3400    234.89834   -172.60977       229892    -22627.64    1669.9468   -24297.586    11.696163   0.88510766 
    3500     231.1607   -308.57096       229892   -22625.016     1643.375   -24268.391    12.245264   0.88510766 
    3600    236.44845   -385.94872       229892   -22606.339    1680.9669   -24287.306    12.628874   0.88510766 
    3700    243.75588   -370.40686       229892   -22584.162    1732.9171    -24317.08    12.980414   0.88510766 
    3800    234.85505   -334.09564       229892   -22573.527     1669.639   -24243.166    13.119358   0.88510766 
    3900     233.7703   -349.74215       229892   -22573.818    1661.9273   -24235.745    13.354103   0.88510766 
    4000    239.58929   -384.91391       229892    -22617.88    1703.2958   -24321.176    13.638042   0.88510766 
    4100    231.76637   -357.51454       229892   -22595.359    1647.6809    -24243.04    13.719953   0.88510766 
    4200    241.00628    -368.7995       229892   -22583.731    1713.3696   -24297.101    13.972094   0.88510766 
    4300    225.84389   -367.78494       229892   -22632.488    1605.5766   -24238.064    14.408564   0.88510766 
    4400     229.7293   -422.81358       229892   -22577.213    1633.1989   -24210.412      14.7151   0.88510766 
    4500    237.04524   -313.36961       229892   -22599.137    1685.2096   -24284.347    14.907036   0.88510766 
    4600    230.42497   -259.98244       229892   -22652.725    1638.1446    -24290.87    15.079537   0.88510766 
    4700    232.52312   -422.49659       229892   -22591.448    1653.0608   -24244.509    15.392624   0.88510766 
    4800     239.7731   -439.20267       229892   -22565.013    1704.6026   -24269.616    15.628121   0.88510766 
    4900    242.28014   -292.23591       229892   -22515.089    1722.4257   -24237.515    15.987144   0.88510766 
    5000    240.08781   -255.00083       229892   -22565.119    1706.8399   -24271.959    16.467231   0.88510766 
    5100    239.72235   -268.63711       229892    -22530.94    1704.2418   -24235.181    17.000392   0.88510766 
    5200    239.63444   -416.42761       229892   -22586.849    1703.6168   -24290.465    17.477008   0.88510766 
    5300    230.92166   -500.45808       229892   -22651.964    1641.6756    -24293.64      17.8431   0.88510766 
    5400    232.98995   -378.84727       229892   -22636.954    1656.3796   -24293.333    18.163219   0.88510766 
    5500    235.25534   -350.18837       229892   -22625.881    1672.4848   -24298.365    18.335973   0.88510766 
    5600    236.40567   -256.65695       229892   -22643.446    1680.6628   -24324.109    18.695753   0.88510766 
    5700    233.82416   -357.16055       229892   -22621.491    1662.3102   -24283.801     19.15893   0.88510766 
    5800    231.42696   -254.53867       229892   -22596.051    1645.2679   -24241.319    19.439689   0.88510766 
    5900    232.16737   -310.19019       229892   -22612.837    1650.5317   -24263.369    19.602739   0.88510766 
    6000    233.12495   -222.00632       229892   -22652.741    1657.3393    -24310.08    19.949321   0.88510766 
    6100    228.90879   -462.69517       229892   -22662.849    1627.3657   -24290.215     20.31071   0.88510766 
    6200    228.92206   -323.87581       229892   -22669.168      1627.46   -24296.628    20.637584   0.88510766 
    6300    237.00028     -409.492       229892   -22600.714      1684.89   -24285.604    20.890378   0.88510766 
    6400    234.60235   -539.08588       229892   -22647.466    1667.8425   -24315.309    21.246267   0.88510766 
    6500     233.1435    -395.2391       229892   -22670.264    1657.4712   -24327.735    21.508552   0.88510766 
    6600    232.69852   -217.54951       229892   -22690.234    1654.3078   -24344.542    21.583036   0.88510766 
    6700    227.39349   -340.71818       229892   -22707.536    1616.5931   -24324.129    22.027658   0.88510766 
    6800    237.18818   -353.57475       229892   -22689.139    1686.2258   -24375.365    22.417644   0.88510766 
    6900    231.98114   -370.01464       229892    -22647.89    1649.2078   -24297.098    22.848137   0.88510766 
    7000    237.77473   -365.27751       229892   -22657.221    1690.3957   -24347.617    23.150147   0.88510766 
    7100    235.60281   -314.58806       229892   -22669.671     1674.955   -24344.626    23.459532   0.88510766 
    7200     230.3649    -296.7222       229892    -22726.96    1637.7175   -24364.678    23.875236   0.88510766 
    7300    226.15427   -419.40193       229892   -22746.162    1607.7831   -24353.945    23.860955   0.88510766 
    7400    238.32057   -163.93644       229892     -22708.1    1694.2762   -24402.377    24.243719   0.88510766 
    7500    232.95556   -266.99107       229892   -22684.128    1656.1351   -24340.263    24.597356   0.88510766 
    7600    237.52954   -399.88652       229892   -22636.333    1688.6526   -24324.985    24.987747   0.88510766 
    7700    236.11682   -573.21889       229892   -22640.215    1678.6092   -24318.825    25.064621   0.88510766 
    7800    234.07662   -231.16532       229892   -22711.393     1664.105   -24375.498    25.182679   0.88510766 
    7900    232.52885   -220.81046       229892   -22685.037    1653.1015   -24338.138    25.213725   0.88510766 
    8000    238.56498   -459.98155       229892    -22618.31    1696.0138   -24314.324    25.675378   0.88510766 
    8100     240.2531   -221.92731       229892   -22600.805     1708.015    -24308.82    25.968561   0.88510766 
    8200    240.51039   -401.53038       229892   -22626.153    1709.8441   -24335.997    26.008785   0.88510766 
    8300    240.73742   -344.12348       229892   -22597.832    1711.4581    -24309.29    26.364824   0.88510766 
    8400    235.27246   -416.16199       229892   -22605.686    1672.6065   -24278.292    26.687484   0.88510766 
    8500    235.57368   -257.61634       229892   -22650.498    1674.7479   -24325.246    27.237532   0.88510766 
    8600    234.81904   -439.57457       229892   -22662.034     1669.383   -24331.417    27.675159   0.88510766 
    8700    230.90562   -120.80455       229892   -22697.858    1641.5617    -24339.42    27.862715   0.88510766 
    8800     236.8585   -378.29391       229892    -22708.34     1683.882   -24392.222     28.27805   0.88510766 
    8900    229.74398   -428.90916       229892   -22739.245    1633.3033   -24372.549     28.34049   0.88510766 
    9000    232.56825   -224.11044       229892   -22689.182    1653.3817   -24342.564    28.267555   0.88510766 
    9100    229.76511   -265.46459       229892   -22687.913    1633.4534   -24321.366    28.342176   0.88510766 
    9200    235.50609   -447.66296       229892    -22632.42    1674.2675   -24306.688    28.535257   0.88510766 
    9300    236.08246    -319.2679       229892   -22695.916     1678.365   -24374.281    28.915451   0.88510766 
    9400    237.40654   -443.54402       229892   -22653.126    1687.7781   -24340.904    29.145071   0.88510766 
    9500    234.68301   -238.03645       229892   -22703.512    1668.4159   -24371.928    29.451288   0.88510766 
    9600    232.78546   -400.50081       229892   -22702.542    1654.9258   -24357.468    29.681371   0.88510766 
    9700    230.77578   -341.49857       229892   -22664.921    1640.6385   -24305.559    29.934662   0.88510766 
    9800    238.74279   -375.89693       229892    -22612.04    1697.2779   -24309.318    30.153089   0.88510766 
    9900    233.81725   -492.42124       229892   -22634.334     1662.261   -24296.595    30.460073   0.88510766 
   10000    234.62751   -300.67129       229892   -22637.861    1668.0214   -24305.883    30.631965   0.88510766 
Loop time of 18.0531 on 64 procs for 10000 steps with 9010 atoms

Performance: 239.294 ns/day, 0.100 hours/ns, 553.922 timesteps/s
99.1% CPU use with 64 MPI tasks x no OpenMP threads

MPI task timing breakdown:
Section |  min time  |  avg time  |  max time  |%varavg| %total
---------------------------------------------------------------
Pair    | 0.0013056  | 4.8398     | 14.168     | 242.1 | 26.81
Neigh   | 0.0012755  | 0.28995    | 1.0471     |  66.1 |  1.61
Comm    | 0.693      | 7.1462     | 14.078     | 174.5 | 39.58
Output  | 0.20012    | 0.20134    | 0.2033     |   0.2 |  1.12
Modify  | 0.52203    | 5.271      | 16.979     | 258.0 | 29.20
Other   |            | 0.3047     |            |       |  1.69

Nlocal:        140.781 ave         426 max           0 min
Histogram: 24 4 20 0 0 0 0 0 0 16
Nghost:        811.922 ave        1182 max          37 min
Histogram: 8 0 0 8 0 0 0 24 0 24
Neighs:         0.00000 ave           0 max           0 min
Histogram: 64 0 0 0 0 0 0 0 0 0
FullNghs:      13997.4 ave       52171 max           0 min
Histogram: 32 16 0 0 0 0 0 0 3 13

Total # of neighbors = 895834
Ave neighs/atom = 99.426637
Neighbor list builds = 572
Dangerous builds = 0
write_data 	    ${DIR}/data.${NAME}_eq
write_data 	    run_10/data.${NAME}_eq
write_data 	    run_10/data.ibeam_cooling_10_eq
System init for write_data ...

undump              1
unfix               4



################################################
#######         Run Simulation         #########
################################################

reset_timestep      0
timestep	    10.0
log                 ${DIR}/log.run_${NAME}
log                 run_10/log.run_${NAME}
log                 run_10/log.run_ibeam_cooling_10
