

### IMPORT ATOMS ###
read_data ../Box_Setup/data.Ibeam_240K
  orthogonal box = (0 0 0) to (157.504 42.9242 26.8557)
  16 by 4 by 2 MPI processor grid
  reading atoms ...
  9253 atoms
  reading velocities ...
  9253 velocities
group water type 2
1381 atoms in group water
group graphite type 1
7872 atoms in group graphite


# Define potential
#
pair_style          sw
pair_coeff * * MLC_e.sw C mW

# Add velocity/set timestep
#

fix		1 graphite setforce 0.0 0.0 0.0
velocity 	graphite set 0.0 0.0 0.0
velocity            water create ${START_TEMP} ${SEED} rot yes dist gaussian
velocity            water create 240 ${SEED} rot yes dist gaussian
velocity            water create 240 21168 rot yes dist gaussian
timestep            5.0

# Define output
#
compute 1 water msd
compute 2 water temp


thermo	            100
thermo_style custom step c_2 press vol etotal ke pe c_1[4] density

# Neighbor lists
#
neigh_modify        delay 0 every 1 check yes


# Set fixes
#
fix                 2 water momentum 10 linear 1 1 1 rescale
fix                 3 all nve
fix                 4 water temp/csvr ${START_TEMP} ${START_TEMP} 500.0 928347
fix                 4 water temp/csvr 240 ${START_TEMP} 500.0 928347
fix                 4 water temp/csvr 240 240 500.0 928347

# Run 0.05 ns equilibration
#
dump                1 all custom 100 ${DIR}/eq.${NAME}.dump id type x y z vx vy vz
dump                1 all custom 100 run_10/eq.${NAME}.dump id type x y z vx vy vz
dump                1 all custom 100 run_10/eq.ibeam_cooling_10.dump id type x y z vx vy vz
run                 10000
Neighbor list info ...
  update every 1 steps, delay 0 steps, check yes
  max neighbors/atom: 2000, page size: 100000
  master list distance cutoff = 6.67472
  ghost atom cutoff = 6.67472
  binsize = 3.33736, bins = 48 13 9
  1 neighbor lists, perpetual/occasional/extra = 1 0 0
  (1) pair sw, perpetual
      attributes: full, newton on
      pair build: full/bin/atomonly
      stencil: full/bin/3d
      bin: standard
Per MPI rank memory allocation (min/avg/max) = 3.359 | 4.246 | 4.732 Mbytes
Step c_2 Press Volume TotEng KinEng PotEng c_1[4] Density 
       0          240   -344.39513    181563.75    -13284.54    987.24429   -14271.784            0    1.0922001 
     100    243.19458   -469.74416    181563.75   -13249.378    1000.3853   -14249.763   0.89046265    1.0922001 
     200    243.80464    -246.7221    181563.75   -13287.772    1002.8947   -14290.666    1.4180132    1.0922001 
     300    240.09881   -173.75465    181563.75   -13284.897    987.65075   -14272.548    2.0007012    1.0922001 
     400    239.18898   -392.48735    181563.75   -13297.267    983.90816   -14281.175    2.4235088    1.0922001 
     500    243.47547   -509.49325    181563.75   -13295.049    1001.5407   -14296.589    2.8763358    1.0922001 
     600    230.39843   -295.14012    181563.75    -13377.87    947.74807   -14325.618    3.4178703    1.0922001 
     700    232.25856   -144.37142    181563.75   -13357.192    955.39973   -14312.592    3.7626204    1.0922001 
     800    226.99981   -257.28866    181563.75   -13393.098    933.76776   -14326.866    4.1011537    1.0922001 
     900     234.5846   -486.32041    181563.75   -13347.043    964.96794   -14312.011    4.5323596    1.0922001 
    1000    245.77724   -392.79655    181563.75   -13313.915    1011.0091   -14324.924    4.9620606    1.0922001 
    1100    239.25459   -301.90902    181563.75   -13333.943    984.17804   -14318.122    5.3272645    1.0922001 
    1200      235.196    -326.8798    181563.75   -13374.979    967.48295   -14342.462    5.5035753    1.0922001 
    1300    226.96928   -148.81512    181563.75   -13324.295    933.64217   -14257.937    5.7946034    1.0922001 
    1400    252.76709   -247.64264    181563.75   -13272.658    1039.7619    -14312.42     6.186774    1.0922001 
    1500    248.13149   -307.23034    181563.75    -13280.12    1020.6933   -14300.813    6.6231687    1.0922001 
    1600    253.38312   -369.20626    181563.75   -13269.534     1042.296    -14311.83    7.0535032    1.0922001 
    1700    240.71462   -553.69441    181563.75   -13283.698     990.1839   -14273.882    7.2959877    1.0922001 
    1800    230.30455     -269.399    181563.75   -13283.669    947.36189    -14231.03    7.6358275    1.0922001 
    1900    249.68618   -260.19805    181563.75   -13223.974    1027.0886   -14251.062    8.0005068    1.0922001 
    2000    248.58482   -252.86606    181563.75    -13211.86    1022.5581   -14234.418     8.645447    1.0922001 
    2100    249.05822   -376.22218    181563.75   -13231.235    1024.5055    -14255.74    9.1152534    1.0922001 
    2200    255.66624   -454.42356    181563.75   -13234.689    1051.6876   -14286.377    9.5657613    1.0922001 
    2300    236.89111   -438.12235    181563.75    -13267.98    974.45579   -14242.436    9.7650543    1.0922001 
    2400    245.64714   -447.48484    181563.75   -13268.115    1010.4739   -14278.589    9.8691962    1.0922001 
    2500    246.87989   -263.52835    181563.75   -13265.095    1015.5448    -14280.64    9.9880245    1.0922001 
    2600    241.63972   -178.59895    181563.75   -13311.327    993.98931   -14305.316    10.240775    1.0922001 
    2700    234.21804   -403.91455    181563.75   -13291.886     963.4601   -14255.346    10.589625    1.0922001 
    2800    241.08595   -388.02549    181563.75   -13290.149    991.71138    -14281.86    11.005234    1.0922001 
    2900    236.10935   -387.11501    181563.75   -13335.667    971.24005   -14306.908    11.290844    1.0922001 
    3000    238.91393   -350.31977    181563.75   -13355.837    982.77673   -14338.614    11.622407    1.0922001 
    3100    238.78844   -246.26332    181563.75   -13356.792    982.26053   -14339.053    11.854196    1.0922001 
    3200    238.61426   -341.07747    181563.75   -13374.482    981.54402   -14356.026    12.013399    1.0922001 
    3300     239.3337   -345.64289    181563.75   -13327.908    984.50346   -14312.411    12.517158    1.0922001 
    3400    231.86086    -434.7995    181563.75   -13344.158    953.76381   -14297.921    13.169932    1.0922001 
    3500    233.13697   -473.41385    181563.75   -13339.693    959.01308   -14298.706    13.398175    1.0922001 
    3600    239.28269   -335.47165    181563.75   -13317.933    984.29364   -14302.227    13.829404    1.0922001 
    3700    237.11426   -344.37561    181563.75   -13350.305    975.37376   -14325.679    14.042749    1.0922001 
    3800    239.36303   -336.42664    181563.75   -13330.971    984.62409   -14315.596    14.450833    1.0922001 
    3900    240.15179   -261.37075    181563.75   -13347.763     987.8687   -14335.631    14.827101    1.0922001 
    4000    240.38806   -263.11566    181563.75   -13364.043    988.84057   -14352.883    14.902645    1.0922001 
    4100    242.16984   -235.95946    181563.75   -13334.383    996.16998   -14330.553    15.162758    1.0922001 
    4200    245.33874    -244.1402    181563.75   -13305.334    1009.2053   -14314.539    15.471508    1.0922001 
    4300    248.19723   -331.10152    181563.75   -13244.104    1020.9638   -14265.068    15.644082    1.0922001 
    4400    249.56633     -218.308    181563.75   -13249.289    1026.5955   -14275.885    16.124608    1.0922001 
    4500    238.43951   -236.45714    181563.75   -13301.848    980.82519   -14282.673    16.512685    1.0922001 
    4600    242.24912   -420.35607    181563.75   -13315.171     996.4961   -14311.667    16.695935    1.0922001 
    4700    239.14161   -364.02152    181563.75   -13319.451    983.71331   -14303.165    17.404605    1.0922001 
    4800    237.15961    -280.2625    181563.75    -13291.08    975.56029    -14266.64     17.80217    1.0922001 
    4900    233.24152   -396.46203    181563.75   -13314.513    959.44318   -14273.956     17.94866    1.0922001 
    5000    237.61056   -272.17789    181563.75   -13330.928    977.41528   -14308.343    18.119517    1.0922001 
    5100    239.92169   -356.64337    181563.75   -13338.094    986.92218   -14325.017     18.32896    1.0922001 
    5200    233.75973   -403.59728    181563.75   -13325.339    961.57482   -14286.914     18.43328    1.0922001 
    5300     236.7532   -367.99151    181563.75   -13357.385     973.8885   -14331.274    18.873533    1.0922001 
    5400    233.09658   -407.78832    181563.75   -13311.496    958.84696   -14270.343    19.343871    1.0922001 
    5500    230.51038   -470.36875    181563.75   -13336.672    948.20856   -14284.881    19.577083    1.0922001 
    5600    231.95366   -352.98894    181563.75   -13347.996    954.14551   -14302.141    19.632142    1.0922001 
    5700    232.24755    -263.0828    181563.75   -13315.732    955.35445   -14271.086    19.568442    1.0922001 
    5800    245.92552   -243.22288    181563.75   -13265.431     1011.619    -14277.05    19.998735    1.0922001 
    5900    240.56502   -470.24595    181563.75   -13287.342     989.5685    -14276.91    20.467521    1.0922001 
    6000    228.78164   -441.21429    181563.75    -13349.19    941.09737   -14290.288    20.729782    1.0922001 
    6100    235.01819   -147.67941    181563.75   -13337.356    966.75151   -14304.108    20.931676    1.0922001 
    6200    239.39247   -332.02402    181563.75   -13310.239     984.7452   -14294.984    21.267376    1.0922001 
    6300    241.24904   -371.67612    181563.75   -13283.095    992.38224   -14275.477    21.573112    1.0922001 
    6400    241.50914   -337.21632    181563.75   -13282.202    993.45216   -14275.654    22.166804    1.0922001 
    6500    240.03068   -414.89922    181563.75   -13294.664    987.37047   -14282.034    22.393932    1.0922001 
    6600    229.94854   -498.17649    181563.75   -13342.921    945.89742   -14288.818    22.757809    1.0922001 
    6700    238.74898   -358.18215    181563.75   -13363.519    982.09821   -14345.617    22.842139    1.0922001 
    6800    235.71762   -338.07781    181563.75   -13346.626    969.62866   -14316.255    23.342477    1.0922001 
    6900    238.55265   -337.92178    181563.75   -13376.683    981.29058   -14357.973    23.802468    1.0922001 
    7000    234.65389   -496.14736    181563.75   -13369.133    965.25296   -14334.386    24.238211    1.0922001 
    7100    242.49061   -419.80493    181563.75   -13290.523    997.48948   -14288.012    24.353189    1.0922001 
    7200    230.01473    -518.7473    181563.75    -13293.93     946.1697   -14240.099    24.539677    1.0922001 
    7300    233.67148   -345.45169    181563.75   -13347.315     961.2118   -14308.527    24.859475    1.0922001 
    7400    235.42659   -277.38681    181563.75   -13352.004    968.43149   -14320.436    25.027817    1.0922001 
    7500    229.44085   -279.68217    181563.75   -13365.379    943.80904   -14309.188    25.628791    1.0922001 
    7600    225.92434   -337.44657    181563.75   -13371.787    929.34381   -14301.131    26.119538    1.0922001 
    7700    232.06037    -397.2261    181563.75   -13358.375    954.58449    -14312.96    26.591785    1.0922001 
    7800    240.47941   -319.69642    181563.75   -13323.262    989.21636   -14312.479     26.80463    1.0922001 
    7900    233.66452   -476.59899    181563.75    -13319.07    961.18317   -14280.253     27.23624    1.0922001 
    8000    236.29965   -311.87114    181563.75    -13315.86    972.02283   -14287.883    27.640737    1.0922001 
    8100    231.41239   -414.21357    181563.75   -13322.653    951.91899   -14274.572    28.079119    1.0922001 
    8200    234.63322   -403.37407    181563.75   -13336.907    965.16793   -14302.074    28.523292    1.0922001 
    8300    228.44429   -328.71684    181563.75   -13350.764    939.70967   -14290.474    28.841489    1.0922001 
    8400    233.30047   -330.63572    181563.75   -13352.466    959.68564   -14312.152    29.589546    1.0922001 
    8500    243.52168   -208.62972    181563.75   -13340.555    1001.7308   -14342.285    29.555568    1.0922001 
    8600    245.10439   -354.48845    181563.75   -13307.124    1008.2413   -14315.366     29.36387    1.0922001 
    8700    229.37172   -449.09534    181563.75   -13365.713    943.52467   -14309.238    29.974156    1.0922001 
    8800    239.66969   -457.74857    181563.75   -13315.262    985.88554   -14301.148    30.146152    1.0922001 
    8900    241.03618    -318.0994    181563.75   -13340.003    991.50664    -14331.51    30.572237    1.0922001 
    9000     237.6757   -248.11498    181563.75   -13309.706    977.68324   -14287.389     31.05856    1.0922001 
    9100    244.98208    -287.6373    181563.75   -13305.855    1007.7382   -14313.593    31.289294    1.0922001 
    9200    235.47348   -395.89809    181563.75   -13336.846    968.62438    -14305.47    31.814903    1.0922001 
    9300    235.24219   -574.02221    181563.75   -13352.505    967.67295   -14320.178    32.195201    1.0922001 
    9400    247.43254   -582.58481    181563.75   -13359.596    1017.8182   -14377.414    32.207352    1.0922001 
    9500    244.76179   -227.22554    181563.75   -13342.086     1006.832   -14348.918    32.406167    1.0922001 
    9600    229.32965   -326.58702    181563.75   -13409.625    943.35161   -14352.977    32.568672    1.0922001 
    9700    233.21905   -365.52103    181563.75    -13345.61    959.35071   -14304.961    32.726985    1.0922001 
    9800    229.97651   -389.25422    181563.75   -13362.815    946.01247   -14308.827    32.945785    1.0922001 
    9900    237.04821   -438.67649    181563.75   -13297.617    975.10203   -14272.719    33.390149    1.0922001 
   10000    249.61068   -438.87362    181563.75    -13245.85     1026.778   -14272.628    33.696644    1.0922001 
Loop time of 12.8487 on 128 procs for 10000 steps with 9253 atoms

Performance: 336.221 ns/day, 0.071 hours/ns, 778.290 timesteps/s
97.7% CPU use with 128 MPI tasks x no OpenMP threads

MPI task timing breakdown:
Section |  min time  |  avg time  |  max time  |%varavg| %total
---------------------------------------------------------------
Pair    | 0.00085783 | 3.4768     | 10.383     | 218.5 | 27.06
Neigh   | 0.004493   | 0.11896    | 0.2886     |  27.6 |  0.93
Comm    | 0.17898    | 1.9534     | 8.7011     | 158.2 | 15.20
Output  | 0.16654    | 0.16667    | 0.16732    |   0.0 |  1.30
Modify  | 0.37904    | 7.0152     | 12.375     | 197.4 | 54.60
Other   |            | 0.1176     |            |       |  0.92

Nlocal:    72.2891 ave 149 max 0 min
Histogram: 40 1 6 17 0 0 0 13 40 11
Nghost:    704.383 ave 965 max 516 min
Histogram: 26 12 2 32 12 4 7 14 3 16
Neighs:    0 ave 0 max 0 min
Histogram: 128 0 0 0 0 0 0 0 0 0
FullNghs:  7808.92 ave 18313 max 0 min
Histogram: 45 19 0 0 0 0 2 30 23 9

Total # of neighbors = 999542
Ave neighs/atom = 108.024
Neighbor list builds = 552
Dangerous builds = 0
write_data 	    ${DIR}/data.${NAME}_eq
write_data 	    run_10/data.${NAME}_eq
write_data 	    run_10/data.ibeam_cooling_10_eq

undump              1
unfix               4



################################################
#######         Run Simulation         #########
################################################

reset_timestep      0
timestep	    10.0
log                 ${DIR}/log.run_${NAME}
log                 run_10/log.run_${NAME}
log                 run_10/log.run_ibeam_cooling_10
