
# Set production fixes - Nose/Hoover
#
fix                 4 water temp/csvr ${START_TEMP} ${END_TEMP} 500.0 928347
fix                 4 water temp/csvr 240 ${END_TEMP} 500.0 928347
fix                 4 water temp/csvr 240 227 500.0 928347


## divide "droplet" into core and surface
#region		core_reg cylinder z 135 135 44.6 20 INF units box
#region		surface_reg cylinder z 135 135 44.6 20 INF units box side out
#group		core dynamic all region core_reg
#group		surface dynamic all region surface_reg

## compute pressure core
#compute        peratom_core core stress/atom NULL
#compute        p_core core reduce sum c_peratom_core[1] c_peratom_core[2] c_peratom_core[3]
#variable       press_core equal -(c_p_core[1]+c_p_core[2]+c_p_core[3])/(3*1249982.5)


## compute pressure surface
#compute        peratom_surf surface stress/atom NULL
#compute        p_surf surface reduce sum c_peratom_surf[1] c_peratom_surf[2] #c_peratom_surf[3]
#variable       press_surf equal -(c_p_surf[1]+c_p_surf[2]+c_p_surf[3])/(3*33365)

## compute total pressure of drop
compute        peratom water stress/atom NULL
compute        p water reduce sum c_peratom[1] c_peratom[2] c_peratom[3]
variable       press equal -(c_p[1]+c_p[2]+c_p[3])/(3*50320)


# compute order parameter
compute        3 all orientorder/atom nnn NULL cutoff 3.5

# compute center of mass of bridge
compute 	4 water com

# Run simulation
thermo_style        custom step c_2 press vol etotal ke pe v_press c_1[4] c_4[*]
thermo              200
dump		     1 water custom 400 ${DIR}/prod.${NAME}.dump id type x y z vx vy vz c_3[*] c_peratom[*]
dump		     1 water custom 400 run_10/prod.${NAME}.dump id type x y z vx vy vz c_3[*] c_peratom[*]
dump		     1 water custom 400 run_10/prod.ibeam_cooling_10.dump id type x y z vx vy vz c_3[*] c_peratom[*]
run                 ${STEPS}
run                 5200000
Neighbor list info ...
  update every 1 steps, delay 0 steps, check yes
  max neighbors/atom: 2000, page size: 100000
  master list distance cutoff = 6.67472
  ghost atom cutoff = 6.67472
  binsize = 3.33736, bins = 48 13 9
  2 neighbor lists, perpetual/occasional/extra = 1 1 0
  (1) pair sw, perpetual
      attributes: full, newton on
      pair build: full/bin/atomonly
      stencil: full/bin/3d
      bin: standard
  (2) compute orientorder/atom, occasional, copy from (1)
      attributes: full, newton on
      pair build: copy
      stencil: none
      bin: none
Per MPI rank memory allocation (min/avg/max) = 6.133 | 6.607 | 7.261 Mbytes
Step c_2 Press Volume TotEng KinEng PotEng v_press c_1[4] c_4[1] c_4[2] c_4[3] 
       0    249.61068   -438.87362    181563.75    -13245.85     1026.778   -14272.628   -1003.6667    33.696644    78.712002    25.133155    16.393419 
     200     234.9806   -473.64396    181563.75   -13282.197    966.59691   -14248.794   -1146.7959    35.104458    78.712464    25.130731    16.365573 
     400    239.56154    -274.0654    181563.75   -13265.113     985.4407   -14250.554    -409.4308    36.143693    78.712358    25.130402     16.35423 
     600    226.00637   -495.26085    181563.75   -13334.486    929.68124   -14264.168   -1185.5323     37.41862    78.712163    25.130345    16.334891 
     800    235.68858   -448.99961    181563.75   -13344.368    969.50919   -14313.877   -993.14388     38.42764    78.712037    25.129411     16.31929 
    1000      239.148     -161.842    181563.75   -13240.046    983.73957   -14223.785   -24.252575    39.101293    78.711121    25.129248    16.288902 
    1200    236.82083    -410.6227    181563.75   -13306.691    974.16672   -14280.858   -854.80833    40.742785    78.710906    25.128071    16.299474 
    1400    251.70399   -423.70946    181563.75   -13216.062    1035.3888   -14251.451   -940.29886    41.979944    78.714528    25.131959    16.341851 
    1600    244.52815   -353.16623    181563.75   -13234.966    1005.8709   -14240.837   -675.50982    42.765128    78.714716    25.137335    16.343128 
    1800    240.08569   -472.12542    181563.75   -13279.429    987.59678   -14267.026   -1114.6831    43.809733    78.715583    25.136344    16.339572 
    2000    245.19775   -265.68258    181563.75   -13174.563    1008.6253   -14183.189   -377.26583    45.161575    78.716056    25.134414    16.334737 
    2200    255.31005   -530.08904    181563.75   -13207.902    1050.2224   -14258.125   -1303.8518    47.578027    78.714786    25.139142     16.32718 
    2400    237.54216   -332.36175    181563.75   -13265.194    977.13391   -14242.328   -601.23155    48.312195    78.717785    25.134086    16.331262 
    2600    238.61778   -361.56922    181563.75   -13270.115    981.55851   -14251.674   -715.39473    50.616264    78.716684    25.133462    16.359094 
    2800    243.58263   -253.83792    181563.75    -13248.82    1001.9815   -14250.802   -362.14608    52.579784    78.717893    25.133508     16.37564 
    3000    231.81427   -335.35174    181563.75   -13322.411    953.57213   -14275.983   -599.57594    53.004369    78.716428    25.130816    16.395538 
    3200    240.16654   -394.15212    181563.75    -13323.08    987.92937    -14311.01   -843.84811    53.813476    78.715381    25.129351      16.3887 
    3400    232.61162    -354.2124    181563.75   -13279.394    956.85205   -14236.246   -692.87161    54.310282    78.715097    25.128666    16.387023 
    3600    242.76171   -464.72433    181563.75   -13247.162    998.60464   -14245.767   -1138.7506    56.034133    78.716926    25.127099    16.389198 
    3800    243.66776   -223.58853    181563.75   -13248.598    1002.3317    -14250.93   -243.99053    57.758506     78.71771    25.125499    16.406186 
    4000    234.39305    -455.7066    181563.75   -13265.006    964.18001   -14229.186   -1039.0561    58.899194    78.717229    25.123943     16.39884 
    4200    242.57187   -273.76135    181563.75   -13216.897     997.8237   -14214.721   -344.88282    59.891724     78.71781    25.125639    16.392034 
    4400    246.98664   -289.12967    181563.75   -13222.714     1015.984   -14238.698   -475.30731    62.624239    78.718962    25.129834     16.39115 
    4600    244.43394   -263.57631    181563.75   -13291.554    1005.4834   -14297.037   -367.74065    64.097871    78.718885    25.130375    16.401086 
    4800       234.53   -413.69638    181563.75   -13264.119    964.74334   -14228.862   -929.47519    66.048878     78.72121    25.128743    16.392614 
    5000    241.65648   -317.59449    181563.75   -13310.704    994.05827   -14304.762   -548.08388    66.283141    78.720151    25.128542    16.438613 
    5200     243.7342    -309.0245    181563.75   -13315.011     1002.605   -14317.616   -558.49185    66.514771    78.719484    25.123551    16.443997 
    5400    238.92212   -215.52234    181563.75   -13316.746    982.81042   -14299.557   -212.07924    68.391825    78.718134    25.120598    16.462978 
    5600      238.928   -421.82806    181563.75    -13339.84    982.83461   -14322.675    -931.2046    69.690756    78.718025    25.121402     16.45983 
    5800    250.55856   -414.46641    181563.75   -13235.041    1030.6771   -14265.718     -896.675    71.180316    78.716507    25.123804    16.453025 
    6000    226.96644    -356.0845    181563.75   -13382.986    933.63052   -14316.616    -699.9238    71.828993    78.717682    25.121114     16.44661 
    6200    237.08588   -499.98168    181563.75   -13300.692    975.25701   -14275.949   -1196.5514    72.947596    78.714594    25.118585    16.442942 
    6400    242.35979   -408.25921    181563.75   -13277.147    996.95135   -14274.098   -878.62105    74.053053    78.714159    25.117425    16.425537 
    6600    236.53995   -240.53764    181563.75   -13356.932    973.01131   -14329.944   -275.44667    75.351945    78.711382    25.116304    16.417405 
    6800    228.26713   -215.40551    181563.75   -13337.381    938.98091   -14276.362   -221.82561     76.75901    78.712211    25.116125    16.437222 
    7000    233.06732   -346.23947    181563.75   -13368.806    958.72659   -14327.532   -668.54319    77.970342    78.713015    25.115116    16.439863 
    7200    241.42091   -404.19925    181563.75   -13294.595    993.08921   -14287.685   -878.21999    78.890528    78.711133    25.117387    16.457771 
    7400    233.21106   -307.84579    181563.75   -13364.504    959.31787   -14323.822   -526.30166    78.687439    78.708989    25.120638    16.457016 
    7600    232.20513   -431.74878    181563.75   -13379.507    955.17994   -14334.687   -970.17045    79.057302    78.712573    25.124996    16.433772 
    7800    233.57725   -298.30702    181563.75    -13302.58     960.8242   -14263.404   -522.05077    79.577146    78.712512    25.127066    16.406553 
    8000    241.31996    -364.4395    181563.75   -13328.653    992.67398   -14321.327   -734.43109    80.118461    78.714255    25.128107    16.382477 
    8200    238.18005   -314.06924    181563.75   -13403.329    979.75788   -14383.087   -516.66391    81.322968    78.718959    25.126799    16.369844 
    8400    236.64838   -172.54931    181563.75   -13391.824    973.45733   -14365.281   -35.801871    81.203784    78.722445     25.12493    16.369286 
    8600     241.2508    -406.3556    181563.75   -13313.407    992.38949   -14305.797   -857.82474    82.478767     78.72418    25.121224    16.378371 
    8800    244.36153   -308.39682    181563.75   -13319.814    1005.1855   -14324.999   -550.94142    83.792508    78.725262    25.119957    16.393875 
    9000    234.92141   -366.75467    181563.75   -13291.655    966.35343   -14258.008   -755.41979    84.724668    78.723821    25.115279    16.358221 
    9200    237.84945   -430.48802    181563.75   -13367.659    978.39795   -14346.057   -963.21608    86.681763    78.722004    25.117889    16.371205 
    9400    234.47089   -407.51606    181563.75   -13379.531    964.50021   -14344.032   -834.62806     87.45717    78.721125    25.122569    16.356905 
    9600     230.2794    -499.6542    181563.75   -13402.583    947.25842   -14349.842   -1199.7259    89.629973    78.724709    25.126454    16.350463 
    9800    236.76269   -349.65811    181563.75   -13360.892    973.92754    -14334.82   -688.32934    90.456789    78.723254    25.126784    16.357727 
   10000    234.55323   -532.83971    181563.75   -13234.829    964.83892   -14199.667   -1297.7035    91.415117    78.719315    25.121929    16.364712 
   10200    248.96982   -306.29864    181563.75   -13279.289    1024.1418   -14303.431    -500.9564    92.457994    78.717665    25.121836     16.37973 
   10400    230.00251   -365.06757    181563.75   -13282.159    946.11943   -14228.279   -697.44666    93.473866    78.717558    25.120871    16.405447 
   10600    242.96067   -366.07553    181563.75   -13253.552    999.42306   -14252.975   -702.79631    94.557687    78.717486    25.116816    16.409709 
   10800    238.73094   -594.13406    181563.75   -13308.381    982.02401   -14290.405   -1575.1929    96.682118     78.71885    25.119638    16.395363 
   11000    237.73163   -449.92784    181563.75   -13317.799    977.91332   -14295.712   -1024.5669    97.380139    78.722618    25.120274    16.376464 
   11200      235.492   -305.24127    181563.75   -13282.128    968.70056   -14250.829   -489.09949    98.756473    78.721686    25.123592    16.379826 
   11400    245.26075    -274.1491    181563.75    -13265.73    1008.8845   -14274.614   -392.01311    99.882011    78.720147    25.123907    16.365291 
   11600    236.27775   -333.15372    181563.75   -13257.538    971.93275   -14229.471   -579.03107    100.71345     78.72503    25.126682    16.388385 
   11800    243.69323   -537.36004    181563.75    -13284.41    1002.4364   -14286.847    -1340.097    101.70685    78.727281    25.128972    16.382324 
   12000     243.5782   -397.79266    181563.75   -13230.775    1001.9633   -14232.739   -848.72234    101.64142    78.728568    25.127736    16.370144 
   12200    254.80783   -372.48962    181563.75   -13270.554    1048.1566    -14318.71   -738.12592    103.04512    78.730065    25.125701    16.355431 
   12400    246.02804   -373.86857    181563.75   -13229.562    1012.0407   -14241.603   -810.44656     103.9476    78.732801    25.124859    16.357689 
   12600    244.48794   -310.70173    181563.75   -13224.044    1005.7055    -14229.75    -542.3874    104.64508    78.733542    25.120279    16.364631 
   12800    237.97683   -426.93001    181563.75   -13297.304    978.92196   -14276.226   -941.78281    106.33732    78.732679    25.118449    16.370971 
   13000    233.97344    -329.7747    181563.75   -13304.469    962.45394   -14266.923   -651.17062    106.84407    78.733945    25.114357    16.370496 
   13200     245.1422   -468.44871    181563.75   -13243.217    1008.3968   -14251.614   -1040.5038    108.31853    78.734861     25.11412    16.349775 
   13400    244.22269   -410.15958    181563.75   -13228.043    1004.6144   -14232.657   -934.54697    109.06939    78.734109    25.112357    16.363218 
   13600    243.40989   -444.56192    181563.75   -13272.823    1001.2709   -14274.094   -1034.4491     110.0476    78.733413    25.108065     16.37898 
   13800    236.09323    -308.9546    181563.75   -13338.165    971.17371   -14309.338   -534.92253     110.8802    78.731802    25.107292    16.358599 
   14000    242.36127   -253.39899    181563.75   -13316.855     996.9574   -14313.812   -300.92816    111.15248    78.734575    25.109593    16.325704 
   14200    228.98312   -358.16734    181563.75   -13354.667    941.92615   -14296.593   -686.29071    111.86888    78.740342    25.108823    16.321671 
   14400    231.10763   -429.17831    181563.75   -13386.671    950.66535   -14337.337   -909.85358    114.35156    78.745516     25.10855    16.310554 
   14600    238.04235    -328.3054    181563.75   -13356.818    979.19145    -14336.01   -612.65438    114.00453    78.748031    25.105733    16.318532 
   14800       236.57   -458.95248    181563.75   -13320.521    973.13491   -14293.656   -1111.2695    116.17463    78.746968    25.105698    16.310788 
   15000    228.83369     -399.711    181563.75   -13322.213    941.31149   -14263.525   -846.98334    117.42703    78.747753    25.105397    16.302657 
   15200    227.92713   -330.44287    181563.75   -13370.574     937.5823   -14308.156   -596.92227    119.34514    78.742052      25.1021     16.32248 
   15400     246.5609   -526.74466    181563.75   -13307.194    1014.2327   -14321.426   -1310.4301    120.21819    78.741518    25.100229    16.326019 
   15600     228.1692   -320.60938    181563.75   -13362.451     938.5781   -14301.029   -559.27057     119.6489    78.745056    25.102472    16.331835 
   15800     235.3628   -336.16961    181563.75   -13270.733    968.16906   -14238.902      -655.51    121.02969      78.7426    25.104795    16.319212 
   16000    238.40173   -209.56738    181563.75   -13308.493    980.66979   -14289.163   -177.91078    121.73597    78.741047     25.10959    16.314108 
   16200    248.99907    -269.5303    181563.75   -13218.194    1024.2621   -14242.456   -365.55921    123.60405    78.739836    25.106306    16.323299 
   16400    248.48025   -362.50952    181563.75   -13215.832     1022.128    -14237.96   -729.61057    124.62339    78.738413    25.102901    16.277656 
   16600     237.5774   -431.53656    181563.75   -13287.314    977.27888   -14264.593   -970.90745    127.30854    78.734076    25.099686    16.293961 
   16800    241.91696   -144.77291    181563.75    -13281.06    995.12973    -14276.19    60.822704    128.86332    78.730731    25.096308    16.290429 
   17000    228.58944   -361.96666    181563.75   -13282.999    940.30674   -14223.306   -737.22286    130.93693    78.729869    25.093342    16.281852 
   17200    235.62716   -261.62884    181563.75   -13282.606    969.25655   -14251.863   -410.22999    133.53781    78.730543    25.089957    16.248358 
   17400    240.30499   -326.55456    181563.75   -13281.308    988.49887   -14269.807   -569.68524    136.90693    78.732478    25.085722    16.231142 
   17600    246.60033   -228.37353    181563.75   -13210.003    1014.3949   -14224.398   -243.04049    138.84771    78.730244    25.082236    16.244093 
   17800    234.65845   -326.72852    181563.75   -13239.403    965.27174   -14204.674   -584.52576     140.8904    78.730918    25.080855    16.268838 
   18000    240.21987   -361.21153    181563.75   -13258.151    988.14871   -14246.299   -725.92516     142.5384    78.729016     25.08444    16.257354 
   18200     241.6677   -414.93542    181563.75    -13268.93    994.10442   -14263.035   -928.22859    141.80115     78.73013    25.083131    16.269229 
   18400    236.13349   -225.93787    181563.75   -13263.977    971.33931   -14235.316   -226.70527     142.3477    78.731642    25.085227    16.266941 
   18600    250.74559   -536.64413    181563.75   -13255.915    1031.4465   -14287.361   -1387.5429    145.18783    78.733745    25.087039    16.275207 
   18800    238.51661   -346.77448    181563.75   -13296.957    981.14233   -14278.099   -688.05537     146.0009    78.734818    25.087107    16.266951 
   19000    251.11941   -408.21657    181563.75   -13303.397    1032.9842   -14336.381   -883.01106    145.84377    78.733767    25.089362    16.267265 
   19200    251.54527   -292.52722    181563.75   -13278.735    1034.7359   -14313.471   -479.71369    146.16348    78.733239     25.08762    16.281805 
   19400    244.21144   -238.97728    181563.75   -13268.124    1004.5681   -14272.692   -259.98809    146.47788    78.737705    25.085311    16.294484 
   19600    236.08712    -328.2469    181563.75    -13320.32    971.14859   -14291.469    -581.1608    147.83985    78.732755    25.081191    16.285222 
   19800     240.6376   -419.21803    181563.75   -13281.615    989.86705   -14271.482   -911.62692    149.57481    78.730413     25.08008    16.280791 
   20000    237.41227   -347.50199    181563.75   -13348.374    976.59962   -14324.973   -692.20632    150.14452    78.732221    25.082851    16.288906 
   20200    237.56164   -300.45946    181563.75   -13321.865    977.21404   -14299.079   -509.11484    151.16738     78.73703    25.080363    16.275993 
   20400    231.77841   -413.63639    181563.75   -13346.777    953.42464   -14300.201   -921.60902    155.71996    78.739168    25.078942    16.268676 
   20600    241.51738   -246.30631    181563.75   -13275.329    993.48606   -14268.815   -297.57142     160.0414    78.739295    25.078873    16.251203 
   20800    234.60287   -183.70913    181563.75   -13281.073    965.04308   -14246.116   -96.245751    163.59862    78.737231    25.077803    16.240788 
   21000    241.23866   -384.29269    181563.75   -13247.314    992.33955   -14239.654   -821.78189    166.21925    78.731898    25.079714    16.267943 
   21200    243.93667   -525.49393    181563.75    -13252.48    1003.4378   -14255.918   -1288.5686    168.61127    78.730173    25.083989    16.256726 
   21400    234.71216   -479.22281    181563.75   -13323.181    965.49265   -14288.673   -1170.6858    170.29353    78.726092    25.086999    16.271627 
   21600     242.7965   -354.86356    181563.75   -13277.368    998.74774   -14276.116   -684.45519    172.02057    78.723564    25.085547    16.244326 
   21800    239.51571   -200.82638    181563.75   -13294.703    985.25214   -14279.956   -160.12997    171.37495     78.72113    25.087754    16.262781 
   22000    243.26589   -408.02806    181563.75   -13302.124    1000.6786   -14302.802   -874.93379    173.63558    78.718761      25.0873    16.287573 
   22200    251.50697   -273.09143    181563.75   -13295.997    1034.5784   -14330.575   -423.89082    173.61703    78.716166    25.085514    16.301623 
   22400     238.8076   -410.38048    181563.75   -13336.079    982.33934   -14318.418   -906.07843    176.06912    78.714798     25.08882    16.293456 
   22600    237.35281   -417.67995    181563.75   -13352.665    976.35502    -14329.02    -944.2335    176.77304    78.714234    25.089775     16.28944 
   22800    238.97551   -480.69712    181563.75   -13319.217    983.03003   -14302.247   -1139.2522    176.47803    78.714446    25.087173    16.283773 
   23000    239.30261   -343.57711    181563.75   -13354.603    984.37557   -14338.978   -661.67548    174.42649    78.714695    25.087621     16.29916 
   23200    244.81253   -369.12341    181563.75   -13357.801    1007.0407   -14364.842   -745.30683      176.731     78.71644    25.092071    16.278229 
   23400    242.64469   -362.96759    181563.75   -13313.209    998.12328   -14311.332   -724.14658    178.62577    78.714175    25.095615    16.299186 
   23600    237.39883   -338.50354    181563.75   -13373.105    976.54432    -14349.65   -683.70014    178.18224     78.71423    25.096272    16.287536 
   23800    236.52892   -412.23082    181563.75   -13406.584    972.96596    -14379.55    -891.9945    177.67491    78.712341    25.096794    16.289641 
   24000    239.22738   -315.79914    181563.75   -13340.194    984.06608    -14324.26   -580.24508    179.02381    78.711581    25.097775    16.288846 
   24200      246.018   -300.46118    181563.75   -13320.393    1011.9994   -14332.393   -463.44071    179.08884    78.711889    25.095948     16.28848 
   24400    248.21118   -452.81955    181563.75   -13327.603    1021.0211   -14348.624   -1057.8962    180.11112    78.712309    25.101084    16.311362 
   24600    238.84787   -291.35644    181563.75   -13336.853    982.50498   -14319.358    -483.7391    182.07474    78.713232    25.099939    16.298728 
   24800    244.60676   -417.89251    181563.75   -13318.869    1006.1943   -14325.063   -903.31242    185.10151    78.714676    25.100169    16.278078 
   25000    234.49463   -255.01115    181563.75   -13355.661    964.59784   -14320.259   -339.19485    185.63431     78.71456    25.101326    16.291218 
   25200    240.99427    -417.8352    181563.75   -13332.167    991.33423   -14323.501   -927.21932    185.31916    78.713132    25.100707    16.328058 
   25400    236.44755   -304.15316    181563.75   -13341.478    972.63123   -14314.109    -509.7243    184.59708    78.709332    25.098254    16.324981 
   25600    242.32249   -239.72533    181563.75   -13294.654    996.79791   -14291.452   -297.48786    185.10704    78.709132    25.096297    16.330226 
   25800    234.03972   -436.70181    181563.75   -13319.374    962.72656     -14282.1   -1004.1746    187.62949    78.706117    25.095897    16.326573 
   26000    238.26315   -600.75083    181563.75    -13351.98    980.09972    -14332.08   -1564.1578    187.63916    78.704713    25.099266    16.305765 
   26200    243.12515      -539.65    181563.75    -13291.29    1000.0997   -14291.389   -1382.4381    189.58676    78.703129    25.101151     16.30265 
   26400     232.5133   -393.37173    181563.75   -13344.045    956.44763   -14300.493   -837.65844    190.69132    78.698922    25.105009    16.293067 
   26600    245.01233   -470.71255    181563.75   -13321.297    1007.8626    -14329.16   -1138.1936    191.57401    78.693814    25.108881    16.289505 
   26800    241.80699   -289.92064    181563.75   -13280.947    994.67737   -14275.625   -488.19617    190.15915    78.694221    25.109479    16.281886 
   27000    241.09076    -420.0161    181563.75   -13322.804    991.73114   -14314.535   -948.79491    192.28227    78.695458    25.111551    16.306322 
   27200    246.51289   -239.24453    181563.75   -13288.753    1014.0352   -14302.788   -291.52354    192.22645    78.693501     25.11456    16.301522 
   27400    247.53277   -229.95661    181563.75   -13293.265    1018.2305   -14311.495   -319.75019      193.301    78.691019    25.111339    16.300196 
   27600    238.74269   -548.92555    181563.75   -13336.338    982.07232   -14318.411   -1383.2189    196.54591    78.688811    25.112496    16.281656 
   27800    230.52901   -339.23571    181563.75   -13421.234     948.2852   -14369.519   -671.22253     195.3922    78.688471    25.113523    16.290345 
   28000    234.97285   -371.09934    181563.75   -13376.454    966.56502   -14343.019   -744.85884    195.75693    78.687196    25.114872    16.276298 
   28200    240.91899     -409.469    181563.75   -13314.282    991.02456   -14305.307   -890.56582     196.0011    78.685184    25.117328    16.258408 
   28400    240.81608   -368.61918    181563.75   -13321.423    990.60123   -14312.024   -725.88356    195.52385    78.685938    25.115256    16.243582 
   28600    240.29627   -435.44099    181563.75   -13328.451    988.46301   -14316.914   -964.36689    195.70401     78.68128    25.115691    16.242652 
   28800    226.10447   -397.61861    181563.75   -13400.305    930.08477    -14330.39   -899.07702     197.0812    78.677501    25.119201    16.258907 
   29000    236.03237   -350.24791    181563.75   -13332.675    970.92335   -14303.598   -648.97964    199.36283    78.679392    25.118796    16.239494 
   29200    244.10726   -520.43967    181563.75   -13302.837    1004.1396   -14306.977   -1278.2894    200.23194    78.682953    25.118165    16.242993 
   29400    239.63041   -236.96849    181563.75   -13290.963    985.72399   -14276.687   -300.15566    198.51123    78.683947    25.121004    16.265425 
   29600    236.80017   -352.20152    181563.75   -13319.736    974.08175   -14293.818   -698.36241    198.34769    78.686962    25.120578    16.249779 
   29800    241.85906   -293.65069    181563.75   -13278.172    994.89156   -14273.064   -474.92119    199.84781    78.683769    25.118612     16.27441 
   30000    231.32641      -356.42    181563.75   -13274.694    951.56533    -14226.26   -685.09688    202.03199     78.68173    25.122164    16.269505 
   30200    232.96186   -250.88876    181563.75   -13306.879    958.29276   -14265.172   -313.43462    202.84442    78.681112    25.123313    16.247616 
   30400    239.40598   -380.97839    181563.75   -13339.609    984.80076    -14324.41   -797.67388     208.1909    78.683031    25.122886    16.248723 
   30600    232.24265   -364.91955    181563.75    -13350.58     955.3343   -14305.915   -745.58033    210.91922    78.680477    25.122578    16.249215 
   30800    238.35398   -316.77918    181563.75   -13301.675    980.47336   -14282.149   -557.07278    213.45557    78.684328    25.121225    16.238317 
   31000    231.40864   -372.45602    181563.75   -13305.615    951.90356   -14257.519   -748.47434    215.05925    78.686912    25.122897    16.246074 
   31200    240.84884   -450.12309    181563.75   -13266.206    990.73601   -14256.942   -1027.5226    215.82528    78.688113    25.123427    16.229803 
   31400    233.16269   -348.80479    181563.75   -13293.334    959.11889   -14252.453   -713.86052    216.65758    78.684122    25.121958    16.229349 
   31600    250.72297   -332.97097    181563.75   -13241.666    1031.3534   -14273.019   -569.29483    218.53244    78.681344    25.122819    16.221012 
   31800    242.53314   -385.73591    181563.75   -13314.995    997.66441   -14312.659    -833.8293    220.73892    78.682319    25.119624    16.228898 
   32000     241.8993   -367.60991    181563.75   -13289.798    995.05708   -14284.856   -759.87834    221.82603    78.681012    25.117781    16.228809 
   32200    239.12427   -434.77543    181563.75    -13329.42    983.64196   -14313.062   -1002.8658    222.96408    78.680138    25.117103    16.238459 
   32400    238.94379   -406.61617    181563.75   -13314.479    982.89955   -14297.378   -848.31119      225.179    78.680689    25.115254    16.210383 
   32600    243.23524   -356.77031    181563.75   -13296.916    1000.5525   -14297.468   -698.69064    226.63087    78.679586    25.113784    16.179095 
   32800    234.50466   -220.00805    181563.75   -13325.472    964.63913   -14290.111   -244.32583    227.82836    78.683151     25.11846    16.172196 
   33000    243.47378   -235.56637    181563.75   -13287.003    1001.5338   -14288.537   -292.83305    228.39532    78.685066    25.121205    16.141349 
   33200    244.10978   -370.14917    181563.75   -13314.639      1004.15   -14318.789   -710.11819    229.89563    78.682955    25.117752    16.135307 
   33400    239.15958   -359.77555    181563.75   -13332.928    983.78722   -14316.715   -689.74197    231.68142    78.681309    25.118411    16.130035 
   33600    234.97141   -462.38043    181563.75   -13354.194    966.55909   -14320.753   -1101.9501    234.29163    78.682013    25.121525    16.117091 
   33800    243.29975   -255.81486    181563.75   -13303.558    1000.8179   -14304.376   -340.38641    235.46183    78.681785    25.122995    16.121037 
   34000    242.92815   -262.69762    181563.75    -13308.52     999.2893    -14307.81   -378.71013    236.50418    78.686093    25.125872    16.138378 
   34200    234.41899   -330.98059    181563.75   -13343.221    964.28671   -14307.507   -628.57925    232.74587    78.688486    25.124022    16.124365 
   34400    244.69282   -481.09088    181563.75   -13341.342    1006.5483    -14347.89   -1149.3795    233.54382    78.692424    25.124273    16.128668 
   34600    237.33587    -346.4157    181563.75   -13316.991    976.28533   -14293.276   -687.86168    232.97119    78.694059    25.123723    16.134652 
   34800    240.71904   -336.29118    181563.75   -13321.467    990.20206   -14311.669   -586.09121    234.30657    78.694208    25.123266    16.105975 
   35000    240.85242   -409.02053    181563.75   -13335.197    990.75075   -14325.947   -906.40165    234.57077    78.693914    25.123499    16.106397 
   35200    242.07639   -263.97294    181563.75   -13321.248    995.78556   -14317.033   -380.13234    235.11514    78.694054     25.12145    16.109005 
   35400    245.02126    -403.9827    181563.75   -13297.867    1007.8993   -14305.766   -879.03838    237.58849     78.69179    25.119619    16.102154 
   35600     241.4769   -338.80274    181563.75   -13395.634    993.31955   -14388.953   -670.09234    238.39655    78.694646    25.116247     16.10903 
   35800    238.30059   -330.25595    181563.75   -13357.024    980.25375   -14337.277   -610.50652    240.56236    78.697708    25.117639    16.121791 
   36000     239.9074   -354.01523    181563.75   -13422.047    986.86338    -14408.91   -690.49379    243.10105    78.696578    25.116082     16.11916 
   36200    234.66299   -462.41272    181563.75   -13398.968    965.29041   -14364.259   -1081.1827    243.28168    78.698258    25.115864    16.128177 
   36400    245.89326   -392.37104    181563.75   -13349.144    1011.4863    -14360.63   -846.94462     241.1872    78.700728    25.118787    16.131598 
   36600    238.62699   -459.44084    181563.75    -13417.27    981.59637   -14398.867   -1026.2804    244.07093    78.700292     25.11781    16.160361 
   36800    229.37629   -321.67339    181563.75   -13426.297    943.54347   -14369.841   -593.81502    244.77893    78.704198    25.114776    16.168545 
   37000    238.02116   -406.20532    181563.75   -13366.985     979.1043   -14346.089   -876.37333    243.86685    78.705486    25.113651     16.18128 
   37200    236.66241   -327.89344    181563.75   -13405.486    973.51507   -14379.001   -596.79219    244.14152    78.710685    25.113329    16.206888 
   37400    244.52895   -386.03857    181563.75   -13314.525    1005.8742   -14320.399   -805.30101    246.96795    78.711615    25.111159    16.205658 
   37600    243.65815   -246.68353    181563.75   -13282.994    1002.2921   -14285.286   -337.22841    247.39258     78.71116    25.109648    16.215419 
   37800    244.35921   -380.95478    181563.75   -13336.368     1005.176   -14341.544   -815.80745    250.76637    78.711623    25.108232    16.214703 
   38000    239.53381   -362.18405    181563.75   -13316.954    985.32659    -14302.28   -670.21572    249.34091    78.712258    25.107595    16.210691 
   38200    236.22063   -426.86051    181563.75   -13273.901    971.69777   -14245.598   -956.12763    248.07947    78.714774    25.107599    16.221004 
   38400    243.90868    -250.2901    181563.75   -13286.614    1003.3227   -14289.937   -330.08231    250.08684    78.711923     25.10916    16.213511 
   38600    240.38468   -302.71243    181563.75   -13304.553    988.82666    -14293.38   -432.12412     255.3583    78.706174    25.112233    16.195623 
   38800    239.74868   -515.37455    181563.75   -13302.957    986.21048   -14289.168   -1285.9394    258.00272    78.703756    25.110275    16.196035 
   39000    241.69593   -321.90119    181563.75   -13284.896    994.22052   -14279.117   -600.24628    257.35174    78.703814    25.105774     16.17763 
   39200    239.40007   -409.78653    181563.75   -13364.844    984.77647    -14349.62    -874.4498    256.15862    78.704741    25.102377    16.205585 
   39400    232.83144   -477.53948    181563.75   -13333.401    957.75628   -14291.158   -1171.5558    262.65103    78.703192    25.103534    16.218024 
   39600    237.61974   -311.51442    181563.75   -13351.539    977.45306   -14328.992   -545.59642    267.58789    78.701196    25.108276    16.212856 
   39800    244.02001   -383.50456    181563.75   -13232.515    1003.7807   -14236.296   -777.88085    272.25697    78.701993    25.111508     16.22479 
   40000    244.15991   -265.41352    181563.75   -13311.255    1004.3561   -14315.611   -400.27859    275.32975    78.699831    25.109585    16.221122 
   40200    240.02755   -257.23438    181563.75   -13354.106    987.35762   -14341.464   -359.87103    273.88853    78.701598    25.112126    16.235172 
   40400    245.17616   -255.10566    181563.75   -13260.328    1008.5365   -14268.864   -345.66294    274.21114    78.702024     25.10984     16.24798 
   40600    230.68933   -253.66922    181563.75   -13399.504    948.94469   -14348.449   -362.02039    278.46263      78.7045    25.112037    16.238226 
   40800    232.36781   -374.44723    181563.75   -13301.368    955.84912   -14257.217   -762.22457    286.17159    78.706529    25.108574    16.255872 
   41000    244.12232   -309.32335    181563.75   -13264.947    1004.2015   -14269.148    -511.4002    288.69585    78.705274    25.110369    16.263355 
   41200    243.90076   -422.58286    181563.75   -13283.029    1003.2901   -14286.319   -938.00619    288.27205    78.707954    25.109385    16.253756 
   41400    243.66668   -244.38447    181563.75   -13304.154    1002.3273   -14306.481   -291.71012    291.56145    78.709603    25.105716    16.235728 
   41600    247.20457   -436.57921    181563.75   -13276.588    1016.8804   -14293.468   -972.18238     292.3314    78.712486    25.104985    16.264762 
   41800    237.24666   -546.16779    181563.75   -13335.825    975.91837   -14311.743   -1381.8006    293.55377    78.714341    25.104942     16.25046 
   42000    232.85227   -368.85995    181563.75   -13357.284    957.84195   -14315.126   -723.04204    299.43732    78.716705    25.107492    16.250511 
   42200    242.80551   -380.22821    181563.75   -13340.811    998.78481   -14339.596   -789.29577    307.81241    78.715625     25.10801    16.270846 
   42400    241.45595   -248.99873    181563.75   -13345.835    993.23338   -14339.068   -342.53886    309.80206    78.717757    25.107921    16.269862 
   42600    235.30654   -422.72971    181563.75   -13314.271    967.93764   -14282.209   -945.52161    311.97107    78.719144    25.107375    16.288494 
   42800    239.90494   -532.80266    181563.75   -13278.554    986.85326   -14265.407   -1312.8885    309.83539    78.720924    25.105727    16.287025 
   43000    246.63655   -308.72863    181563.75    -13264.69    1014.5438   -14279.234   -510.13743    308.46317     78.72175    25.104362    16.262866 
   43200    242.98902   -424.69828    181563.75   -13258.921    999.53967   -14258.461   -951.87863    308.87053    78.718288    25.106638    16.278735 
   43400    243.06579   -462.84158    181563.75   -13294.496    999.85547   -14294.351   -1058.6863     311.8943    78.717974    25.108614    16.278097 
   43600    228.06228    -357.1428    181563.75    -13311.02    938.13827   -14249.159   -711.85443    312.34593    78.718376    25.109595    16.295445 
   43800    245.74225   -361.21731    181563.75   -13268.007    1010.8651   -14278.872   -720.99648    313.15252     78.71803    25.105664    16.298148 
   44000    232.02499   -246.52424    181563.75   -13313.618    954.43896   -14268.057   -265.82793    313.28426    78.715771    25.103398    16.310309 
   44200    239.06568   -411.23753    181563.75   -13251.419    983.40094    -14234.82   -904.82664    318.45768     78.71106    25.102703    16.330773 
   44400    249.59149    -296.0267    181563.75   -13218.343    1026.6991   -14245.042   -472.94024    320.25337    78.711525    25.104714    16.327505 
   44600    238.37765   -329.31144    181563.75   -13285.944     980.5707   -14266.514   -583.34088    320.11934    78.709718    25.108033    16.322642 
   44800    239.26674   -320.32741    181563.75   -13291.569    984.22801   -14275.797   -588.71222    319.00364    78.712375    25.109591    16.323063 
   45000    243.62949   -528.36452    181563.75   -13257.417    1002.1743   -14259.592   -1334.9281    318.98427    78.710445    25.110513    16.313429 
   45200    249.19724   -215.35919    181563.75   -13161.253    1025.0773   -14186.331   -215.46135    321.20139    78.708907     25.11511    16.285506 
   45400    249.01093   -373.53776    181563.75   -13151.946    1024.3109   -14176.257   -682.27669    321.00687    78.708039    25.117947    16.278522 
   45600    246.06322   -470.45642    181563.75   -13207.625    1012.1854    -14219.81    -1101.851    322.40264    78.704787    25.122206    16.261497 
   45800     239.2734   -412.69461    181563.75   -13270.443     984.2554   -14254.698    -912.7976    325.72676    78.706069    25.125497    16.245896 
   46000    238.92615    -291.1153    181563.75   -13244.207    982.82698   -14227.034   -520.61494    327.80363     78.70613      25.1265    16.260993 
   46200    239.95887   -450.70157    181563.75   -13236.516    987.07511   -14223.591   -1025.0687    323.11689    78.705917    25.126194    16.271993 
   46400    240.94543   -435.53743    181563.75   -13208.776    991.13334   -14199.909   -974.89635    322.47627     78.70454    25.124649    16.251031 
   46600    234.45653   -308.03782    181563.75   -13258.411    964.44113   -14222.852    -534.3349    327.19477    78.704498     25.12091    16.275777 
   46800    238.24991     -369.861    181563.75   -13212.809    980.04527   -14192.854   -735.62195     329.0767    78.702985    25.118353      16.2745 
   47000    240.07017   -381.89014    181563.75    -13175.99    987.53294   -14163.523   -800.06858    329.53324    78.701724    25.118724    16.272477 
   47200    234.11338   -268.26667    181563.75   -13285.414    963.02958   -14248.444   -364.34343    333.24563    78.701277    25.118281    16.267824 
   47400    242.01101   -537.32428    181563.75   -13260.424    995.51663   -14255.941   -1313.5094    334.03254    78.701514    25.121013    16.279057 
   47600    242.37336   -400.71246    181563.75   -13274.322    997.00714   -14271.329    -845.5886    330.86251    78.701562    25.124236    16.283563 
   47800     244.1882     -395.946    181563.75   -13268.831    1004.4725   -14273.304   -849.06143    330.61411    78.696401    25.127025    16.298199 
   48000    233.77717   -318.61662    181563.75   -13293.668    961.64655   -14255.315    -566.0924     327.1403    78.694916    25.131614    16.273337 
   48200    242.41614   -358.46006    181563.75   -13293.653    997.18312   -14290.836     -706.753    324.48391    78.694565    25.129398    16.268943 
   48400    237.04749   -528.23803    181563.75   -13303.749    975.09908   -14278.849    -1308.004    328.94177    78.693798    25.128477    16.257279 
   48600    240.35992   -347.00611    181563.75   -13275.638    988.72482   -14264.363   -656.96332     329.3975    78.694672    25.125393    16.257341 
   48800    242.88787   -255.10426    181563.75   -13302.987    999.12358   -14302.111    -321.5765    327.74479    78.694535    25.123788    16.253564 
   49000     241.8006   -574.17169    181563.75   -13273.411    994.65108   -14268.062   -1485.0405    330.34461    78.693097    25.125945     16.23647 
   49200    245.30227   -468.36716    181563.75   -13290.427    1009.0553   -14299.482   -1100.8134    331.10027    78.693059    25.129045    16.255784 
   49400    235.35904   -399.03982    181563.75   -13314.153    968.15362   -14282.306   -900.54218    330.31093    78.691988    25.131892    16.240456 
   49600    236.37825   -348.51074    181563.75   -13326.794    972.34614    -14299.14   -657.59924    334.36684    78.687591     25.13212    16.253166 
   49800    240.57885   -225.43222    181563.75    -13356.67     989.6254   -14346.295   -261.21536    336.38701    78.687483    25.136453    16.246736 
   50000    223.20284   -462.36738    181563.75   -13349.734    918.14889   -14267.883   -1107.5878    340.71172    78.688758    25.136717    16.223679 
   50200    244.92747   -210.72884    181563.75   -13252.054    1007.5135   -14259.567   -175.06294    339.15071    78.687013     25.13849    16.214083 
   50400    235.12014   -437.27493    181563.75   -13272.898     967.1709   -14240.069   -992.72904    337.79236     78.68559    25.140866     16.17867 
   50600    235.60083   -306.77101    181563.75   -13344.043    969.14824   -14313.191    -538.9335    336.51728    78.686462    25.146558    16.205307 
   50800    235.92318   -430.69212    181563.75   -13346.965     970.4742   -14317.439   -1011.1697    336.07704    78.687327    25.150709    16.214955 
   51000    243.60233   -472.84973    181563.75   -13267.522    1002.0625   -14269.584   -1104.0694     338.4697    78.685673    25.152716    16.189914 
   51200    231.30614   -277.86042    181563.75    -13346.05    951.48196   -14297.532   -425.20395    339.24985    78.683483    25.148119    16.210353 
   51400    242.86763   -513.05407    181563.75   -13288.019    999.04035   -14287.059   -1217.9797      341.893    78.681824    25.148445     16.22384 
   51600    237.61797   -506.21439    181563.75   -13302.065    977.44578   -14279.511   -1246.8417    347.48907    78.678517    25.145279    16.246735 
   51800     240.4944   -527.22328    181563.75   -13277.008    989.27802   -14266.286   -1315.6372    352.48227    78.675979    25.141924    16.246011 
   52000    241.52501   -407.31662    181563.75   -13284.482    993.51744   -14277.999   -884.85185    360.92556     78.67826    25.141705    16.249344 
   52200     235.1604   -306.52684    181563.75   -13273.436     967.3365   -14240.773   -498.69121    367.00729    78.676938    25.144103    16.240956 
   52400    234.28214   -413.89138    181563.75   -13277.134    963.72375   -14240.858   -898.30876    373.40353    78.681098    25.147198    16.255568 
   52600    229.63582   -323.55789    181563.75   -13290.165    944.61105   -14234.776   -548.12911    378.74562    78.678911    25.150054     16.27923 
   52800    235.38169   -278.11653    181563.75   -13376.593    968.24679    -14344.84   -401.69005    381.00986    78.678229    25.150323    16.262928 
   53000    227.47244   -409.05753    181563.75    -13370.79    935.71196   -14306.502   -880.67286    376.57114    78.676973    25.146972    16.263076 
   53200    239.35359   -392.23759    181563.75   -13339.351    984.58525   -14323.936   -846.16886    371.50463    78.675037    25.149649    16.257807 
   53400    236.57596   -286.83193    181563.75   -13318.569    973.15945   -14291.729   -464.15899    371.44986    78.674181    25.148313    16.263807 
   53600    245.48043    -534.3054    181563.75   -13292.258    1009.7881   -14302.047   -1338.4903    373.50702    78.673516    25.152037    16.258882 
   53800    236.88444   -234.74744    181563.75   -13297.068    974.42839   -14271.496   -226.19621    374.56441    78.671378    25.152387    16.250405 
   54000    245.06682    -435.1006    181563.75   -13243.731    1008.0868   -14251.817   -1026.6399    379.54791      78.6689    25.155226    16.263799 
   54200    233.64379    -273.3743    181563.75   -13366.894    961.09791   -14327.992   -461.37954     380.3692    78.664541    25.161549    16.279768 
   54400    236.12672   -339.74409    181563.75   -13349.115    971.31147   -14320.426   -601.72792     382.5922    78.665332     25.16611     16.29338 
   54600    238.16052    -432.2309    181563.75   -13321.296    979.67754   -14300.973   -980.70065    381.11022    78.662861    25.166457    16.282414 
   54800    246.15255    -346.2337    181563.75   -13279.636    1012.5529   -14292.189   -662.03055    379.18489    78.661646    25.167462    16.285946 
   55000     242.9785   -299.40842    181563.75   -13311.305     999.4964   -14310.802   -513.78995    379.69576    78.661642    25.167297    16.298403 
   55200    244.26071   -268.90943    181563.75    -13300.62    1004.7708   -14305.391   -419.55786    381.47811    78.663397    25.165751    16.304239 
   55400    244.34999    -300.8005    181563.75   -13275.583     1005.138   -14280.721   -519.53033    386.35871    78.664197    25.165236    16.285308 
   55600    240.85535   -396.27653    181563.75   -13309.215    990.76279   -14299.978   -840.71461    385.18621    78.667891    25.161548    16.271886 
   55800    232.32162   -287.04649    181563.75   -13340.254    955.65915   -14295.913   -445.94494    388.45125    78.666495    25.160953    16.288696 
   56000    239.40497   -414.79419    181563.75   -13371.237    984.79661   -14356.034   -910.30443     390.2541    78.657261    25.159372    16.274291 
   56200     236.5427    -212.3527    181563.75   -13299.025    973.02262   -14272.047   -169.62159    390.91535    78.653914    25.157081    16.298641 
   56400    233.61195   -455.84038    181563.75   -13308.424    960.96695   -14269.391    -1082.034    392.26047    78.652422    25.155271    16.264653 
   56600    235.69129    -338.3731    181563.75   -13363.198    969.52032   -14332.718   -652.08057    388.27625    78.650036    25.154308    16.243924 
   56800    232.77189   -461.36436    181563.75    -13389.67    957.51133   -14347.182   -1066.1725     388.5669    78.648528    25.160322    16.239947 
   57000     231.3901   -315.39024    181563.75   -13368.243    951.82733    -14320.07   -563.55288     387.7296    78.649702    25.161023     16.24372 
   57200    240.89892   -547.35981    181563.75   -13363.868    990.94202    -14354.81   -1377.8876    390.45857    78.651947    25.161692    16.249822 
   57400    236.40165   -212.01357    181563.75   -13330.331     972.4424   -14302.773   -238.13864    393.86582    78.658054    25.160085    16.265447 
   57600    243.04253   -375.43256    181563.75    -13250.28     999.7598    -14250.04   -740.21817    398.68214    78.661667    25.156996    16.236581 
   57800    244.12824   -328.99476    181563.75   -13271.542    1004.2259   -14275.768   -605.24043    402.08162    78.663878    25.157505    16.237428 
   58000    249.85077   -328.57802    181563.75   -13238.585    1027.7656    -14266.35   -597.46692    401.73767     78.66631    25.158367     16.24085 
   58200     244.5612   -400.21016    181563.75   -13300.305    1006.0068   -14306.312   -875.68385    403.79546    78.666929    25.158977    16.248772 
   58400    241.86754   -301.12378    181563.75   -13333.902    994.92646   -14328.829   -507.80043    401.18539    78.663584    25.156834    16.272592 
   58600    240.98177   -365.80144    181563.75   -13353.744    991.28281   -14345.027   -777.25813    404.85484    78.663782    25.158457    16.289759 
   58800    241.08392    -223.2265    181563.75   -13363.148    991.70302   -14354.851   -252.64245    407.25201    78.664717    25.159975    16.296974 
   59000    241.51896   -415.34465    181563.75   -13346.671    993.49256   -14340.163   -884.14442    408.64367    78.666661    25.159662      16.2835 
   59200    241.45411    -315.6884    181563.75   -13323.246    993.22581   -14316.472    -576.2758    417.72589     78.66932    25.163971    16.285141 
   59400    242.49051   -317.51664    181563.75    -13324.44    997.48903   -14321.929   -554.84357    421.83776     78.66736    25.166844    16.310638 
   59600    238.84434   -482.29723    181563.75   -13279.052    982.49044   -14261.542   -1206.7886    431.56537    78.666529    25.172257     16.33452 
   59800    245.58677    -401.5192    181563.75   -13272.965    1010.2256   -14283.191   -876.05075    436.29456    78.666151    25.171398     16.30704 
   60000    243.04838   -214.55049    181563.75   -13291.185    999.78385   -14290.969   -182.04283    438.39883     78.66496    25.171107    16.309816 
   60200    240.20184   -371.11396    181563.75     -13236.7    988.07457   -14224.774   -760.66249    444.73674    78.663193    25.170713    16.320786 
   60400     226.8394   -300.74852    181563.75   -13308.557    933.10792   -14241.665   -513.66685    447.09205    78.664126    25.170586    16.327799 
   60600    240.80621   -375.66125    181563.75   -13276.361    990.56065   -14266.921    -815.2232    442.95625    78.664555    25.166699    16.342413 
   60800    236.45694   -410.47144    181563.75   -13311.417    972.66985   -14284.087   -893.96438      434.954    78.664665    25.166939    16.332396 
   61000    228.97315   -358.77851    181563.75   -13348.964    941.88514   -14290.849    -701.8731    436.35874    78.665074    25.162375    16.376306 
   61200    236.10702    -263.3675    181563.75    -13329.98    971.23044   -14301.211   -373.18387    437.52597    78.667786    25.156447    16.395539 
   61400    236.77338   -233.69545    181563.75   -13331.985    973.97154   -14305.957   -247.14212     436.6571    78.665392    25.153765    16.383175 
   61600    241.38762   -323.46224    181563.75   -13325.242    992.95227   -14318.194   -558.85125    434.87878    78.665926    25.151971     16.37445 
   61800     242.1323   -307.20548    181563.75   -13291.447    996.01555   -14287.463   -512.70139    431.91537    78.668089    25.149513    16.354765 
   62000    244.37712   -369.61517    181563.75   -13328.717    1005.2497   -14333.967   -704.70448    426.43287    78.669891    25.149239    16.327938 
   62200    244.24645   -279.89927    181563.75   -13257.592    1004.7121   -14262.304   -377.39897    422.30057    78.666238    25.151465    16.298965 
   62400    242.16183   -378.81601    181563.75   -13255.399      996.137   -14251.536   -780.96324    420.40072    78.663425    25.150982    16.301567 
   62600    234.69948   -177.33149    181563.75   -13315.808    965.44051   -14281.249   -39.290064    413.28213    78.664192    25.149142    16.308564 
   62800    239.83896   -453.20222    181563.75    -13325.87    986.58186   -14312.452   -1043.8635    406.51824    78.664178    25.149382    16.296021 
   63000    240.29096   -420.44314    181563.75   -13297.029    988.44115    -14285.47   -933.15732    402.94581    78.664523    25.146857    16.311419 
   63200    230.58414   -398.21086    181563.75   -13361.819    948.51198   -14310.331   -828.59396    404.89154    78.660472    25.146151    16.312735 
   63400    242.35499   -191.36082    181563.75   -13293.177     996.9316   -14290.109   -117.06537    408.56906    78.661743    25.144843    16.282087 
   63600    244.48568   -432.27746    181563.75   -13232.935    1005.6962   -14238.631   -951.22091     410.6533    78.662306    25.144201     16.27358 
   63800    241.54959    -445.2003    181563.75   -13235.012    993.61857    -14228.63   -1008.4619    408.09913    78.662101    25.145929    16.286233 
   64000    239.41404   -452.15267    181563.75   -13287.011    984.83395   -14271.845   -1038.6585    408.07483    78.663845    25.151487    16.293392 
   64200    240.17905   -338.56071    181563.75   -13292.863    987.98081   -14280.844   -661.49735     413.3173    78.657793    25.156378     16.29272 
   64400    246.28492   -451.73453    181563.75   -13289.584    1013.0974   -14302.681   -1032.8238    415.89316    78.659661    25.161446    16.290189 
   64600    236.94507   -406.30206    181563.75   -13303.349    974.67778   -14278.027   -894.20007    416.65501    78.659493    25.165403     16.29518 
   64800    238.49135   -390.22552    181563.75   -13294.999    981.03842   -14276.038   -808.30238    419.27749     78.65688    25.167979    16.289815 
   65000    231.68983   -385.81712    181563.75   -13358.422    953.06024   -14311.482   -800.74556    418.63768    78.656663    25.167212    16.281427 
   65200    227.47762   -336.82256    181563.75   -13333.578    935.73325   -14269.311   -604.07957    420.80254     78.65872    25.167846    16.310247 
   65400    244.65192   -313.84202    181563.75   -13222.823      1006.38   -14229.203   -578.75486    425.10432    78.659142    25.165844    16.319442 
   65600    237.62577   -361.45788    181563.75   -13280.379    977.47784   -14257.857   -737.65378    431.17458    78.658959    25.162712    16.315659 
   65800     243.0767   -366.82095    181563.75   -13255.799    999.90035     -14255.7   -726.98502    432.60524    78.658414    25.159104    16.296941 
   66000    234.01907    -392.9712    181563.75   -13293.852    962.64161   -14256.494   -858.12201    433.20618    78.657708    25.155488    16.328086 
   66200    241.02598   -368.40448    181563.75   -13284.341    991.46468   -14275.806   -758.81501    430.71426    78.659614    25.153526    16.331259 
   66400    232.93998   -317.71803    181563.75   -13365.341    958.20279   -14323.544   -546.24808    430.73428    78.659755    25.151961    16.336567 
   66600    231.62771   -332.81976    181563.75   -13339.944    952.80472   -14292.748   -603.82231    428.71494    78.657824    25.148865    16.334125 
   66800    239.17495   -324.23737    181563.75   -13337.037    983.85041   -14320.888   -596.88029    429.18578    78.661137    25.150952    16.301133 
   67000    235.65818   -250.77037    181563.75   -13378.269    969.38415   -14347.653   -307.63417    427.91171    78.663466    25.157812    16.277898 
   67200      230.996   -377.89122    181563.75   -13366.818    950.20618   -14317.025   -735.15797    425.66145    78.665592    25.157878    16.256675 
   67400    238.89204   -304.59331    181563.75   -13316.691    982.68666   -14299.377   -524.89739    425.67674    78.663463    25.159772    16.246729 
   67600    234.76752   -427.20381    181563.75   -13347.681    965.72038   -14313.401   -975.39783    430.92591    78.665836    25.167313    16.226631 
   67800    247.08811   -220.08342    181563.75   -13327.219    1016.4013    -14343.62   -240.42771    432.95132       78.665    25.170099    16.229483 
   68000    240.27274   -489.59199    181563.75    -13304.45    988.36623   -14292.817   -1170.5517     433.6936     78.66292    25.172447    16.235737 
   68200    247.79561   -264.09021    181563.75   -13302.756    1019.3117   -14322.068   -409.87843    432.78541    78.667206     25.17384    16.238539 
   68400    243.92757    -460.2621    181563.75   -13246.244    1003.4004   -14249.644   -1058.9625    434.00999    78.668436    25.172846    16.234552 
   68600     230.4313   -379.18635    181563.75   -13316.443    947.88328   -14264.326    -753.6716    434.47313    78.669229    25.176253    16.256149 
   68800    247.83537   -372.08417    181563.75   -13247.255    1019.4752    -14266.73   -767.06007     434.6286    78.667936    25.175911    16.270846 
   69000    239.01403   -398.21415    181563.75   -13225.853     983.1885   -14209.042   -838.16869    432.14834     78.66215    25.174611    16.286132 
   69200    236.43713   -347.72122    181563.75    -13264.85    972.58837   -14237.438   -694.88499    434.65513    78.665626    25.173994    16.282979 
   69400    233.04678   -496.50845    181563.75   -13324.181    958.64208   -14282.823     -1204.07     438.8831    78.665262    25.173342    16.287311 
   69600    246.16552   -410.39949    181563.75   -13266.682    1012.6063   -14279.288   -913.63977    438.14645    78.666698    25.174653    16.283281 
   69800    244.84752   -189.73201    181563.75   -13266.552    1007.1846   -14273.737   -129.25193    436.93619    78.667117    25.174506    16.281241 
   70000    239.60705   -286.06621    181563.75   -13321.423    985.62788   -14307.051   -430.85795    438.27558    78.667518    25.171064    16.310067 
   70200    234.87847   -540.77955    181563.75   -13301.266    966.17677   -14267.442   -1375.6443    445.15607    78.669415    25.172169    16.325149 
   70400    245.27201   -218.70308    181563.75   -13288.753    1008.9308   -14297.684   -194.47821    446.51932    78.666444    25.173017    16.360898 
   70600    237.54401   -264.66221    181563.75   -13279.984    977.14153   -14257.126   -366.69275    447.70098    78.665388    25.175236    16.365904 
   70800    242.29019   -274.89866    181563.75   -13321.618    996.66501   -14318.283   -386.89029    444.82239     78.66585    25.175069    16.369752 
   71000    242.73644    -350.1024    181563.75    -13273.26     998.5007   -14271.761   -682.60763    446.30942    78.668256    25.182183    16.388875 
   71200    241.36154   -450.43678    181563.75   -13164.863    992.84501   -14157.708   -1065.2359    449.81923    78.666854     25.18619    16.378231 
   71400    245.82283   -270.57846    181563.75   -13318.627    1011.1966   -14329.824   -461.80567    449.34233    78.663784    25.184574    16.378793 
   71600    236.06982   -543.45402    181563.75   -13341.291    971.07741   -14312.369   -1375.5092    452.28628    78.666475    25.187507    16.362003 
   71800    245.33583    -350.2107    181563.75   -13340.843    1009.1933   -14350.036   -667.55193    449.60113    78.667597    25.188344    16.358318 
   72000    241.61938    -387.1831    181563.75   -13269.544    993.90564    -14263.45   -809.97216    452.93279    78.665549    25.186801    16.357644 
   72200    232.58916   -288.51155    181563.75   -13287.102    956.75968   -14243.862   -431.67957    458.15152    78.665099    25.185285    16.365918 
   72400    242.37599   -455.19537    181563.75   -13276.834    997.01797   -14273.852   -1095.9095     459.8687     78.66453    25.182404    16.359824 
   72600    240.43367   -402.34545    181563.75    -13275.39     989.0282   -14264.418   -828.11892    465.40243    78.663613    25.181364    16.344645 
   72800    242.52821   -241.89513    181563.75    -13339.98    997.64413   -14337.624    -294.1002    469.87889    78.663382    25.176285    16.367537 
   73000    247.33604      -289.43    181563.75   -13298.678    1017.4212   -14316.099   -448.31873     468.5018      78.6643    25.175622    16.346666 
   73200     235.4916   -262.61609    181563.75   -13246.204     968.6989   -14214.903   -394.61293    464.03576    78.664653    25.173753    16.342757 
   73400    237.06462   -308.18801    181563.75    -13294.35    975.16957   -14269.519   -535.16264    465.01264    78.667426    25.172735    16.369696 
   73600    236.76624   -336.28387    181563.75   -13257.413    973.94217   -14231.355   -667.17886      468.629    78.667253    25.172396    16.368406 
   73800    241.96628   -206.95839    181563.75   -13208.906    995.33263   -14204.238   -144.63385    469.81572    78.669218    25.170573    16.374272 
   74000     251.2151   -352.89102    181563.75    -13214.98    1033.3778   -14248.358   -688.45645    468.45777    78.669175    25.172306    16.354576 
   74200    242.01826   -577.25481    181563.75   -13221.828    995.54645   -14217.375   -1469.1681    468.46042    78.666102    25.173456     16.37236 
   74400    244.69645   -226.73808    181563.75   -13250.758    1006.5632   -14257.321   -201.24741    470.54787    78.668963    25.174551    16.348128 
   74600    246.65637   -341.05039    181563.75   -13257.482    1014.6254   -14272.107   -695.38573    473.20003    78.668784    25.170574    16.334077 
   74800    247.19478   -379.16916    181563.75   -13233.672    1016.8402   -14250.512   -806.37027    470.89923    78.667806    25.170644    16.332124 
   75000    235.84995   -442.04403    181563.75   -13261.626    970.17299   -14231.799    -1087.092    469.88258    78.663909    25.163981    16.327002 
   75200    243.28123   -412.49322    181563.75   -13259.106    1000.7417   -14259.847   -911.55634    471.06175    78.659933    25.158326    16.327341 
   75400    242.99593   -272.46202    181563.75   -13189.598    999.56809   -14189.166   -465.79318     469.7898    78.658181    25.155468    16.325558 
   75600    234.84908   -424.67022    181563.75   -13248.714    966.05588    -14214.77   -983.42278     468.9122    78.654469    25.152005    16.293072 
   75800    239.32652   -289.90256    181563.75   -13243.213    984.47392   -14227.687   -511.91984    467.51427    78.652892    25.154872    16.289447 
   76000    242.01209   -252.91887    181563.75   -13253.999    995.52107   -14249.521   -311.91636    467.10501    78.652259    25.155582    16.251399 
   76200    230.49756   -318.47176    181563.75   -13286.884    948.15585    -14235.04    -530.2048    464.25255    78.648809    25.155491    16.273227 
   76400    237.59374   -277.66749    181563.75    -13289.06    977.34611   -14266.406   -430.56608     465.1253    78.652822    25.154704    16.256301 
   76600    237.51272   -509.08101    181563.75   -13257.648    977.01283   -14234.661   -1241.3177    471.03373    78.653911    25.152489    16.229144 
   76800     241.7857   -354.54086    181563.75   -13240.677    994.58978   -14235.266   -708.41394      475.012    78.652784    25.153923    16.201893 
   77000    239.42797   -381.38333    181563.75   -13275.781    984.89124   -14260.672   -785.26031    476.13655    78.649474    25.155416    16.221714 
   77200    244.75015   -302.98009    181563.75   -13269.017    1006.7841   -14275.802   -489.41556    473.29206    78.651543    25.157256    16.227373 
   77400    246.06589   -405.39682    181563.75   -13238.487    1012.1964   -14250.683   -878.36169    477.36177     78.65223    25.158032    16.255005 
   77600    236.90563   -499.56231    181563.75   -13274.919    974.51556   -14249.434    -1197.566    482.98206    78.651178    25.156603    16.261108 
   77800     237.3504   -419.36428    181563.75   -13280.709    976.34511   -14257.054   -967.45282    489.60937    78.648779    25.160139    16.270345 
   78000    233.66702   -419.24346    181563.75   -13360.027    961.19348    -14321.22   -948.33443    489.16781     78.64901    25.158724    16.275492 
   78200    237.94319   -267.43639    181563.75   -13271.893    978.78355   -14250.677   -392.66155    492.46024    78.648235    25.156654    16.286377 
   78400    241.24261   -291.16992    181563.75   -13288.459    992.35578   -14280.815   -463.97402     497.6003    78.647812    25.157162    16.290025 
   78600       232.33   -320.67357    181563.75   -13358.368     955.6936   -14314.062   -569.01094    504.52233    78.648499    25.155978    16.257961 
   78800    235.99793   -424.88701    181563.75    -13334.44    970.78171   -14305.222   -969.82547    510.81973     78.64676    25.154781    16.252125 
   79000    244.45768   -435.94244    181563.75   -13297.547     1005.581   -14303.128   -945.17021    512.50779     78.64442    25.156928    16.275582 
   79200    240.67445   -362.34652    181563.75   -13247.589    990.01867   -14237.607   -741.78299    509.98687     78.64337     25.15792    16.271726 
   79400    232.27337   -288.13446    181563.75   -13286.909    955.46066    -14242.37   -429.63952    512.71264    78.643406    25.158624    16.279668 
   79600    236.16937   -460.71115    181563.75   -13265.189    971.48692   -14236.676   -1073.2628    520.48728    78.640223    25.158884    16.265598 
   79800    237.93033   -418.98457    181563.75   -13299.577    978.73068   -14278.308   -903.95133    522.31189    78.641421    25.158449    16.244018 
   80000    246.11787   -296.13935    181563.75    -13310.22    1012.4103   -14322.631   -504.48904    521.54021    78.641694    25.157413    16.242469 
   80200    243.48453   -401.32451    181563.75   -13269.884     1001.578   -14271.462   -849.18842    523.06389    78.636675    25.159304     16.26397 
   80400    245.77218   -519.36688    181563.75   -13315.236    1010.9882   -14326.224   -1302.6831    523.76626    78.635774    25.163591    16.267473 
   80600    243.92946   -332.66956    181563.75   -13237.284    1003.4082   -14240.692     -635.347    524.67801    78.637954    25.163399    16.255516 
   80800    247.69131   -389.22882    181563.75   -13271.125    1018.8826   -14290.008   -867.80505    529.49137    78.639355     25.16105    16.252633 
   81000    247.07635   -232.47979    181563.75   -13197.206     1016.353   -14213.559   -284.82127    532.43441    78.638586    25.154521    16.244836 
   81200    245.26149   -335.31488    181563.75   -13244.925    1008.8875   -14253.813   -685.46201     534.7744    78.638534    25.153688    16.234026 
   81400    241.89281   -459.21893    181563.75   -13288.714    995.03041   -14283.745   -1079.6582    534.06698    78.634887    25.152117    16.241834 
   81600    234.63863   -170.39581    181563.75   -13247.748    965.19021   -14212.939   -18.548259     535.5233    78.634379    25.152383    16.246479 
   81800    244.08895   -415.93812    181563.75   -13210.007    1004.0643   -14214.072   -920.36627    535.17518    78.633043    25.151095     16.23847 
   82000    245.02175   -467.79496    181563.75   -13177.665    1007.9013   -14185.567    -1123.268    540.36368    78.631636    25.149235    16.266546 
   82200    234.76291   -443.67188    181563.75   -13230.525    965.70142   -14196.227   -1031.0558    547.16972    78.629864    25.146284    16.246543 
   82400    237.24313   -374.89769    181563.75   -13292.147    975.90387    -14268.05   -795.61946    551.72107    78.631328    25.147739    16.290881 
   82600    238.19424   -474.31391    181563.75   -13305.374    979.81626    -14285.19    -1133.969    554.96921    78.631721    25.150447    16.288258 
   82800    242.39185   -303.94119    181563.75   -13282.224    997.08322   -14279.307   -507.85449    552.82687    78.634144     25.15168    16.274341 
   83000    235.80728   -425.17298    181563.75   -13264.854    969.99747   -14234.852   -1006.7839    550.34788    78.637104    25.153395    16.275637 
   83200    242.37963   -546.25635    181563.75   -13253.323    997.03296   -14250.356   -1392.9463    552.34175    78.637998    25.150228    16.283841 
   83400    239.45218   -544.86597    181563.75   -13294.714    984.99083   -14279.705   -1381.2302    560.44867    78.637846    25.147956    16.268774 
   83600    238.55619   -525.01578    181563.75   -13253.217    981.30516   -14234.522   -1280.6361    568.31836    78.637131    25.148627    16.279045 
   83800    235.19617   -286.81091    181563.75   -13344.491    967.48364   -14311.975   -493.20457    572.64518    78.638664     25.14587    16.292971 
   84000    236.98394   -340.27148    181563.75    -13360.03    974.83769   -14334.868   -638.80561    579.33996    78.638323    25.145375    16.280259 
   84200    234.20625   -484.03964    181563.75   -13377.563    963.41159   -14340.975    -1165.066    582.36506    78.637488    25.144753    16.245866 
   84400    239.48933   -324.43752    181563.75   -13332.647    985.14365    -14317.79   -584.11523     584.7161    78.637584    25.148269    16.243164 
   84600    244.61859   -222.95111    181563.75    -13277.05    1006.2429   -14283.293    -246.5069    585.52151    78.637888    25.150146    16.241168 
   84800    237.90862   -283.62923    181563.75   -13294.907    978.64137   -14273.549   -433.95562    585.18833    78.636693    25.152145    16.239921 
   85000    230.05667   -367.30906    181563.75   -13333.468    946.34221   -14279.811   -787.90465    588.42639    78.635932    25.153124    16.243424 
   85200    243.79649   -417.97259    181563.75    -13236.86    1002.8612   -14239.722   -894.28792    590.87078    78.631689    25.154391    16.267799 
   85400    238.67725   -218.11391    181563.75   -13289.248    981.80315   -14271.051    -228.5734    585.41778    78.631066    25.153512    16.270371 
   85600    240.25798   -341.16631    181563.75   -13299.359    988.30551   -14287.664   -629.39691    587.81409    78.628235    25.153346    16.276509 
   85800     247.4922   -361.33307    181563.75   -13260.701    1018.0636   -14278.765   -711.67134    590.50663     78.62847    25.157259    16.260933 
   86000    244.33652   -501.57186    181563.75    -13241.63    1005.0826   -14246.713   -1245.8119    596.25185    78.626991    25.155458    16.238453 
   86200      243.997   -457.23851    181563.75   -13293.861     1003.686   -14297.547   -1079.6396     593.4433    78.630563    25.153578    16.252159 
   86400    236.40896   -431.33317    181563.75   -13281.118     972.4725   -14253.591   -999.82935    598.70282    78.626673    25.156913    16.274849 
   86600    240.94665   -206.46319    181563.75   -13273.798    991.13837   -14264.936   -143.95486    604.33359    78.626805    25.158443    16.298769 
   86800    239.49332    -333.3293    181563.75   -13279.063    985.16004   -14264.223   -620.37434    601.56775    78.620791    25.158332    16.304012 
   87000    230.51978   -425.43085    181563.75   -13312.767    948.24723   -14261.015   -978.28876    595.88937     78.62219    25.162925    16.297159 
   87200    239.23788   -222.00751    181563.75   -13279.483    984.10929   -14263.593   -253.53825    595.69515    78.621637    25.166793    16.270606 
   87400    239.24007   -414.56475    181563.75   -13284.305     984.1183   -14268.423   -951.30973    599.48367     78.62095     25.16932    16.296908 
   87600    228.46585   -571.13261    181563.75   -13269.682    939.79835    -14209.48   -1509.2531    607.16944    78.618596    25.172487    16.292526 
   87800     238.1645   -304.72061    181563.75   -13278.986    979.69392    -14258.68   -559.75555    612.70421    78.617902    25.168564    16.271013 
   88000    242.21511   -486.19121    181563.75   -13227.369    996.35617   -14223.725   -1176.1656    623.67274     78.61726    25.167282    16.239166 
   88200    239.90634    -320.8098    181563.75   -13229.272    986.85901   -14216.131   -592.96311    629.47439    78.611847    25.163658    16.226856 
   88400    227.76292   -521.49464    181563.75   -13262.463    936.90686   -14199.369   -1308.6204    634.55802    78.608763    25.159632    16.189524 
   88600    240.42766   -284.24943    181563.75   -13305.698    989.00349   -14294.702   -496.29894    632.92241    78.607573    25.159331    16.178854 
   88800     236.6594   -333.80058    181563.75   -13331.401    973.50268   -14304.904   -597.16686    635.06234    78.606384    25.157973     16.15649 
   89000    238.58148   -462.75294    181563.75    -13357.29     981.4092     -14338.7   -1051.4518     633.1948    78.608953    25.155612    16.180149 
   89200    231.57063   -288.44267    181563.75   -13364.664    952.56991   -14317.234   -438.58266     634.1086     78.60663     25.15939    16.216054 
   89400    238.47592   -349.07297    181563.75     -13290.3    980.97494   -14271.275   -718.95071     637.0563    78.607763     25.16299    16.207356 
   89600    226.53133   -429.97745    181563.75   -13353.514    931.84069   -14285.355   -938.33297    639.44333    78.609444    25.163397    16.190328 
   89800    244.56131   -268.78075    181563.75    -13281.45    1006.0073   -14287.457   -388.61419    643.62954     78.60639    25.169309    16.183956 
   90000    245.61719   -211.51931    181563.75   -13256.342    1010.3507   -14266.693   -226.50314    637.06319    78.607697    25.171492    16.164355 
   90200    235.24594   -118.71508    181563.75   -13315.419    967.68837   -14283.107    125.00638    637.25733    78.610609    25.175392    16.178517 
   90400    236.41987   -422.69375    181563.75   -13361.449    972.51735   -14333.967    -982.4487    638.14078    78.611588    25.177426    16.189013 
   90600    235.77736   -426.32031    181563.75   -13267.909    969.87437   -14237.783    -980.0566    636.47785    78.613083    25.175362    16.183757 
   90800     241.7677   -411.92888    181563.75   -13226.176    994.51576   -14220.692   -884.09599    635.64857    78.614179    25.173777    16.163528 
   91000    242.02439    -382.8826    181563.75   -13280.718    995.57164   -14276.289   -809.43297    635.62348    78.613367     25.17687    16.190067 
   91200    242.18841   -306.39948    181563.75   -13263.767    996.24635   -14260.014   -526.61048    636.39598    78.616268    25.179362    16.182008 
   91400    235.32769   -492.88945    181563.75   -13337.236    968.02464   -14305.261   -1191.8851    639.14268    78.616711    25.179622    16.149749 
   91600    244.97087   -354.01595    181563.75   -13269.415    1007.6921   -14277.107   -731.89493    644.26695    78.618146    25.181908    16.146027 
   91800    243.31331   -212.80325    181563.75   -13303.507    1000.8736   -14304.381   -194.86741     652.9169    78.615548    25.179757    16.158727 
   92000    236.98707   -303.51883    181563.75   -13292.955    974.85056   -14267.806   -479.86923    656.93332    78.614871    25.180165    16.186094 
   92200    238.84416   -369.68674    181563.75    -13290.93    982.48972   -14273.419   -791.04677    651.11063       78.611     25.17887    16.193975 
   92400    245.52767   -330.97916    181563.75   -13225.159    1009.9825   -14235.142   -591.51521    649.42967    78.612075    25.178936    16.162034 
   92600    241.57401   -163.79197    181563.75   -13281.801    993.71899    -14275.52    -19.23151    652.75269     78.60998    25.180287    16.182637 
   92800    234.18354   -499.52512    181563.75   -13299.409    963.31819   -14262.727   -1261.6257    656.36019    78.610093    25.184417    16.215703 
   93000    234.70427   -404.26952    181563.75   -13319.311    965.46019   -14284.771   -854.79699    662.87596    78.608674    25.188342    16.228069 
   93200    240.97605   -401.67637    181563.75   -13288.499    991.25928   -14279.758   -895.84666    660.84737    78.605864    25.193398    16.219583 
   93400    238.75748   -479.02832    181563.75   -13281.674    982.13314   -14263.807    -1124.056    664.32187    78.605099    25.196613    16.220452 
   93600    248.66987   -357.45374    181563.75    -13271.61    1022.9079   -14294.518    -737.3448    666.20387    78.604853    25.195408    16.237899 
   93800    245.51485   -315.22441    181563.75   -13221.697    1009.9297   -14231.627   -582.68004    661.72198    78.601162    25.193136    16.262812 
   94000    242.28163   -428.41632    181563.75   -13267.705    996.62983   -14264.335   -973.98113    667.40771    78.598175    25.192946    16.250626 
   94200    241.01494    -251.5955    181563.75   -13213.553    991.41928   -14204.972   -335.54843    667.36913     78.59821    25.190727      16.2594 
   94400    247.28096   -280.05666    181563.75   -13209.737    1017.1946   -14226.932   -448.88098      668.815    78.599558    25.189656     16.27861 
   94600    251.34745   -335.43307    181563.75   -13217.287    1033.9222    -14251.21   -641.82866    668.48757    78.596131    25.188544    16.286834 
   94800    247.15283   -290.74751    181563.75   -13179.116    1016.6676   -14195.783   -473.43316    668.96051    78.591641    25.185572    16.297801 
   95000    241.19777   -460.18664    181563.75    -13280.35    992.17134   -14272.522   -1118.8225    665.71969    78.588532    25.192332    16.311246 
   95200    233.23845   -267.32767    181563.75   -13264.716    959.43055   -14224.146   -400.20259    661.58176    78.589581    25.194991    16.300635 
   95400    239.21026   -388.69982    181563.75   -13266.804    983.99567     -14250.8   -814.54843    663.15269    78.589658    25.194234    16.285371 
   95600    239.81345   -414.89892    181563.75   -13300.877    986.47691   -14287.354   -893.48586     665.6988    78.588614    25.192688    16.308233 
   95800    236.11144   -339.64371    181563.75   -13319.947    971.24861   -14291.196    -600.8063    666.87778    78.586225     25.19137    16.297923 
   96000    234.19323   -295.58715    181563.75   -13313.216    963.35802   -14276.574   -488.76027    672.13848     78.58238    25.196514    16.324918 
   96200    234.60789   -268.93482    181563.75   -13283.199    965.06373   -14248.263    -387.3268      676.141    78.585631    25.199228    16.314725 
   96400    240.56086   -322.39232    181563.75    -13285.01    989.55139   -14274.562   -548.12745    682.93811    78.583909    25.200043    16.314112 
   96600    227.70682   -180.26068    181563.75   -13307.967    936.67609   -14244.643   -90.258396    686.96967    78.588457    25.196877     16.31852 
   96800    238.32858   -163.57362    181563.75   -13240.107    980.36888   -14220.476   -28.644173     687.5737    78.590178    25.197925    16.324015 
   97000    246.17577   -450.30233    181563.75   -13261.454    1012.6484   -14274.102   -1056.3295    690.35049    78.586936    25.194961    16.347472 
   97200    244.12984    -320.3857    181563.75   -13226.453    1004.2325   -14230.686   -586.65475    692.46428    78.586706    25.189319    16.351878 
   97400    233.27354   -214.04775    181563.75   -13297.233    959.57487   -14256.808   -216.92643    691.70739    78.587543    25.182515    16.363463 
   97600    235.38651   -455.15228    181563.75   -13267.116    968.26662   -14235.382   -1018.3288    704.07499    78.588055    25.182749    16.342245 
   97800    243.31121   -315.60051    181563.75    -13286.55     1000.865   -14287.415   -544.81228    716.57404    78.590007     25.18127    16.318317 
   98000    232.74019   -343.78378    181563.75   -13336.875    957.38092   -14294.256   -689.00762    724.28492    78.589664    25.179644    16.339271 
   98200    241.51851   -396.51676    181563.75   -13331.162    993.49072   -14324.652   -861.01127     724.5239    78.592812    25.174368    16.336607 
   98400    246.69886   -348.08978    181563.75   -13311.348    1014.8002   -14326.148   -692.54688    720.38771    78.596399    25.175467    16.322989 
   98600    246.53634   -430.86785    181563.75   -13305.745    1014.1317   -14319.877   -1005.1753    716.73572    78.595766    25.177549    16.326582 
   98800    245.71151   -516.03171    181563.75   -13188.924    1010.7387   -14199.663   -1266.6877    718.77613    78.591538    25.177862    16.316035 
   99000    245.83461   -318.59584    181563.75   -13231.413    1011.2451   -14242.658   -600.26856     714.4468     78.58912    25.174764    16.307965 
   99200    240.31572   -373.47854    181563.75     -13227.9    988.54302   -14216.443   -774.21403    713.01514    78.586921    25.175163     16.33211 
   99400    247.94756   -309.63462    181563.75    -13214.68    1019.9367   -14234.617   -532.89652    716.82922    78.585504    25.176048    16.314423 
   99600    239.88802   -395.29385    181563.75   -13233.406    986.78365    -14220.19   -864.20296    718.56075    78.588732    25.174966    16.322369 
   99800    244.85189   -264.98296    181563.75   -13215.449    1007.2026   -14222.652   -332.97407    722.26317    78.586022    25.178219    16.292295 
  100000    251.07231   -326.18936    181563.75    -13276.72    1032.7904   -14309.511   -607.66722    725.44533    78.584237    25.180063    16.330088 
  100200    246.50229   -357.64414    181563.75   -13232.117    1013.9916   -14246.109   -694.67101    728.64151    78.589578    25.179296    16.342445 
  100400    235.86367    -490.8455    181563.75   -13282.127    970.22943   -14252.357   -1166.4522    729.38871    78.591895    25.178515    16.319958 
  100600    225.03703   -340.85466    181563.75   -13335.608    925.69384   -14261.301   -616.36349    728.89524    78.592841    25.175801     16.29909 
  100800    238.17235   -487.69334    181563.75   -13274.725    979.72622   -14254.451   -1156.4797    734.63314    78.588556    25.176306    16.313745 
[...]
 5175800    227.12961   -294.43554    181563.75    -14652.74    934.30172   -15587.042   -399.52565    4162.8645    79.198713    24.804062    16.325122 
 5176000    223.48962   -453.93714    181563.75   -14605.891    919.32855    -15525.22   -998.08684    4164.7004    79.199668    24.804425    16.322158 
 5176200    231.56056   -416.95528    181563.75    -14623.31     952.5285   -15575.838   -863.51896     4164.382    79.200502    24.804425    16.320082 
 5176400    226.30794   -285.59058    181563.75   -14665.173    930.92176   -15596.095    -394.5386    4162.7979    79.199697    24.803261    16.319978 
 5176600    223.26527   -363.82477    181563.75   -14613.583    918.40568   -15531.989   -641.61135    4165.0423     79.20065    24.803846    16.326059 
 5176800    225.85721   -352.54601    181563.75    -14640.92    929.06768   -15569.987   -627.71724    4165.2404    79.202066    24.804162    16.319524 
 5177000    227.34288   -320.22513    181563.75    -14654.69    935.17901   -15589.869   -533.43118     4163.436    79.202898    24.803805    16.321176 
 5177200    227.18368   -386.49106    181563.75   -14610.469    934.52414   -15544.993   -749.67045    4166.9181    79.203653    24.803448    16.318314 
 5177400    229.89907   -383.84903    181563.75   -14633.784    945.69394   -15579.478   -702.54514    4165.2966    79.203503    24.801996    16.317033 
 5177600    229.03518   -297.57138    181563.75   -14645.212    942.14032   -15587.352   -424.31685    4162.0314     79.20404    24.801977    16.318966 
 5177800    225.15795   -329.31597    181563.75   -14657.717    926.19127   -15583.908   -532.49753    4163.9649    79.203534    24.800696    16.316574 
 5178000    225.87677   -443.58868    181563.75   -14634.671    929.14813   -15563.819   -962.73417    4164.5488    79.202904    24.800379    16.317176 
 5178200    221.29523   -289.94654    181563.75   -14653.209    910.30188   -15563.511   -420.65734    4162.2335    79.205867    24.800835      16.3134 
 5178400    231.75239   -272.09952    181563.75   -14632.456     953.3176   -15585.774   -332.03453    4164.2125    79.206612    24.799263    16.319917 
 5178600    224.40718   -333.24918    181563.75   -14621.596    923.10294   -15544.699   -513.89228     4164.297    79.208092     24.79948    16.312312 
 5178800    231.38993   -319.23543    181563.75   -14596.016    951.82659   -15547.842    -459.8902    4164.0966    79.211058    24.801012    16.316007 
 5179000    228.38565   -272.51276    181563.75   -14591.917    939.46847   -15531.386   -345.25538    4162.3302    79.211851    24.801542    16.314874 
 5179200    223.41965   -354.80904    181563.75   -14627.985    919.04074   -15547.026   -659.07109    4164.6017    79.214057    24.801931    16.313161 
 5179400    230.63873   -345.75179    181563.75   -14636.304    948.73654   -15585.041   -579.59657    4167.0784    79.215199    24.802393    16.314028 
 5179600    221.44137   -365.68822    181563.75   -14653.464    910.90304   -15564.367   -651.64033    4164.6118    79.213995    24.799703    16.311666 
 5179800    238.18543   -346.74611    181563.75    -14617.05       979.78    -15596.83   -609.27169     4164.054    79.213593    24.800544    16.319777 
 5180000    216.47057   -384.23677    181563.75   -14650.988    890.45555   -15541.443   -714.33219    4166.5697    79.214737    24.799575    16.316597 
 5180200     228.0207   -341.09356    181563.75   -14634.825    937.96722   -15572.793   -577.44513    4164.5203    79.213902    24.797372    16.316428 
 5180400    231.53408   -250.40955    181563.75   -14616.485    952.41957   -15568.905   -254.93123    4163.5525    79.216013    24.796072    16.312805 
 5180600     223.0019   -379.31476    181563.75   -14673.479    917.32231   -15590.801   -731.82961    4164.0601    79.218459    24.796467    16.313038 
 5180800    224.95451   -379.51526    181563.75    -14643.13    925.35438   -15568.484   -661.92577    4167.2817     79.21894     24.79551    16.316507 
 5181000    219.94038    -278.6866    181563.75   -14654.067    904.72868   -15558.796   -343.05084    4162.1859    79.219493    24.794257    16.319643 
 5181200     227.1111   -254.30179    181563.75   -14626.717    934.22555   -15560.942   -271.99331    4163.5818     79.21969    24.793888    16.312647 
 5181400    222.84348   -443.99773    181563.75   -14608.545    916.67062   -15525.216   -932.14572    4167.5022    79.219414    24.793452     16.31126 
 5181600    225.76378   -406.21755    181563.75   -14615.058    928.68336   -15543.742   -787.34685    4162.7377    79.219708    24.793861    16.311467 
 5181800    227.38826   -286.78177    181563.75   -14593.573    935.36567   -15528.938   -405.31419    4163.3546    79.221726    24.792839    16.317433 
 5182000    227.01662   -419.72126    181563.75   -14666.142    933.83693   -15599.979   -847.90028    4164.3714    79.221773    24.789939     16.31707 
 5182200    214.35554   -422.79407    181563.75   -14741.069    881.75536   -15622.825   -911.75941    4165.3745    79.223001    24.789761     16.31298 
 5182400    231.22806   -266.21483    181563.75    -14640.34    951.16074     -15591.5   -331.35267     4164.082    79.222315    24.790179    16.314937 
 5182600    233.11403   -328.09191    181563.75   -14617.264    958.91875   -15576.183   -537.59968    4163.3585    79.223884    24.789644    16.319311 
 5182800    224.08419   -388.20327    181563.75   -14640.703    921.77433   -15562.477   -733.48567    4165.3989    79.225773    24.793005    16.313251 
 5183000    226.47752   -354.00137    181563.75   -14637.993    931.61933   -15569.612   -609.16443    4166.4957    79.224991    24.791951    16.311947 
 5183200    231.23432   -242.98711    181563.75   -14609.694    951.18649   -15560.881   -250.19308    4161.3712    79.224471    24.790808    16.310288 
 5183400    223.95584   -319.05742    181563.75   -14658.855    921.24634   -15580.101   -471.33657    4164.6552     79.22695    24.790913    16.311349 
 5183600    226.19075   -421.16448    181563.75   -14638.538    930.43971   -15568.978   -857.27681    4167.4036     79.22617    24.789306    16.312356 
 5183800    222.51785    -295.0242    181563.75    -14670.48    915.33117   -15585.811   -408.86492     4163.334    79.226713    24.789654    16.314608 
 5184000    225.75881   -370.21384    181563.75   -14654.399     928.6629   -15583.062   -710.75828    4162.8338    79.226701    24.789675    16.318097 
 5184200    223.39551   -348.19921    181563.75    -14639.17    918.94141   -15558.111   -555.49231    4165.1586    79.224284    24.788154    16.319164 
 5184400    224.46517   -381.76521    181563.75   -14648.416    923.34151   -15571.758    -727.9783    4163.3144    79.226824    24.788047    16.317127 
 5184600    231.56855    -233.1219    181563.75   -14625.679    952.56136    -15578.24   -201.26911    4164.2318    79.227475    24.788196     16.32112 
 5184800    233.60494    -307.9732    181563.75   -14583.868    960.93809   -15544.806   -474.34318    4163.6381    79.226953    24.786202    16.317608 
 5185000    233.68939   -350.26316    181563.75   -14581.001     961.2855   -15542.287   -610.54538    4165.3419     79.22829    24.787006     16.31656 
 5185200     224.1423   -293.24806    181563.75   -14629.581    922.01336   -15551.594   -391.69061    4163.0507    79.228497    24.787088    16.311223 
 5185400     221.6754   -296.21921    181563.75   -14638.506    911.86574   -15550.372   -449.86363    4161.4366    79.228184    24.785096    16.314391 
 5185600    220.18198   -383.54939    181563.75   -14689.624    905.72253   -15595.347   -737.28387    4163.9205    79.228964    24.785974    16.311922 
 5185800    221.62977   -429.64954    181563.75   -14630.901    911.67802   -15542.579   -875.23073    4166.1356    79.229552    24.786525    16.316194 
 5186000    231.08927   -283.35018    181563.75   -14598.201    950.58984   -15548.791   -368.61959    4160.9257    79.230321    24.786464    16.320797 
 5186200    234.24592   -284.58362    181563.75    -14581.93    963.57478   -15545.505   -393.10258    4164.6345     79.23085    24.786202    16.317905 
 5186400    220.61206   -370.26161    181563.75    -14641.58    907.49166   -15549.071   -678.31302     4164.931    79.231323    24.784516    16.325688 
 5186600    224.39364   -268.80872    181563.75    -14635.76    923.04723   -15558.807   -313.16867    4163.6966    79.231129    24.784654    16.317682 
 5186800    230.21606   -384.16559    181563.75   -14594.765    946.99786   -15541.763   -717.04496    4164.4636    79.230004     24.78432    16.319562 
 5187000    224.54087   -489.89712    181563.75   -14636.531    923.65287   -15560.184   -1125.6226    4167.1994    79.228911    24.781947    16.322905 
 5187200    228.17238   -323.88328    181563.75     -14625.4    938.59116   -15563.991   -506.52381    4162.4185    79.229969    24.781878    16.313548 
 5187400    213.36154   -267.50689    181563.75   -14668.803    877.66652    -15546.47    -344.7695    4164.2153    79.230837    24.781017     16.31136 
 5187600     223.2497   -456.21712    181563.75   -14646.327    918.34162   -15564.668   -987.72803    4167.6223    79.230055    24.779592     16.31765 
 5187800    231.65271   -352.42628    181563.75   -14630.842    952.90758   -15583.749   -647.07023    4163.3346    79.229481    24.777572     16.32137 
 5188000    220.61323   -239.30431    181563.75   -14655.437    907.49647   -15562.933   -229.22669    4163.3008    79.230591    24.778188    16.322338 
 5188200    228.68342   -386.26561    181563.75   -14627.564    940.69333   -15568.257   -747.75193    4167.1024     79.22822    24.776975    16.328406 
 5188400    226.71939   -392.61749    181563.75   -14645.647    932.61424   -15578.261   -781.54142    4164.8211    79.227558     24.77617    16.329345 
 5188600    220.55595   -241.79935    181563.75   -14667.296    907.26086   -15574.557   -228.34384    4163.5914    79.226751    24.775911     16.32602 
 5188800    230.27599   -328.92416    181563.75   -14617.398     947.2444   -15564.643   -554.05234    4164.8798    79.224859     24.77535    16.322105 
 5189000    233.63605   -346.50872    181563.75   -14635.417    961.06605   -15596.483   -581.27789    4165.2576    79.225845    24.773386    16.321796 
 5189200    230.09745   -326.79633    181563.75   -14617.939    946.50999   -15564.449   -510.97074    4164.1004    79.225226    24.775322    16.323519 
 5189400    219.99529    -280.8917    181563.75   -14633.195    904.95456   -15538.149    -344.8581    4161.6525    79.223655    24.775583    16.323294 
 5189600    228.11825   -435.41749    181563.75   -14648.817     938.3685   -15587.185   -897.19303    4166.9381    79.222984    24.774685     16.32318 
 5189800    228.87407   -462.85628    181563.75   -14651.997    941.47759   -15593.474   -1051.2997    4168.0273     79.22367    24.773391    16.325773 
 5190000    226.53305   -306.57121    181563.75   -14633.361    931.84776   -15565.209   -460.26493    4161.7603    79.224319    24.772053    16.318784 
 5190200    227.60911   -290.41116    181563.75   -14655.555    936.27413   -15591.829   -366.73619    4165.2232    79.224036    24.770384    16.311366 
 5190400    223.46017   -445.90833    181563.75   -14621.318    919.20742   -15540.526   -966.83712    4168.2527    79.221636    24.769166    16.323434 
 5190600    226.93308   -315.54774    181563.75   -14605.353    933.49328   -15538.846    -547.3166    4163.2702    79.220524     24.76642    16.324976 
 5190800    226.34664   -371.10255    181563.75   -14635.908    931.08093   -15566.989   -687.18342    4164.5814    79.219381    24.767211    16.329254 
 5191000    225.83933   -412.37916    181563.75   -14681.381    928.99411   -15610.375   -837.05858      4165.11    79.216741    24.765792    16.328136 
 5191200    222.70819   -316.95711    181563.75   -14660.241    916.11412   -15576.356   -473.08567    4164.4943    79.217076    24.765439    16.329307 
 5191400    230.26562   -251.80533    181563.75    -14639.22    947.20173   -15586.422   -265.65199    4163.5475    79.216451    24.764517    16.324442 
 5191600    222.13073   -445.03728    181563.75   -14635.014    913.73872   -15548.753   -975.63864    4163.6452    79.216603     24.76373    16.324331 
 5191800    218.88482   -309.72361    181563.75   -14653.546    900.38661   -15553.932   -452.15658    4165.7074      79.2184    24.764087    16.326708 
 5192000    233.23916   -381.10122    181563.75   -14616.898    959.43345   -15576.332   -732.10614    4164.9533    79.218859    24.764932    16.315422 
 5192200    228.02565   -382.46379    181563.75   -14563.759    937.98759   -15501.747   -751.66433    4162.8215    79.219454    24.766268    16.324781 
 5192400    239.18902   -303.90255    181563.75    -14564.24    983.90831   -15548.149   -431.78636    4164.9269    79.218869    24.766127    16.324301 
 5192600    227.65724   -349.65367    181563.75   -14634.221    936.47212   -15570.693   -617.06999    4165.8163    79.218299     24.76661    16.325803 
 5192800    224.94347   -375.53889    181563.75    -14652.79    925.30898   -15578.099   -733.76756     4165.265    79.219729    24.767471     16.32613 
 5193000    225.55062   -463.30178    181563.75   -14627.661    927.80649   -15555.468   -1041.4106    4166.1511     79.21965    24.766746    16.326659 
 5193200    228.54486   -269.27058    181563.75   -14623.752    940.12338   -15563.876   -292.39606    4164.3365    79.219775    24.766729    16.321422 
 5193400    220.06678   -358.14404    181563.75   -14692.594    905.24863   -15597.843   -612.33469     4163.224    79.221057     24.76833    16.321712 
 5193600    217.74072   -348.83516    181563.75   -14631.586    895.68032   -15527.266    -589.1824    4165.9655    79.223426    24.769293     16.32149 
 5193800    224.98934   -382.37237    181563.75   -14663.651    925.49769   -15589.149   -765.75825    4163.4092    79.225552    24.769329    16.325755 
 5194000    221.44833   -231.63656    181563.75   -14606.012    910.93166   -15516.943   -187.75541    4161.7716    79.223815     24.76897    16.334304 
 5194200    227.08233   -321.38927    181563.75   -14631.999    934.10721   -15566.106   -468.60642    4163.9151    79.224014    24.768068    16.332055 
 5194400    236.26968   -386.78225    181563.75   -14600.254    971.89954   -15572.154   -746.45045    4166.0425    79.225866    24.767371    16.325352 
 5194600    228.89042   -342.67489    181563.75    -14643.73    941.54484   -15585.275   -616.11603    4163.5097    79.226002    24.766526    16.312099 
 5194800    238.35123   -335.16598    181563.75   -14603.215    980.46204   -15583.677   -525.53258    4163.0445    79.225207    24.764962    16.329759 
 5195000    229.55097    -377.2489    181563.75   -14613.171    944.26202   -15557.433   -714.65401    4162.7063     79.22398    24.765231    16.325492 
 5195200    223.96435   -355.73251    181563.75   -14653.309    921.28134    -15574.59   -627.30478    4162.8951    79.223167    24.764555    16.326204 
 5195400     222.5934   -294.17529    181563.75   -14627.243    915.64193   -15542.885    -425.2832    4163.7136    79.223842    24.766432    16.324271 
 5195600    227.82345   -363.98528    181563.75   -14626.088    937.15583   -15563.244   -652.76211    4164.5495    79.223467    24.765614    16.325086 
 5195800    224.82619   -355.37991    181563.75   -14638.406    924.82656   -15563.232   -590.24863    4163.4051    79.223274    24.765558    16.324929 
 5196000    232.08802   -343.64293    181563.75    -14595.89    954.69821   -15550.589   -581.20424    4163.7821    79.224828    24.767646    16.325849 
 5196200    232.31103   -380.07206    181563.75    -14623.22    955.61557   -15578.836   -724.21907    4163.3166    79.224915    24.766812    16.319356 
 5196400    233.41264   -378.59595    181563.75   -14580.256    960.14705   -15540.403   -706.42735    4164.5046    79.224142    24.766023    16.313929 
 5196600    217.91411   -400.97659    181563.75   -14664.444     896.3936   -15560.838   -780.38232     4164.217    79.224578    24.766541    16.320036 
 5196800    226.21033   -374.35274    181563.75   -14650.775    930.52025   -15581.295   -718.76125    4164.0886    79.226636    24.768113    16.316299 
 5197000    230.07137   -352.18854    181563.75   -14623.176     946.4027   -15569.579   -615.47533    4162.3642     79.22707     24.76797    16.319707 
 5197200    220.92774    -338.1543    181563.75   -14631.955    908.79022   -15540.745   -568.52248    4163.9822    79.228562     24.76861    16.313993 
 5197400    236.46597   -309.37084    181563.75   -14565.364    972.70697   -15538.071   -453.80698    4163.7637    79.228352    24.769958    16.310425 
 5197600    229.89391   -371.16294    181563.75   -14602.383    945.67271   -15548.056   -652.54245    4161.9359    79.228513    24.769559    16.318807 
 5197800    228.50551   -419.87973    181563.75   -14599.585    939.96151   -15539.547   -892.69965    4165.5853    79.227955    24.771223     16.31544 
 5198000    229.24567   -360.48196    181563.75   -14570.636    943.00618   -15513.642   -659.20307    4165.5119    79.227766    24.771606    16.319415 
 5198200    231.55534    -290.2018    181563.75   -14606.167    952.50701   -15558.674   -387.49613     4163.101    79.227373      24.7735    16.320942 
 5198400    225.37147   -389.51095    181563.75   -14628.819    927.06958   -15555.888   -705.59351    4165.1317    79.226538    24.774535    16.320393 
 5198600    222.85501   -340.40617    181563.75   -14617.435    916.71805   -15534.153   -580.76476     4165.287    79.225954    24.775725    16.315971 
 5198800    224.25378   -254.58346    181563.75   -14659.858    922.47195   -15582.329   -246.26966    4161.4648    79.224838     24.77546    16.314554 
 5199000    220.58094    -407.1678    181563.75   -14628.256    907.36365   -15535.619   -808.46481    4163.7249    79.225898    24.775472    16.316126 
 5199200    223.71719    -355.4369    181563.75   -14636.639    920.26465   -15556.903    -599.5497    4165.4693    79.225575     24.77356     16.31333 
 5199400    221.34106   -354.66476    181563.75   -14662.241     910.4904   -15572.732   -634.52124    4163.9646    79.223512     24.77172     16.31679 
 5199600     224.4538   -353.44566    181563.75   -14663.144    923.29472   -15586.439   -658.57979    4163.2896    79.222898    24.772213    16.317384 
 5199800     225.4136   -327.47467    181563.75   -14611.395    927.24288   -15538.638   -512.91289    4165.4205    79.220972    24.771563    16.321988 
 5200000    230.64654   -266.41064    181563.75   -14611.005    948.76866   -15559.774   -313.12747    4162.5208     79.21941    24.770192     16.31712 
Loop time of 6398.89 on 128 procs for 5200000 steps with 9253 atoms

Performance: 702.122 ns/day, 0.034 hours/ns, 812.642 timesteps/s
97.7% CPU use with 128 MPI tasks x no OpenMP threads

MPI task timing breakdown:
Section |  min time  |  avg time  |  max time  |%varavg| %total
---------------------------------------------------------------
Pair    | 0.44191    | 1618.5     | 5314.6     |4600.6 | 25.29
Neigh   | 4.1903     | 109.67     | 272.14     | 845.0 |  1.71
Comm    | 94.973     | 1116.2     | 4265.5     |3458.7 | 17.44
Output  | 72.978     | 73.021     | 73.234     |   0.3 |  1.14
Modify  | 213.4      | 3408.3     | 6162.3     |4343.8 | 53.26
Other   |            | 73.06      |            |       |  1.14

Nlocal:    72.2891 ave 149 max 0 min
Histogram: 40 0 10 14 0 0 0 13 40 11
Nghost:    703.586 ave 958 max 516 min
Histogram: 26 8 5 33 10 5 8 14 4 15
Neighs:    0 ave 0 max 0 min
Histogram: 128 0 0 0 0 0 0 0 0 0
FullNghs:  7771.78 ave 18201 max 0 min
Histogram: 42 22 0 0 0 0 2 30 23 9

Total # of neighbors = 994788
Ave neighs/atom = 107.51
Neighbor list builds = 516249
Dangerous builds = 0
write_data 		${DIR}/data.${NAME}_run
write_data 		run_10/data.${NAME}_run
write_data 		run_10/data.ibeam_cooling_10_run
Total wall time: 1:46:52
