
### Dimensions ###


### IMPORT ATOMS ###
read_data ../Box_Setup/data.Ibeam_240K
  orthogonal box = (0 0 0) to (157.504 36.4877 39.8503)
  10 by 2 by 3 MPI processor grid
  reading atoms ...
  8943 atoms
  reading velocities ...
  8943 velocities
group water type 2
2223 atoms in group water
group graphite type 1
6720 atoms in group graphite


# Define potential
#
pair_style          sw
pair_coeff * * MLC_e.sw C mW

# Add velocity/set timestep
#

fix		1 graphite setforce 0.0 0.0 0.0
velocity 	graphite set 0.0 0.0 0.0
velocity            water create ${START_TEMP} ${SEED} rot yes dist gaussian
velocity            water create 235 ${SEED} rot yes dist gaussian
velocity            water create 235 25593 rot yes dist gaussian
timestep            5.0

# Define output
#
compute 1 water msd
compute 2 water temp


thermo	            100
thermo_style custom step c_2 press vol etotal ke pe c_1[4] density

# Neighbor lists
#
neigh_modify        delay 0 every 1 check yes


# Set fixes
#
fix                 2 water momentum 10 linear 1 1 1 rescale
fix                 3 all nve
fix                 4 water temp/csvr ${START_TEMP} ${START_TEMP} 500.0 928347
fix                 4 water temp/csvr 235 ${START_TEMP} 500.0 928347
fix                 4 water temp/csvr 235 235 500.0 928347

# Run 0.05 ns equilibration
#
dump                1 all custom 100 ${DIR}/eq.${NAME}.dump id type x y z vx vy vz
dump                1 all custom 100 run_1/eq.${NAME}.dump id type x y z vx vy vz
dump                1 all custom 100 run_1/eq.ibeam_cooling_1.dump id type x y z vx vy vz
run                 10000
Neighbor list info ...
  update every 1 steps, delay 0 steps, check yes
  max neighbors/atom: 2000, page size: 100000
  master list distance cutoff = 6.67472
  ghost atom cutoff = 6.67472
  binsize = 3.33736, bins = 48 11 12
  1 neighbor lists, perpetual/occasional/extra = 1 0 0
  (1) pair sw, perpetual
      attributes: full, newton on
      pair build: full/bin/atomonly
      stencil: full/bin/3d
      bin: standard
Per MPI rank memory allocation (min/avg/max) = 3.374 | 4.219 | 4.781 Mbytes
Step c_2 Press Volume TotEng KinEng PotEng c_1[4] Density 
       0          235    -169.9624    229018.04   -21244.698    1556.4896   -22801.188            0   0.87555383 
     100    244.99935   -272.16612    229018.04    -21228.49    1622.7189   -22851.209    0.8499225   0.87555383 
     200    237.49533   -392.47173    229018.04   -21287.413    1573.0171   -22860.431    1.2458033   0.87555383 
     300    237.41887   -423.00761    229018.04   -21282.887    1572.5106   -22855.398    1.4837614   0.87555383 
     400    234.26157   -304.00896    229018.04   -21295.497    1551.5987   -22847.096    1.7471551   0.87555383 
     500    238.88304   -314.65566    229018.04   -21300.328    1582.2083   -22882.537    2.0780329   0.87555383 
     600    226.09505   -346.06847    229018.04   -21393.028    1497.5089   -22890.537    2.2810222   0.87555383 
     700    233.98382   -293.72186    229018.04   -21366.454    1549.7591   -22916.213    2.5835961   0.87555383 
     800    229.61121   -330.15949    229018.04   -21411.621    1520.7977   -22932.419    2.9174261   0.87555383 
     900    232.03499   -277.16142    229018.04   -21363.257    1536.8512   -22900.108    3.2753481   0.87555383 
    1000    239.55713   -139.66582    229018.04   -21305.942    1586.6731   -22892.615    3.5803013   0.87555383 
    1100    233.19082   -170.77222    229018.04   -21323.493    1544.5067       -22868    3.7495975   0.87555383 
    1200    229.50317   -240.20594    229018.04   -21377.519    1520.0821   -22897.601    4.0005118   0.87555383 
    1300    233.85342    -364.0697    229018.04   -21341.471    1548.8953   -22890.366    4.2322963   0.87555383 
    1400    233.89534   -215.24957    229018.04   -21273.288    1549.1731   -22822.461    4.7062543   0.87555383 
    1500    238.68307   -159.20693    229018.04   -21287.572    1580.8839   -22868.456    5.1327489   0.87555383 
    1600    238.77026   -322.36755    229018.04   -21270.037    1581.4614   -22851.498    5.3965755   0.87555383 
    1700    237.54474   -184.72353    229018.04   -21291.875    1573.3443    -22865.22    5.6657031   0.87555383 
    1800    232.35739   -294.88288    229018.04   -21305.541    1538.9866   -22844.528    6.0968976   0.87555383 
    1900    235.15144   -391.53806    229018.04   -21228.622    1557.4926   -22786.115    6.4277798   0.87555383 
    2000    243.08492   -345.62961    229018.04   -21195.244    1610.0389   -22805.283    6.9715709   0.87555383 
    2100    242.88541   -214.63915    229018.04   -21221.029    1608.7175   -22829.747    7.3292085   0.87555383 
    2200    244.31107   -361.71679    229018.04   -21225.315    1618.1602   -22843.475    7.7168486   0.87555383 
    2300    239.30988   -404.50428    229018.04   -21272.624    1585.0355    -22857.66    8.1792346   0.87555383 
    2400    236.49042   -36.267837    229018.04     -21260.2    1566.3612   -22826.561     8.520065   0.87555383 
    2500    240.18036   -251.05678    229018.04   -21231.479     1590.801    -22822.28    8.9425632   0.87555383 
    2600    239.05061   -285.81765    229018.04   -21269.539    1583.3182   -22852.858    9.2778059   0.87555383 
    2700    239.85639   -409.24793    229018.04   -21252.714    1588.6552   -22841.369    9.4605249   0.87555383 
    2800    236.97577   -312.76248    229018.04   -21264.678    1569.5758   -22834.254    9.7504966   0.87555383 
    2900    234.52321   -231.30045    229018.04   -21342.998    1553.3316    -22896.33    10.112696   0.87555383 
    3000    230.47876   -368.51939    229018.04   -21355.476    1526.5438   -22882.019    10.464317   0.87555383 
    3100    231.34167   -403.55315    229018.04   -21350.646    1532.2591   -22882.905    10.806856   0.87555383 
    3200    230.54467   -301.32661    229018.04   -21379.506    1526.9803   -22906.487    11.270321   0.87555383 
    3300    239.97487   -241.15822    229018.04   -21341.432      1589.44   -22930.872    11.722197   0.87555383 
    3400    235.05395   -408.36313    229018.04   -21345.996    1556.8469   -22902.843    12.037012   0.87555383 
    3500    233.65262   -144.35578    229018.04   -21358.368    1547.5654   -22905.933     12.33698   0.87555383 
    3600    231.39986   -257.01849    229018.04   -21363.477    1532.6446   -22896.122     12.52135   0.87555383 
    3700     234.4873   -318.89627    229018.04    -21398.08    1553.0938   -22951.174    12.617609   0.87555383 
    3800    230.21121   -289.30815    229018.04    -21404.41    1524.7717   -22929.182    12.579608   0.87555383 
    3900    235.58254   -278.85057    229018.04   -21402.051    1560.3479   -22962.399    12.880875   0.87555383 
    4000     230.7544     -319.426    229018.04   -21426.947    1528.3695   -22955.316    13.236916   0.87555383 
    4100    230.43199    -322.9362    229018.04   -21376.321     1526.234   -22902.555    13.451619   0.87555383 
    4200    233.64912    -242.8149    229018.04   -21348.985    1547.5422   -22896.527    13.605926   0.87555383 
    4300    239.66504   -229.04862    229018.04    -21263.49    1587.3878   -22850.878    13.936315   0.87555383 
    4400    240.32658   -139.21929    229018.04   -21271.286    1591.7695   -22863.055    14.031322   0.87555383 
    4500    235.52089   -369.60984    229018.04   -21308.092    1559.9396   -22868.031    14.165235   0.87555383 
    4600    233.58261    -208.6078    229018.04   -21331.981    1547.1017   -22879.082    14.503055   0.87555383 
    4700    234.20341   -156.19423    229018.04   -21374.481    1551.2135   -22925.694    14.826555   0.87555383 
    4800    236.63876   -176.72303    229018.04    -21343.31    1567.3437   -22910.653    15.217149   0.87555383 
    4900    240.81248   -310.61293    229018.04    -21360.33    1594.9878   -22955.318    15.363422   0.87555383 
    5000    234.02112   -318.82357    229018.04    -21380.03    1550.0061   -22930.036    15.606274   0.87555383 
    5100    231.10517   -133.00037    229018.04   -21380.199    1530.6927   -22910.892    15.918873   0.87555383 
    5200    229.39246   -246.84547    229018.04   -21340.611    1519.3488    -22859.96    16.298515   0.87555383 
    5300    228.44692   -171.54104    229018.04   -21384.999    1513.0862   -22898.085    16.787808   0.87555383 
    5400    236.28591   -337.69717    229018.04   -21354.415    1565.0066   -22919.421    16.967368   0.87555383 
    5500    228.49236   -312.17817    229018.04    -21396.87    1513.3872   -22910.257    17.386456   0.87555383 
    5600    234.14128   -244.81511    229018.04   -21411.044     1550.802   -22961.846    17.787323   0.87555383 
    5700    233.59197   -211.52176    229018.04   -21387.932    1547.1637   -22935.096    17.896395   0.87555383 
    5800    242.03178   -321.03984    229018.04   -21310.083    1603.0636   -22913.146    18.279146   0.87555383 
    5900    235.22383   -308.29308    229018.04   -21336.777    1557.9721   -22894.749    18.599612   0.87555383 
    6000    225.41722   -422.45782    229018.04    -21427.05    1493.0194    -22920.07    18.819523   0.87555383 
    6100     233.6793   -322.72351    229018.04    -21407.28    1547.7421   -22955.022    19.048994   0.87555383 
    6200    242.85176   -191.06355    229018.04   -21383.201    1608.4946   -22991.696    19.357166   0.87555383 
    6300    238.38819   -270.01007    229018.04   -21335.402    1578.9308   -22914.333    19.571253   0.87555383 
    6400    237.11158   -212.02569    229018.04   -21315.999    1570.4753   -22886.474    19.777814   0.87555383 
    6500    236.83198   -260.06856    229018.04   -21333.169    1568.6234   -22901.792    20.045762   0.87555383 
    6600    231.17142   -268.54718    229018.04   -21375.714    1531.1316   -22906.845    20.121175   0.87555383 
    6700    232.76454   -321.87678    229018.04   -21422.501    1541.6833   -22964.184    20.404635   0.87555383 
    6800     233.9601   -359.18852    229018.04   -21380.835    1549.6019   -22930.437    20.277092   0.87555383 
    6900    233.06053   -320.35821    229018.04   -21415.439    1543.6438   -22959.083    20.680619   0.87555383 
    7000    226.33923   -256.88071    229018.04    -21433.24    1499.1262   -22932.366    20.934445   0.87555383 
    7100     231.4184   -121.67325    229018.04   -21355.551    1532.7674   -22888.318    21.458736   0.87555383 
    7200    232.32883   -113.98182    229018.04   -21350.708    1538.7975   -22889.505    21.858359   0.87555383 
    7300    230.42346   -340.19163    229018.04   -21419.516    1526.1775   -22945.693    22.065287   0.87555383 
    7400     236.2168   -304.04542    229018.04   -21428.571    1564.5489    -22993.12    22.426173   0.87555383 
    7500    234.40902   -298.04602    229018.04   -21443.105    1552.5753    -22995.68    22.734265   0.87555383 
    7600    227.01532   -316.43469    229018.04   -21457.754    1503.6042   -22961.358    23.134226   0.87555383 
    7700    230.73602   -170.56946    229018.04   -21428.102    1528.2477    -22956.35    23.489776   0.87555383 
    7800    231.96842   -304.83237    229018.04   -21382.422    1536.4104   -22918.832    23.725829   0.87555383 
    7900    238.35087   -404.33439    229018.04   -21360.655    1578.6836   -22939.339    24.338955   0.87555383 
    8000    232.22754   -415.37648    229018.04    -21348.19    1538.1266   -22886.317    24.536176   0.87555383 
    8100    236.61785    -238.1929    229018.04   -21385.281    1567.2052   -22952.487    24.743791   0.87555383 
    8200    233.15482   -233.25121    229018.04   -21421.308    1544.2683   -22965.576    24.606173   0.87555383 
    8300    231.65457   -225.58228    229018.04    -21429.48    1534.3316   -22963.812    24.872094   0.87555383 
    8400    226.93548   -173.56759    229018.04   -21422.587    1503.0753   -22925.663     25.02579   0.87555383 
    8500    235.85069   -142.46593    229018.04   -21418.253     1562.124   -22980.377    25.284849   0.87555383 
    8600    239.91291   -418.21931    229018.04   -21367.967    1589.0296   -22956.997    25.519358   0.87555383 
    8700    229.37798   -282.07299    229018.04   -21441.169    1519.2529   -22960.422    25.694035   0.87555383 
    8800    235.89748   -306.29318    229018.04   -21384.317    1562.4339   -22946.751    25.926166   0.87555383 
    8900    228.82741   -284.20351    229018.04   -21406.833    1515.6063   -22922.439    25.839135   0.87555383 
    9000    234.80371   -272.50376    229018.04   -21356.026    1555.1895   -22911.215    25.886771   0.87555383 
    9100      236.232   -358.16575    229018.04   -21348.288    1564.6495   -22912.938    26.108878   0.87555383 
    9200    230.69496   -158.07284    229018.04   -21394.531    1527.9758   -22922.507    26.429067   0.87555383 
    9300    228.74738   -390.28731    229018.04   -21421.885    1515.0762   -22936.961    26.747702   0.87555383 
    9400    231.56411   -353.99056    229018.04   -21446.524    1533.7324   -22980.256    26.891355   0.87555383 
    9500    234.03215   -196.47306    229018.04   -21406.243    1550.0791   -22956.323    27.074285   0.87555383 
    9600    235.84831   -183.91229    229018.04   -21469.553    1562.1082   -23031.661    27.573165   0.87555383 
    9700    231.24909    -368.8544    229018.04   -21418.031     1531.646   -22949.677    28.001978   0.87555383 
    9800    233.43445   -262.32641    229018.04   -21421.743    1546.1204   -22967.864    28.234474   0.87555383 
    9900    233.30684   -361.19771    229018.04    -21362.45    1545.2752   -22907.726    28.772742   0.87555383 
   10000    240.34198   -320.58767    229018.04    -21277.57    1591.8714   -22869.441    29.089206   0.87555383 
Loop time of 30.4494 on 60 procs for 10000 steps with 8943 atoms

Performance: 141.875 ns/day, 0.169 hours/ns, 328.414 timesteps/s
98.1% CPU use with 60 MPI tasks x no OpenMP threads

MPI task timing breakdown:
Section |  min time  |  avg time  |  max time  |%varavg| %total
---------------------------------------------------------------
Pair    | 0.00068808 | 8.1582     | 26.932     | 360.6 | 26.79
Neigh   | 0.0029333  | 0.25462    | 0.74375    |  53.1 |  0.84
Comm    | 0.19768    | 9.1938     | 26.049     | 340.2 | 30.19
Output  | 0.15746    | 0.15767    | 0.16458    |   0.2 |  0.52
Modify  | 0.30687    | 12.594     | 29.984     | 376.8 | 41.36
Other   |            | 0.09161    |            |       |  0.30

Nlocal:    149.05 ave 375 max 0 min
Histogram: 24 0 3 13 0 0 0 0 4 16
Nghost:    818.9 ave 1299 max 360 min
Histogram: 9 3 0 4 21 3 4 4 4 8
Neighs:    0 ave 0 max 0 min
Histogram: 60 0 0 0 0 0 0 0 0 0
FullNghs:  15014.4 ave 45273 max 0 min
Histogram: 27 13 0 0 0 0 0 2 10 8

Total # of neighbors = 900866
Ave neighs/atom = 100.734
Neighbor list builds = 565
Dangerous builds = 0
write_data 	    ${DIR}/data.${NAME}_eq
write_data 	    run_1/data.${NAME}_eq
write_data 	    run_1/data.ibeam_cooling_1_eq

undump              1
unfix               4



################################################
#######         Run Simulation         #########
################################################

reset_timestep      0
timestep	    10.0
log                 ${DIR}/log.run_${NAME}
log                 run_1/log.run_${NAME}
log                 run_1/log.run_ibeam_cooling_1
