
# Set production fixes - Nose/Hoover
#
fix                 4 water temp/csvr ${START_TEMP} ${END_TEMP} 500.0 928347
fix                 4 water temp/csvr 235 ${END_TEMP} 500.0 928347
fix                 4 water temp/csvr 235 225 500.0 928347


## divide "droplet" into core and surface
#region		core_reg cylinder z 135 135 44.6 20 INF units box
#region		surface_reg cylinder z 135 135 44.6 20 INF units box side out
#group		core dynamic all region core_reg
#group		surface dynamic all region surface_reg

## compute pressure core
#compute        peratom_core core stress/atom NULL
#compute        p_core core reduce sum c_peratom_core[1] c_peratom_core[2] c_peratom_core[3]
#variable       press_core equal -(c_p_core[1]+c_p_core[2]+c_p_core[3])/(3*1249982.5)


## compute pressure surface
#compute        peratom_surf surface stress/atom NULL
#compute        p_surf surface reduce sum c_peratom_surf[1] c_peratom_surf[2] #c_peratom_surf[3]
#variable       press_surf equal -(c_p_surf[1]+c_p_surf[2]+c_p_surf[3])/(3*42395)

## compute total pressure of drop
compute        peratom water stress/atom NULL
compute        p water reduce sum c_peratom[1] c_peratom[2] c_peratom[3]
variable       press equal -(c_p[1]+c_p[2]+c_p[3])/(3*58301)


# compute order parameter
compute        3 all orientorder/atom nnn NULL cutoff 3.5

# compute center of mass of bridge
compute 	4 water com

# Run simulation
thermo_style        custom step c_2 press vol etotal ke pe v_press c_1[4] c_4[*]
thermo              200
dump		     1 water custom 400 ${DIR}/prod.${NAME}.dump id type x y z vx vy vz c_3[*] c_peratom[*]
dump		     1 water custom 400 run_1/prod.${NAME}.dump id type x y z vx vy vz c_3[*] c_peratom[*]
dump		     1 water custom 400 run_1/prod.ibeam_cooling_1.dump id type x y z vx vy vz c_3[*] c_peratom[*]
run                 ${STEPS}
run                 4000000
Neighbor list info ...
  update every 1 steps, delay 0 steps, check yes
  max neighbors/atom: 2000, page size: 100000
  master list distance cutoff = 6.67472
  ghost atom cutoff = 6.67472
  binsize = 3.33736, bins = 48 11 12
  2 neighbor lists, perpetual/occasional/extra = 1 1 0
  (1) pair sw, perpetual
      attributes: full, newton on
      pair build: full/bin/atomonly
      stencil: full/bin/3d
      bin: standard
  (2) compute orientorder/atom, occasional, copy from (1)
      attributes: full, newton on
      pair build: copy
      stencil: none
      bin: none
Per MPI rank memory allocation (min/avg/max) = 6.146 | 6.791 | 7.318 Mbytes
Step c_2 Press Volume TotEng KinEng PotEng v_press c_1[4] c_4[1] c_4[2] c_4[3] 
       0    240.34198   -320.58767    229018.04    -21277.57    1591.8714   -22869.441   -748.12509    29.089206    78.604263    15.913058    29.674589 
     200    232.01742   -380.59834    229018.04   -21311.454    1536.7349   -22848.189   -1015.0863    30.028337    78.603203    15.911576    29.664152 
     400    226.34834   -279.79188    229018.04   -21298.775    1499.1865   -22797.961   -602.65915    30.951644    78.602576    15.908852    29.661179 
     600    224.90744   -249.05635    229018.04   -21406.703    1489.6429   -22896.346   -450.77162    32.448075     78.60377    15.909844    29.648191 
     800    230.83352   -314.20501    229018.04   -21406.417    1528.8935    -22935.31   -699.54366    33.385033    78.602404    15.910474    29.650421 
    1000    236.25468   -217.66956    229018.04   -21272.226    1564.7998   -22837.026    -359.7897    34.571872     78.60224    15.910833    29.644676 
    1200      231.604   -353.71987    229018.04   -21352.275    1533.9967   -22886.272   -932.82913    35.594325    78.602521    15.912618    29.638902 
    1400    241.43636   -268.29381    229018.04   -21231.256    1599.1199   -22830.376   -579.23456    36.824533    78.601368    15.914241    29.649345 
    1600    235.96977   -308.79668    229018.04   -21223.372    1562.9127   -22786.285   -695.63479    38.143984    78.600349    15.915859    29.650962 
    1800    233.41511   -301.07698    229018.04   -21236.346    1545.9923   -22782.338   -683.78324    39.462824    78.602853    15.916556    29.636694 
    2000    243.85993   -221.44496    229018.04   -21125.748    1615.1721    -22740.92   -382.28007    41.597089    78.602608    15.917063    29.643999 
    2200    239.68104   -262.95729    229018.04   -21164.734    1587.4938   -22752.227   -531.06672    42.033316     78.60322    15.917137    29.626994 
    2400     238.4318    -241.7106    229018.04   -21200.973    1579.2196   -22780.193   -434.70239    42.892859    78.603757    15.916849    29.624035 
    2600    234.19297   -325.62171    229018.04   -21249.091    1551.1443   -22800.235   -764.79619     43.37264    78.604347    15.915393     29.61951 
    2800    241.35289   -125.49752    229018.04   -21212.963     1598.567    -22811.53   -30.935964    43.972895    78.605051    15.916338     29.60006 
    3000    229.37921   -323.03974    229018.04   -21304.674    1519.2611   -22823.935   -808.66415    44.562252    78.603635    15.915287    29.602529 
    3200    231.13457   -422.58942    229018.04   -21296.113    1530.8874       -22827   -1182.9647    45.901275    78.603232    15.913684     29.58296 
    3400    236.43382    -248.3796    229018.04   -21268.187    1565.9863   -22834.173   -492.64083     47.42259    78.605206    15.914429    29.592662 
    3600    232.17554   -267.56357    229018.04   -21236.651    1537.7822   -22774.433   -539.25344    49.005923    78.605712    15.915167     29.59306 
    3800    233.51017   -367.80151    229018.04   -21276.758    1546.6219    -22823.38   -967.35607    50.045139     78.60544     15.91482    29.582227 
    4000    234.69218   -271.72995    229018.04   -21307.632    1554.4508   -22862.083    -582.6742    50.961113    78.606603    15.912366    29.598075 
    4200    237.73801   -269.79957    229018.04   -21243.292    1574.6244   -22817.917   -599.62179    52.307995    78.607927    15.912385    29.598233 
    4400    239.68512   -298.08654    229018.04   -21161.352    1587.5208   -22748.873   -656.13905    53.781699    78.609901    15.910523     29.58347 
    4600    234.34153   -161.67904    229018.04   -21229.462    1552.1283    -22781.59   -148.05141    55.523123    78.611107    15.909714    29.565903 
    4800    231.70422   -332.92556    229018.04   -21208.366    1534.6604   -22743.026    -778.5663    56.838891    78.611477    15.909898    29.573969 
    5000    237.21002   -313.52447    229018.04   -21251.567    1571.1273   -22822.694   -764.19655    58.361995    78.609262    15.910864    29.571596 
    5200    236.01182   -227.00826    229018.04   -21255.083    1563.1912   -22818.274   -438.48979    59.958391    78.607194    15.914549    29.570158 
    5400    232.27513   -173.20582    229018.04   -21256.305    1538.4418   -22794.747   -221.28505    61.188039    78.607418    15.916117     29.56541 
    5600    231.20822   -321.95651    229018.04   -21354.604    1531.3753    -22885.98   -748.57666    62.486356    78.604657    15.917161    29.581411 
    5800    242.28589   -475.67238    229018.04   -21242.725    1604.7467   -22847.472   -1373.7356    64.298825    78.605698    15.914948    29.594032 
    6000    219.93981    -138.3308    229018.04   -21403.534    1456.7405   -22860.274   -45.239353     65.24167    78.603826    15.913378    29.615527 
    6200    233.20036   -300.62774    229018.04   -21287.189    1544.5699   -22831.759   -695.93888    66.244298    78.603499    15.912816     29.65104 
    6400    231.47524   -198.93878    229018.04   -21195.359    1533.1439   -22728.503   -302.58942    68.527998    78.604274    15.912707    29.637908 
    6600    231.70695   -280.04368    229018.04   -21258.476    1534.6785   -22793.155   -613.66688    69.958355     78.60432      15.9179    29.627139 
    6800    233.38732   -281.47041    229018.04   -21193.075    1545.8083   -22738.884   -642.88207    71.281449    78.606092    15.920892    29.631948 
    7000    231.61272   -148.49912    229018.04   -21261.115    1534.0544   -22795.169   -121.46076    72.431905    78.607303    15.925275    29.634358 
    7200    237.27949   -334.25579    229018.04   -21186.225    1571.5875   -22757.812   -839.18811    75.078166     78.60744    15.927595    29.623767 
    7400    230.34329   -255.88003    229018.04   -21262.304    1525.6465    -22787.95    -541.6753    75.579563    78.608337    15.929198    29.640472 
    7600    234.24526   -279.87546    229018.04   -21281.089    1551.4907    -22832.58   -592.90112    76.482342    78.609067     15.92969    29.642507 
    7800    233.11686   -301.60805    229018.04   -21175.887    1544.0168   -22719.904   -726.87694    77.345442    78.609859    15.931032    29.630919 
    8000    236.51561   -234.70202    229018.04    -21164.61     1566.528   -22731.138   -429.04761    78.813761    78.610055    15.933222    29.600533 
    8200    236.28435    -261.1867    229018.04   -21268.014    1564.9963    -22833.01   -513.99882     80.83526     78.60755    15.932754    29.577983 
    8400    231.84342   -495.48874    229018.04   -21286.852    1535.5824   -22822.434   -1465.9606    82.470025    78.607592    15.932099    29.583584 
    8600    240.68183   -257.44665    229018.04   -21235.091    1594.1224   -22829.214    -480.3341    82.764045    78.606801    15.932966    29.579092 
    8800    232.84103    -202.1589    229018.04   -21251.268      1542.19   -22793.458   -313.53392    84.102123    78.604826      15.9359    29.569054 
    9000    236.41601   -162.10488    229018.04   -21247.614    1565.8683   -22813.482   -135.58094    84.396008    78.606412     15.93911    29.571598 
    9200     233.3649   -284.00738    229018.04   -21285.299    1545.6597   -22830.959    -666.1908     86.62586    78.607687    15.940234    29.584775 
    9400    233.50401   -251.29268    229018.04   -21334.766    1546.5811   -22881.347    -478.4053    87.553181     78.60838    15.940014      29.5951 
    9600    234.44839   -312.44917    229018.04   -21355.312    1552.8361   -22908.148   -758.88018    88.108786     78.60954     15.93835    29.622513 
    9800    229.64318   -399.71548    229018.04   -21293.991    1521.0094   -22815.001   -1087.4255    88.753364    78.610916    15.936836    29.623245 
   10000    247.05128   -249.61284    229018.04   -21175.912    1636.3095   -22812.221   -476.90792     89.37151     78.61182    15.934946    29.643687 
   10200    235.54855   -182.28597    229018.04   -21218.262    1560.1228   -22778.385   -240.97159    91.121633    78.610279    15.935408    29.623115 
   10400    235.04285   -176.73172    229018.04   -21239.277    1556.7734   -22796.051   -200.96828    92.416145    78.611545    15.934183    29.605619 
   10600    235.43238    -239.8054    229018.04   -21219.484    1559.3534   -22778.837   -411.66856    94.383859    78.610591    15.931104    29.586602 
   10800    242.64757   -258.75489    229018.04    -21224.92    1607.1422   -22832.062   -557.77668    95.715137    78.608055    15.932037    29.566629 
   11000    237.09576   -151.80471    229018.04   -21271.797    1570.3705   -22842.168   -108.24855    95.872962    78.605895    15.929405    29.570991 
   11200     231.9851   -256.83002    229018.04   -21261.216    1536.5208   -22797.737    -537.5572    97.913882    78.608179     15.92641    29.590854 
   11400    232.65353   -290.26206    229018.04   -21244.153    1540.9481   -22785.101   -669.87879    98.866358     78.61056    15.925406    29.624097 
   11600    240.27017    -382.8285    229018.04   -21214.488    1591.3958   -22805.884   -993.66184    100.73463    78.614345    15.925193    29.618477 
   11800    237.93498   -350.87181    229018.04   -21224.309     1575.929   -22800.238    -898.1478    101.17261    78.616197    15.925873    29.627596 
   12000    242.08849   -143.79968    229018.04   -21134.948    1603.4392   -22738.387   -92.639006    101.60853    78.620132    15.925163    29.629239 
   12200    233.88834   -278.08002    229018.04   -21227.979    1549.1267   -22777.106    -621.5318    103.51052    78.620623    15.927773    29.631205 
   12400    242.51429   -289.37872    229018.04   -21123.686    1606.2594   -22729.946   -633.38518     104.5803    78.620273    15.930424     29.63433 
   12600    240.60456   -310.77991    229018.04   -21108.148    1593.6106   -22701.758   -755.96865    106.81699    78.621408    15.930212    29.653303 
   12800    233.47293   -233.67819    229018.04   -21240.399    1546.3752   -22786.775   -443.33222    107.88938    78.621372     15.93095    29.641723 
   13000    238.12626   -292.61555    229018.04    -21281.55    1577.1959   -22858.746   -660.56511    107.94044     78.62182    15.931383    29.670744 
   13200    230.36859   -350.29673    229018.04   -21236.463    1525.8141   -22762.277   -872.30542    109.82903    78.619492    15.932759    29.638599 
   13400    244.03256   -267.51792    229018.04   -21197.425    1616.3155   -22813.741    -559.8836    110.04852    78.616967    15.931639    29.638345 
   13600    240.32593   -207.37798    229018.04   -21262.415    1591.7652    -22854.18    -355.0131    110.64986    78.615523    15.934015     29.62915 
   13800     235.5771   -316.96783    229018.04   -21301.954    1560.3119   -22862.266   -725.63901     112.5884    78.618087    15.933583    29.615077 
   14000    229.61421   -251.20394    229018.04   -21254.043    1520.8175   -22774.861   -517.90666    113.97993    78.620774    15.929835    29.639651 
   14200    230.47787   -289.31529    229018.04   -21333.949    1526.5379   -22860.487   -668.47786    114.53325    78.622472    15.928163    29.620826 
   14400    223.86698   -510.55407    229018.04    -21371.31    1482.7516   -22854.062   -1479.5729     115.8339    78.623573    15.925296    29.615282 
   14600    235.76757   -232.59465    229018.04   -21323.129    1561.5735   -22884.703   -407.60547     118.3447    78.625529    15.929075    29.588698 
   14800    236.73775   -281.23516    229018.04   -21273.952    1567.9993   -22841.951   -615.63826    119.55773    78.627069     15.93116    29.567913 
   15000    237.39568   -366.66819    229018.04   -21234.969     1572.357   -22807.326   -942.94557    121.00895    78.626763    15.930977    29.554774 
   15200    228.66437   -143.97842    229018.04   -21305.363    1514.5264   -22819.889   -68.264429    122.53272    78.627326    15.932265    29.565679 
   15400    235.21607   -435.30626    229018.04   -21216.298    1557.9207   -22774.218   -1211.2578    123.65491    78.628599    15.933135    29.568448 
   15600    232.35862   -137.14031    229018.04   -21297.866    1538.9948   -22836.861   -41.769403    125.77913     78.62985    15.933708    29.570641 
   15800    236.53745   -404.97137    229018.04   -21170.629    1566.6727   -22737.302   -1094.5293    126.44301     78.63086    15.934602    29.557813 
   16000    231.36324   -254.89409    229018.04   -21218.612     1532.402   -22751.014   -499.20888    127.72007     78.63218    15.936325    29.559193 
   16200    242.22966   -488.95886    229018.04   -21120.182    1604.3742   -22724.556   -1443.0018     130.3767    78.633927    15.937025      29.5616 
   16400    233.15225   -318.75143    229018.04   -21107.354    1544.2513   -22651.605   -732.59105    130.94113    78.632191    15.938686    29.573318 
   16600    235.89984   -182.08276    229018.04   -21157.478    1562.4495   -22719.927   -214.31477    133.23679    78.633668    15.943373    29.564866 
   16800    238.00435   -320.64659    229018.04   -21126.893    1576.3885   -22703.281   -747.63369    134.25869    78.634964    15.946035    29.580177 
   17000    235.88714   -430.15035    229018.04   -21152.935    1562.3654   -22715.301   -1184.8073    135.27704    78.634948    15.947602    29.591671 
   17200     234.7229   -325.02798    229018.04   -21217.224    1554.6543   -22771.878   -764.23374    135.23685    78.637847     15.94752    29.582364 
   17400    235.97184   -229.56043    229018.04   -21186.464    1562.9264    -22749.39   -438.14165    135.87159    78.637929    15.946635    29.575333 
   17600    238.46677   -221.62416    229018.04   -21175.841    1579.4512   -22755.292   -398.38817    137.52959    78.638462    15.946223    29.595878 
   17800    236.81877   -432.21112    229018.04   -21209.733     1568.536   -22778.269   -1193.9211    138.67076    78.639195    15.945763    29.622506 
   18000    237.03522    -261.6412    229018.04   -21170.111    1569.9696    -22740.08   -495.32383    138.97731    78.641306    15.944107    29.608768 
   18200    230.64329   -300.76342    229018.04   -21217.621    1527.6335   -22745.255   -659.78134     140.1772    78.642189    15.944645     29.61253 
   18400    238.13677   -404.58379    229018.04   -21253.444    1577.2656    -22830.71   -1031.5483     141.2601    78.644213    15.945761    29.608076 
   18600    235.49643   -234.83402    229018.04    -21220.77    1559.7776   -22780.548   -439.77257    142.11468    78.644646    15.948649    29.601444 
   18800    234.44484   -306.69246    229018.04   -21232.831    1552.8126   -22785.644   -714.64613    143.68063    78.645826     15.94985    29.624668 
   19000     233.1726   -181.12626    229018.04   -21230.308     1544.386   -22774.694   -183.05197    145.43805    78.645918    15.951547    29.613497 
   19200    229.54265   -240.33046    229018.04   -21209.541    1520.3436   -22729.885   -467.62369    146.09788    78.646864    15.952998    29.627114 
   19400    235.39837   -357.25568    229018.04   -21166.744    1559.1281   -22725.872   -873.92723    146.80503    78.646924    15.953718    29.633421 
   19600    231.43631   -257.17529    229018.04   -21255.874     1532.886    -22788.76   -513.32515    147.34364    78.647412    15.953788     29.62759 
   19800     237.6459   -232.53865    229018.04   -21266.257    1574.0143   -22840.271   -384.65263    148.77312    78.649686    15.953157    29.621194 
   20000    236.79279   -180.30489    229018.04   -21315.126    1568.3639    -22883.49     -211.307    149.97004    78.649837    15.953911    29.625808 
   20200    234.05945   -324.82031    229018.04   -21301.094      1550.26   -22851.354   -741.12697    151.34538    78.651496    15.955834    29.628663 
   20400     226.8386   -238.51384    229018.04   -21365.546    1502.4337   -22867.979   -439.64847    151.61328    78.650618    15.955044    29.652528 
   20600     239.1549   -274.13066    229018.04   -21286.091     1584.009     -22870.1   -585.45377    152.52426    78.647668    15.956015     29.62124 
   20800    232.18513   -318.97322    229018.04   -21268.846    1537.8457   -22806.692   -742.50528    154.50211    78.647817    15.959604    29.631407 
   21000    237.21901   -348.57235    229018.04   -21280.961    1571.1869   -22852.148   -872.31425    155.11746    78.646385    15.957117    29.627743 
   21200    240.90248   -290.61728    229018.04   -21222.846    1595.5839    -22818.43   -657.82815     156.3478    78.646415    15.956687    29.617109 
   21400    228.83589   -194.11677    229018.04    -21291.42    1515.6625   -22807.083   -239.54871    156.65898    78.646052    15.957869     29.60868 
   21600    232.56325   -306.53424    229018.04   -21181.906    1540.3501   -22722.257   -703.34728    157.39881    78.645282    15.957633     29.61651 
   21800    235.13693    -253.4998    229018.04   -21187.999    1557.3965   -22745.395   -472.34229    158.09106    78.646432    15.955604     29.63331 
   22000    233.47726   -333.35817    229018.04   -21238.695    1546.4039   -22785.098   -819.38573    158.94724    78.646326    15.953983    29.637929 
   22200    236.10338   -212.72932    229018.04   -21237.542    1563.7977   -22801.339   -316.03085    160.69031    78.644583    15.953405     29.64139 
   22400    237.62357   -268.14592    229018.04   -21310.728    1573.8664   -22884.594    -576.4884     161.9413    78.645509    15.951621    29.617984 
   22600    237.26697   -202.23668    229018.04   -21273.951    1571.5045   -22845.456   -295.18091     162.9576    78.647003    15.950006    29.609326 
   22800    239.11294   -363.13611    229018.04   -21224.208    1583.7311   -22807.939   -874.01989    164.70618    78.646989    15.947565    29.624663 
   23000     233.1838   -249.52212    229018.04    -21233.59    1544.4602    -22778.05   -512.77611    165.26859    78.646164    15.948392    29.638996 
   23200    227.04875   -319.42214    229018.04   -21241.765    1503.8256   -22745.591   -751.83887    165.95193    78.645928     15.94834    29.651162 
   23400    234.98514   -217.62847    229018.04   -21150.041    1556.3912   -22706.432   -341.86977    166.69411    78.646041    15.944156    29.641278 
   23600    231.49695   -310.01435    229018.04    -21266.91    1533.2876   -22800.197    -694.8751    167.87593    78.647787    15.942147    29.649185 
   23800    233.82638   -195.77005    229018.04   -21295.902    1548.7162   -22844.618   -294.45914    168.48253    78.647114    15.941713    29.665087 
   24000    239.80418    -141.1917    229018.04    -21218.43    1588.3094   -22806.739   -56.144526     169.1211    78.646676    15.943099    29.660262 
   24200    231.87611    -284.6669    229018.04    -21265.26    1535.7989   -22801.059   -637.18663    169.90007    78.648999    15.941664    29.660483 
   24400    232.22572   -309.06021    229018.04   -21202.441    1538.1145   -22740.556   -712.52641    171.23199    78.650109    15.940324    29.634601 
   24600    232.63756    -304.0182    229018.04    -21224.59    1540.8423   -22765.432   -699.78178    172.53786    78.648486    15.938147    29.617108 
   24800    236.73297   -169.64229    229018.04   -21207.517    1567.9677   -22775.485   -146.22673    173.39494    78.649922    15.939083    29.619004 
   25000    235.03143   -352.42711    229018.04   -21180.217    1556.6978   -22736.914   -874.64757    174.58356    78.650745    15.939141    29.642562 
   25200    230.24921   -448.56204    229018.04   -21168.571    1525.0234   -22693.595   -1228.1372    175.79582     78.64942    15.937484    29.625193 
   25400    241.84378   -343.53468    229018.04   -21209.983    1601.8184   -22811.801   -849.95943    176.62764    78.650299    15.935271    29.628068 
   25600    241.54251   -422.38508    229018.04   -21176.643    1599.8229   -22776.466   -1195.3969    177.49068    78.650892    15.932712    29.625292 
   25800     229.0595    -264.7626    229018.04   -21198.272    1517.1435   -22715.416    -554.4627    178.50326    78.647643     15.92929     29.62656 
   26000    233.51315   -177.04385    229018.04   -21237.572    1546.6417   -22784.214   -202.38857    180.86144     78.64733    15.928079    29.635523 
   26200    234.19942   -157.99976    229018.04   -21181.618     1551.187   -22732.805    -185.1484     182.2221    78.647714    15.925777    29.659893 
   26400    231.98672   -230.83095    229018.04   -21234.249    1536.5316   -22770.781   -418.62845    182.81716    78.647817    15.924777    29.658396 
   26600    233.30113   -205.39457    229018.04   -21185.568    1545.2374   -22730.805   -315.21405    184.41618    78.647666    15.924473    29.662979 
   26800    237.51904   -381.58545    229018.04   -21155.718    1573.1741   -22728.892   -1012.6929    185.73954    78.649141    15.926305     29.67927 
   27000    235.08431   -332.02591    229018.04   -21156.656     1557.048   -22713.704   -809.42834    187.54928     78.64662     15.92752      29.6751 
   27200    239.93879   -192.61511    229018.04   -21106.609     1589.201    -22695.81   -251.90513    188.98374    78.647096    15.927241    29.678994 
   27400    236.59517   -148.29429    229018.04   -21195.583     1567.055   -22762.638   -121.22268    190.63879    78.647872    15.926921    29.674992 
   27600    235.50421   -429.38139    229018.04   -21220.172    1559.8291   -22780.001   -1154.3433    192.22144    78.648152    15.926407    29.670182 
   27800    229.11188    -240.1303    229018.04   -21359.505    1517.4905   -22876.996   -452.67131    192.09326    78.648244    15.926624    29.682443 
   28000    232.47215   -134.22038    229018.04   -21311.764    1539.7467   -22851.511   -27.441705    193.26477    78.646657    15.927936    29.684523 
   28200    234.58765   -389.36715    229018.04   -21238.381    1553.7585    -22792.14   -1032.0153    193.60315    78.645101    15.930371    29.656861 
   28400     237.9463   -381.33044    229018.04   -21231.522     1576.004   -22807.526   -1021.5765    193.36135    78.644654    15.934051    29.647651 
   28600    233.61876   -316.62587    229018.04   -21224.219    1547.3412    -22771.56   -768.83556    194.95675    78.645819    15.937425    29.668563 
   28800    228.35474   -274.63972    229018.04   -21285.389    1512.4757   -22797.865   -630.49539    196.58409    78.646116    15.938555    29.710781 
   29000    235.41464   -125.03594    229018.04   -21238.086    1559.2359   -22797.321    11.175264    196.34114    78.646594    15.937429    29.714015 
   29200    233.67432   -201.50012    229018.04   -21255.219    1547.7091   -22802.928   -291.01614    197.12561    78.646832    15.937308    29.724973 
   29400    233.17686   -351.52244    229018.04   -21199.073    1544.4143   -22743.487   -885.44126     198.5062    78.646814    15.939384    29.708785 
   29600    233.27294   -338.03613    229018.04   -21210.622    1545.0506   -22755.673   -870.70403    200.07105    78.647978    15.939062    29.703258 
   29800    241.06914   -288.98621    229018.04   -21193.068    1596.6877   -22789.756   -636.89949    200.94294    78.648463    15.941468    29.715477 
   30000    235.11111   -276.45883    229018.04   -21229.985    1557.2255   -22787.211   -591.10438    201.46379    78.648701    15.941329    29.715683 
   30200    233.72126   -367.45696    229018.04   -21242.695      1548.02   -22790.715   -931.62799    201.95348    78.649035    15.941348    29.706258 
   30400    233.25057    -298.0581    229018.04   -21289.802    1544.9025   -22834.705   -689.74044    202.96282    78.648275    15.941697    29.719554 
   30600    224.99169   -265.91463    229018.04    -21371.27     1490.201   -22861.471   -529.92888    204.11079    78.651877    15.939922    29.711379 
   30800    226.83169   -329.58041    229018.04   -21282.866    1502.3879   -22785.254   -801.34665    205.74961    78.653271    15.937563    29.689958 
   31000    234.68771   -450.03928    229018.04   -21212.143    1554.4212   -22766.564   -1251.7338    207.80787    78.653648    15.937187     29.70135 
   31200    235.20952   -227.36384    229018.04   -21158.271    1557.8773   -22716.148   -389.78084    207.95754    78.651405    15.936594    29.716028 
   31400    239.11208   -405.00144    229018.04   -21175.348    1583.7254   -22759.073   -1072.4619    210.62236    78.651392    15.937336    29.707597 
   31600     237.7433   -182.84485    229018.04   -21109.814    1574.6594   -22684.473    -283.4315    211.76768    78.650332    15.935675     29.69862 
   31800    233.38351   -267.16912    229018.04   -21156.226     1545.783   -22702.009   -566.16617    211.33953    78.649348    15.937041    29.701677 
   32000    238.04402   -307.44046    229018.04   -21164.241    1576.6513   -22740.892   -709.34549    212.80398    78.648271    15.934853    29.707364 
   32200    233.57204   -205.42177    229018.04   -21264.661    1547.0317   -22811.693   -325.11011    213.09094    78.647938    15.934182    29.723858 
   32400    231.45971   -325.62261    229018.04   -21262.872     1533.041   -22795.913   -794.74529    213.10451    78.648681    15.935558    29.745088 
   32600    234.04754   -314.65889    229018.04   -21263.393    1550.1811   -22813.574   -711.66925    214.65744    78.652607    15.938108    29.750658 
   32800    227.73399   -114.22538    229018.04   -21224.356    1508.3642    -22732.72    26.305278    215.08501    78.653922    15.938205    29.726084 
   33000    235.22515   -353.32138    229018.04   -21199.294    1557.9808   -22757.275   -866.77318    216.77897    78.651479     15.93936     29.73853 
   33200    233.37471   -259.91811    229018.04   -21227.761    1545.7247   -22773.486   -528.18071    218.38982    78.651466    15.939546    29.731365 
   33400    233.76778    -319.0076    229018.04   -21257.737    1548.3281   -22806.065   -754.76441    221.18032      78.6517    15.940441    29.748385 
   33600    231.78616    -382.8788    229018.04   -21306.824    1535.2031   -22842.027    -1004.359    222.95291    78.652551    15.940227    29.748998 
   33800    238.35014   -392.45719    229018.04   -21213.035    1578.6788   -22791.714   -1036.6485    224.88862    78.653566    15.941013    29.756535 
   34000    230.61698   -374.53503    229018.04   -21288.431    1527.4593    -22815.89   -975.15514    225.49256    78.652347    15.941093    29.743015 
   34200    235.68725    -213.5816    229018.04   -21244.782    1561.0415   -22805.823   -333.02585    225.44979    78.651507    15.944618    29.739642 
   34400    235.39392   -300.09441    229018.04   -21231.996    1559.0987   -22791.094     -649.645     227.0523    78.649726    15.944431    29.726246 
   34600    229.40145   -144.09063    229018.04   -21208.175    1519.4084   -22727.584   -85.655783    229.41878    78.648889    15.945972    29.728576 
   34800    234.43888   -355.32881    229018.04   -21184.988    1552.7731   -22737.761   -876.84771    230.64033    78.649132    15.946226    29.731853 
   35000    231.88088   -82.925896    229018.04   -21161.034    1535.8306   -22696.864     175.3091    232.80022    78.651853    15.945744    29.714528 
   35200    238.76403   -444.20723    229018.04   -21220.608    1581.4201   -22802.028   -1207.1936     235.0977    78.649518    15.945078    29.703497 
   35400    237.66632   -407.03208    229018.04   -21192.374    1574.1496   -22766.524   -1145.6014    235.55139    78.646687    15.945711    29.710895 
   35600    230.63244   -226.46917    229018.04   -21275.126    1527.5617   -22802.687   -353.25558    235.85858    78.646259    15.943102     29.70971 
   35800    238.05051   -342.92264    229018.04   -21206.492    1576.6942   -22783.186   -837.70749     237.6973    78.646074    15.941558    29.718724 
   36000     230.0907   -320.21209    229018.04   -21310.513    1523.9735   -22834.487    -727.5874    238.75501    78.648108    15.944384     29.74419 
   36200    232.00041   -256.69237    229018.04   -21328.341    1536.6222   -22864.964   -468.27307    240.12636    78.651173    15.949549    29.724797 
   36400    234.77721   -340.60965    229018.04   -21261.671     1555.014   -22816.685   -856.35631    241.94296    78.653031    15.950449    29.724514 
   36600    230.96805   -204.43733    229018.04   -21285.924    1529.7845   -22815.708    -308.3973    243.17485    78.651845    15.951363    29.732802 
   36800    233.78468   -322.95084    229018.04   -21256.033    1548.4401   -22804.473   -742.36349    244.89567    78.652173    15.952468    29.726358 
   37000    233.93978   -213.84439    229018.04   -21199.078    1549.4674   -22748.545   -347.42726    246.20255    78.653186    15.951048    29.726684 
   37200    229.29521   -280.05446    229018.04   -21312.894    1518.7047   -22831.599   -602.55187    247.12009    78.653088    15.950925    29.749846 
   37400    234.03644   -303.50815    229018.04    -21295.26    1550.1076   -22845.368   -712.28269    247.98795     78.65246    15.952115    29.766219 
   37600    233.20331   -53.337248    229018.04   -21252.092    1544.5895   -22796.681    260.55582    248.66722    78.654882    15.951272    29.752636 
   37800    227.83099   -162.76465    229018.04   -21284.622    1509.0067   -22793.628   -150.37143    249.64809    78.653789    15.953525    29.782431 
   38000    230.49388   -366.35649    229018.04   -21245.698     1526.644   -22772.342   -902.29806    249.81819    78.650747    15.951572    29.791586 
   38200    236.52982   -294.37696    229018.04   -21273.177    1566.6221   -22839.799   -665.43824    249.41493    78.650946     15.95179    29.789513 
   38400     235.1588    -461.0209    229018.04   -21302.324    1557.5414   -22859.866   -1272.1531    251.16943    78.646929    15.953086    29.787008 
   38600    237.38867   -298.29853    229018.04   -21292.387    1572.3106   -22864.698   -672.18116     251.9965    78.646389    15.951531    29.758182 
   38800    233.73528    -345.8696    229018.04   -21275.507    1548.1129    -22823.62   -848.81746    254.22291    78.646688    15.950075    29.752305 
   39000    233.65414   -313.16506    229018.04   -21229.846    1547.5755   -22777.422   -688.74833    255.21247    78.645885    15.948573    29.740379 
   39200    230.74786   -331.19595    229018.04   -21339.052    1528.3262   -22867.378   -794.72558    257.97833    78.645471    15.950184    29.744735 
   39400    232.72945   -245.31601    229018.04   -21280.635    1541.4509   -22822.086   -448.21506    258.84077    78.644239    15.952139    29.726776 
   39600    236.13212   -270.71167    229018.04   -21299.839     1563.988   -22863.827   -557.65478     260.7789    78.642918    15.950671    29.725179 
   39800    242.57017    -322.6552    229018.04   -21187.413    1606.6296   -22794.042   -755.48215    263.38723    78.640019    15.951249    29.720164 
   40000    230.23074   -212.52359    229018.04   -21323.469    1524.9011    -22848.37   -318.09521    263.69119    78.638825    15.952916    29.718667 
   40200    224.11297   -245.23694    229018.04   -21404.168    1484.3808   -22888.549   -412.12097    262.57784    78.637087    15.953561    29.711598 
   40400    237.05344   -471.86841    229018.04   -21257.517    1570.0903   -22827.608   -1327.3687    264.08922    78.637499    15.954987     29.73145 
   40600    234.37143   -320.03934    229018.04   -21368.633    1552.3263   -22920.959   -735.13383    264.41947    78.636655    15.956047    29.746581 
   40800    231.23423   -342.96582    229018.04   -21326.721    1531.5475   -22858.268   -810.90454    266.01193    78.635999     15.95412    29.750235 
   41000    230.92247    -198.7785    229018.04   -21244.557    1529.4826   -22774.039   -265.43202    266.86108    78.635258    15.954228    29.785197 
   41200     236.6798   -282.52427    229018.04   -21257.009    1567.6155   -22824.624   -598.12489    266.93825    78.635403    15.955906    29.793208 
   41400    233.34407   -279.35713    229018.04   -21338.151    1545.5218   -22883.673   -573.77832    266.56711     78.63513    15.959199    29.804655 
   41600    242.48306    -301.8547    229018.04   -21257.437    1606.0526    -22863.49   -656.20599    269.41868    78.634291    15.963118      29.7887 
   41800    235.93404    -191.4618    229018.04    -21346.23    1562.6761   -22908.906    -213.0995    269.27809     78.63614    15.963585    29.776867 
   42000    231.65088   -272.69155    229018.04   -21362.003    1534.3071    -22896.31   -541.08621    270.27024    78.637534    15.965485    29.789929 
   42200    228.18584   -370.78357    229018.04   -21315.286    1511.3569   -22826.643   -945.00613    271.75822    78.638583     15.96272    29.797915 
   42400    238.61106   -360.72514    229018.04   -21303.215    1580.4069   -22883.622    -917.3832    271.84807    78.638314    15.959647    29.803189 
   42600    227.40024   -414.44499    229018.04   -21358.418    1506.1536   -22864.572   -1128.9742    272.15704    78.639399    15.960466    29.796627 
   42800    237.58168   -304.59732    229018.04   -21228.193     1573.589   -22801.782   -682.51731    273.13053    78.642185    15.961253    29.816372 
   43000     238.8903   -390.69878    229018.04   -21200.391    1582.2565   -22782.647   -991.61762    274.22196    78.642529    15.963183    29.799848 
   43200    235.76948   -242.92358    229018.04   -21236.434    1561.5861    -22798.02   -453.00001    275.34766    78.642706    15.964251    29.799108 
   43400     236.9123    -348.9018    229018.04    -21283.97    1569.1554   -22853.126   -850.85427    275.72482     78.64494    15.962106     29.80331 
   43600    234.60836   -377.89485    229018.04   -21270.639    1553.8956   -22824.534   -934.14383    276.68136     78.64781    15.960544    29.794604 
   43800    234.43404   -287.71726    229018.04    -21266.67     1552.741   -22819.411   -584.27318    276.02544    78.647194    15.960478    29.805962 
   44000    231.72399   -459.84105    229018.04   -21326.181    1534.7914   -22860.972   -1302.0201      276.801    78.647544    15.959477    29.807974 
   44200    235.03124   -260.52697    229018.04    -21294.08    1556.6965   -22850.776   -516.86332    277.41632    78.646499    15.957365    29.810678 
   44400    236.67664    -366.8405    229018.04   -21268.094    1567.5946   -22835.689   -970.60993    277.87289     78.64355    15.958685    29.799689 
   44600    235.10141   -228.46486    229018.04   -21273.954    1557.1613   -22831.115   -371.73692    278.83024     78.64382     15.95916    29.813874 
   44800    234.30061   -217.96958    229018.04   -21323.095    1551.8573   -22874.952   -315.04004    279.64298    78.644332    15.959122    29.834287 
   45000    230.18423   -260.28675    229018.04   -21341.314     1524.593   -22865.907   -531.13879    278.63088    78.644964    15.961677    29.847787 
   45200    240.78617    -283.2677    229018.04   -21182.412    1594.8134   -22777.225   -582.52122    279.90454    78.648165    15.963405    29.848407 
   45400    244.14979   -276.57763    229018.04   -21148.529    1617.0919   -22765.621    -594.6909    281.30392    78.647885    15.964364     29.85504 
   45600    242.01094   -243.06175    229018.04   -21174.416    1602.9256   -22777.341   -484.01576    282.02398    78.647804    15.966596    29.838556 
   45800    237.01595   -316.19867    229018.04   -21264.071     1569.842   -22833.913   -762.19493    281.97317    78.647241    15.967409    29.849473 
   46000    233.51245   -390.33162    229018.04   -21285.226     1546.637   -22831.863   -1002.3828    283.75221    78.645167    15.969075    29.857581 
   46200    240.88676     -456.016    229018.04   -21245.724    1595.4797   -22841.204   -1253.1104    283.60158    78.645941    15.968976    29.869991 
   46400    240.54047   -274.58012    229018.04   -21249.365    1593.1861   -22842.551   -533.79827    284.32951    78.645744    15.970641     29.87717 
   46600    231.14677   -197.36078    229018.04   -21282.728    1530.9683   -22813.697   -281.07936    283.81531    78.645466    15.972262     29.88158 
   46800    236.55081   -277.72605    229018.04   -21276.341    1566.7612   -22843.102   -605.68555    284.10694    78.647354     15.97192    29.872614 
   47000    241.10216   -266.21823    229018.04   -21218.926    1596.9064   -22815.833   -549.66789     284.7756    78.647641     15.97395    29.896244 
   47200    236.65894   -303.20448    229018.04   -21264.755    1567.4773   -22832.233   -704.12122    285.03895    78.647532    15.975158    29.880855 
   47400    240.82996   -324.29029    229018.04   -21313.646    1595.1035   -22908.749   -769.71758    285.76631    78.649563    15.975677    29.850315 
   47600    233.41669   -232.78039    229018.04    -21276.34    1546.0028   -22822.343     -392.868    286.42466    78.652604    15.974172    29.829745 
   47800    239.11446    -293.2868    229018.04   -21290.889    1583.7411    -22874.63   -645.36826    288.83871    78.653253    15.976528    29.835594 
   48000    234.19694   -225.53467    229018.04   -21299.181    1551.1706   -22850.351   -363.67814    289.30244    78.653328    15.976665    29.835133 
   48200    234.22678   -419.73726    229018.04   -21323.214    1551.3683   -22874.583   -1091.2134    291.10419    78.653274    15.979052    29.833794 
   48400    228.95217    -305.6343    229018.04   -21324.148    1516.4327   -22840.581   -688.63761    292.71516    78.655205    15.979872    29.833005 
   48600    240.41961   -231.36912    229018.04   -21287.305    1592.3856   -22879.691   -406.51069    294.33586    78.656551    15.983015    29.826897 
   48800    236.39253   -313.65091    229018.04    -21250.02    1565.7128   -22815.733    -742.7576    295.76635    78.657726    15.984404    29.820584 
   49000    231.76941   -117.02036    229018.04   -21288.759    1535.0922   -22823.851     57.32405    295.55619    78.657616    15.981195    29.803868 
   49200    234.39244   -292.55407    229018.04   -21255.664    1552.4655   -22808.129   -642.73703     296.0921    78.658138    15.980251    29.781503 
   49400    229.81592    -355.7309    229018.04   -21230.958    1522.1536   -22753.112   -946.75264    297.27663    78.658972    15.980189    29.794275 
   49600    232.64509   -499.20203    229018.04   -21231.037    1540.8922    -22771.93   -1393.3556    298.44333    78.658032    15.979874    29.807861 
   49800    232.98911   -345.42758    229018.04   -21291.517    1543.1707   -22834.688    -832.7906    299.58804    78.657503    15.980328    29.814696 
   50000    235.48915   -437.14564    229018.04   -21298.353    1559.7294   -22858.083   -1193.5676     300.8392    78.655749    15.981404    29.812091 
   50200    231.11958   -91.173827    229018.04   -21302.481    1530.7882   -22833.269    136.85874    302.87256    78.655896    15.981412    29.817884 
   50400    230.72176   -456.60051    229018.04   -21293.895    1528.1533   -22822.048   -1301.0876    305.35068    78.655607    15.981182     29.77861 
   50600    234.65827   -201.88156    229018.04   -21330.873    1554.2262   -22885.099   -244.88869    303.89039    78.656225    15.984355     29.74919 
   50800    229.15043   -305.54414    229018.04   -21329.473    1517.7458   -22847.219   -684.83619     306.4428    78.656898    15.985809     29.75006 
   51000    235.29384   -284.07963    229018.04   -21309.099    1558.4358   -22867.534   -610.34028    306.40703    78.656848    15.986733     29.74932 
   51200    235.46975   -313.65622    229018.04   -21277.485    1559.6009   -22837.086   -660.49323    307.91612    78.657504     15.98532    29.761746 
   51400    233.86423   -302.72557    229018.04   -21335.879    1548.9669   -22884.846   -697.18489    310.06192    78.657702    15.984893    29.756373 
   51600    234.80069    -313.5765    229018.04   -21305.321    1555.1695    -22860.49   -701.90617     310.9415    78.657307    15.983871    29.750072 
   51800     237.2388   -361.28631    229018.04   -21265.198     1571.318   -22836.516   -895.15099    311.00483    78.654925    15.985593    29.781073 
   52000    233.79237   -256.20909    229018.04   -21217.943     1548.491   -22766.434   -482.09121    310.55577     78.65321     15.98576    29.772412 
   52200    236.87299   -320.69098    229018.04   -21197.438    1568.8951   -22766.333   -731.84354    311.30284    78.651701    15.984892    29.754149 
   52400    237.56749   -260.22855    229018.04   -21226.514     1573.495   -22800.009   -491.86674    312.92378    78.651674    15.982907    29.743846 
   52600    242.88378    -398.9538    229018.04   -21210.528    1608.7067   -22819.235   -1040.0988    314.69142    78.651909    15.980341    29.747854 
   52800    230.60898   -196.20977    229018.04   -21343.462    1527.4063   -22870.869   -258.91493    315.42862    78.650666    15.980783    29.735727 
   53000    234.66209   -352.43768    229018.04   -21320.087    1554.2515   -22874.338   -840.40405    316.24529    78.650069    15.980521    29.722324 
   53200    234.33265    -203.0686    229018.04   -21323.064    1552.0695   -22875.133   -294.44281    317.68946    78.650116    15.978357    29.748223 
   53400    232.36571   -454.66037    229018.04   -21333.844    1539.0417   -22872.885   -1253.5168    318.85809    78.650447    15.979623    29.728104 
   53600     232.0191   -232.87078    229018.04   -21324.635     1536.746   -22861.381   -379.39626    318.28358    78.652378    15.980096    29.725091 
   53800    238.80145   -336.23712    229018.04   -21336.504    1581.6679   -22918.172   -798.99607    321.01535    78.652213    15.978744    29.725806 
   54000    239.17933   -317.30769    229018.04   -21225.895    1584.1708   -22810.066   -718.59178    321.33019    78.654369    15.977489    29.725801 
   54200    234.62564   -311.80429    229018.04   -21304.483    1554.0101   -22858.493   -708.36175    322.95497    78.653436     15.97838    29.712028 
   54400    230.15603   -372.87666    229018.04   -21334.169    1524.4063   -22858.576   -938.62233    323.29371    78.652318    15.979753      29.7108 
   54600     238.6119   -308.53887    229018.04   -21268.702    1580.4125   -22849.115    -700.7348    323.52789    78.651259    15.981211    29.702135 
   54800    240.85381   -260.90127    229018.04   -21279.212    1595.2615   -22874.474   -495.02768    323.23747    78.651471    15.979332    29.684278 
   55000    237.89133   -319.13875    229018.04   -21327.847    1575.6399   -22903.487    -723.7044    323.48035    78.652549    15.978543    29.678417 
   55200    237.67511   -242.54688    229018.04   -21254.867    1574.2078   -22829.075   -430.31458    323.63872    78.650727    15.977116    29.684497 
   55400    239.06092   -236.90542    229018.04   -21289.794    1583.3865   -22873.181   -405.86329    324.44187    78.649796    15.977475    29.645877 
   55600    234.41138   -423.35262    229018.04   -21257.244     1552.591   -22809.835   -1125.8516     326.0049    78.651591    15.975781    29.635434 
   55800    232.76131   -258.57374    229018.04   -21333.905    1541.6619   -22875.567   -477.37724    326.09716     78.65167    15.976667    29.625979 
   56000    229.63366   -214.69152    229018.04   -21318.628    1520.9464   -22839.574   -339.96334    326.87076    78.653766    15.976561    29.625122 
   56200    232.64338   -271.49074    229018.04   -21246.456    1540.8808   -22787.337   -559.85732    329.43592    78.655721    15.974033    29.619487 
   56400    238.34983   -265.86798    229018.04   -21267.568    1578.6767   -22846.245   -542.19308    330.49815    78.657177    15.972879     29.60759 
   56600    232.48992   -440.13371    229018.04   -21365.567    1539.8644   -22905.431   -1195.3951    333.04106    78.655678    15.973767     29.61416 
   56800    237.85232   -371.66719    229018.04   -21374.374    1575.3815   -22949.756   -953.05525    333.42802    78.657091    15.972456    29.625053 
   57000    225.22555    -171.7009    229018.04   -21429.517    1491.7499   -22921.267    -173.4551    332.85505    78.654612    15.972714     29.61169 
   57200    226.90206   -330.61882    229018.04   -21392.861     1502.854   -22895.715   -794.34279    332.52773    78.652821    15.969332    29.590513 
   57400    228.65372   -398.02615    229018.04   -21438.322    1514.4559   -22952.778   -1013.4892    335.09934    78.651294    15.969424    29.592304 
   57600    235.82009   -225.11005    229018.04     -21313.4    1561.9214   -22875.321   -389.38759    336.14256    78.651097    15.969452    29.597953 
   57800    234.21624   -484.98132    229018.04    -21301.41    1551.2985   -22852.709   -1387.0476    336.85893    78.651132    15.971653    29.602539 
   58000    239.11954   -365.53605    229018.04   -21288.089    1583.7748   -22871.864   -932.09026    339.74878    78.649405    15.971216    29.612605 
   58200    235.57218   -249.84055    229018.04   -21262.013    1560.2793   -22822.292   -489.30249    341.81249    78.650686    15.968238    29.590461 
   58400    232.03824   -267.50154    229018.04   -21355.279    1536.8728   -22892.152   -544.84695    344.59533    78.652104     15.96877    29.569326 
   58600    234.13332   -383.19391    229018.04   -21278.341    1550.7492    -22829.09   -1000.2415    346.16882    78.651613    15.969674    29.581143 
   58800    231.54233   -381.44945    229018.04    -21300.62    1533.5882   -22834.209   -992.44381    347.41577    78.651404    15.969803    29.558424 
   59000    231.80427   -212.99339    229018.04   -21313.077    1535.3231     -22848.4   -347.02751    346.98062    78.649902    15.968454    29.574615 
   59200    233.43898   -419.10165    229018.04   -21350.372    1546.1504   -22896.523   -1132.5086    348.28375    78.650193    15.971175    29.578091 
   59400    229.44755   -190.53631    229018.04   -21321.971    1519.7137   -22841.684   -251.29601    346.75979    78.650979     15.97195    29.572773 
   59600    241.47254   -287.36476    229018.04   -21258.642    1599.3596   -22858.002   -610.39825    348.63023    78.652484    15.973077    29.579735 
   59800    238.99416    -398.4805    229018.04   -21211.235    1582.9444   -22794.179   -1038.2137    349.41599    78.651172    15.976299     29.57065 
   60000    231.01737   -372.35638    229018.04   -21319.253    1530.1112   -22849.364   -964.97355    348.54934    78.649111     15.97754     29.56612 
   60200    237.13549   -177.41616    229018.04   -21227.142    1570.6337   -22797.775   -187.41671    351.07602     78.64823    15.976602    29.583986 
   60400    227.18612   -522.00985    229018.04   -21274.343    1504.7355   -22779.079   -1564.3452    354.64358    78.648547    15.977954    29.609391 
   60600    238.30664   -473.30007    229018.04   -21301.548    1578.3907   -22879.939   -1350.5674    353.80687    78.650415    15.978344    29.628663 
   60800    229.97532   -314.61389    229018.04     -21358.5    1523.2093    -22881.71   -760.97288    355.58181    78.651441    15.975274    29.633373 
   61000    233.15881   -355.11195    229018.04   -21349.353    1544.2947   -22893.648    -880.5509    358.06252    78.652884    15.972733    29.636176 
   61200    225.89082   -279.77332    229018.04   -21418.388    1496.1562   -22914.544   -594.65768    358.66595    78.652164    15.973581    29.653072 
   61400    232.30865   -218.42778    229018.04   -21316.292    1538.6638   -22854.956   -344.98115    360.09529    78.650952    15.977401    29.655216 
   61600    233.99305   -328.36221    229018.04    -21272.77    1549.8202    -22822.59   -786.80836    360.18029    78.650978    15.974049    29.653614 
   61800    240.09599   -408.23753    229018.04   -21235.246    1590.2422   -22825.488   -1082.9867    360.33906    78.653586    15.972216    29.641214 
   62000    232.28716   -345.59681    229018.04   -21326.887    1538.5215   -22865.409   -840.95718    363.41262    78.653781     15.97271    29.631699 
   62200    238.31622   -273.62425    229018.04   -21273.037    1578.4541   -22851.491   -578.61374    366.24184    78.655756    15.972453    29.640294 
   62400    237.38397   -316.28589    229018.04   -21233.962    1572.2795   -22806.241   -738.12126    366.04612     78.65814    15.971602    29.650601 
   62600    231.08707   -339.98366    229018.04   -21264.673    1530.5729   -22795.246    -863.0048    369.84797    78.657711    15.969509    29.658186 
   62800    234.99788   -380.44876    229018.04    -21258.56    1556.4756   -22815.035   -1010.7397    372.24533    78.658489    15.969384    29.643528 
   63000    230.77891   -271.38272    229018.04   -21283.334    1528.5318   -22811.866   -542.19972    373.93672    78.660371    15.970325    29.645262 
   63200     229.4875   -365.23927    229018.04   -21422.212    1519.9783    -22942.19   -915.55307    377.04927      78.6591    15.969522    29.636892 
   63400    236.11668   -170.35666    229018.04   -21323.817    1563.8858   -22887.703   -174.50698    377.17502    78.657004    15.967891    29.628339 
   63600     233.3668   -228.88074    229018.04   -21325.244    1545.6723   -22870.916   -399.83875    378.74071    78.656859    15.963343    29.629592 
   63800    233.02422   -171.54221    229018.04    -21285.25    1543.4033   -22828.654   -150.31414    377.96016    78.656652     15.96316    29.606937 
   64000     235.0712   -335.82148    229018.04   -21353.528    1556.9612   -22910.489   -805.98215    379.63941    78.655064    15.966194    29.611934 
   64200    231.41201   -278.91839    229018.04   -21312.005     1532.725    -22844.73   -568.79134    378.81335    78.654803    15.965449    29.626206 
   64400    234.30931   -456.45553    229018.04    -21287.27    1551.9149   -22839.185   -1304.8916    380.60412    78.655198    15.964598    29.629057 
   64600    233.87006   -227.32186    229018.04   -21293.342    1549.0056   -22842.347   -370.83111    380.88707    78.656184    15.963621    29.627873 
   64800     237.1592   -364.10036    229018.04   -21166.643    1570.7908   -22737.434   -920.72589    381.63756    78.655905     15.96115    29.623824 
   65000    234.36368   -302.42372    229018.04   -21205.187     1552.275   -22757.462   -702.28204    381.17882    78.658342    15.959355     29.64208 
   65200    232.32091   -529.69435    229018.04   -21211.253     1538.745   -22749.998   -1562.6126     380.4113    78.657817     15.95752    29.663149 
   65400    242.28726    -190.6719    229018.04   -21147.473    1604.7557   -22752.228   -247.17647    379.97453     78.65665    15.958751    29.660588 
   65600    235.82844   -324.38487    229018.04   -21189.656    1561.9766   -22751.633   -737.89323     382.8097    78.656218    15.957274    29.654471 
   65800    237.19731    -386.2973    229018.04   -21289.492    1571.0432   -22860.535   -954.08597    383.62845    78.656068    15.957424    29.660809 
   66000     229.5582   -374.77652    229018.04   -21325.966    1520.4466   -22846.413   -943.98169      386.185    78.656188    15.958483    29.686305 
   66200    234.82918   -235.29231    229018.04   -21247.428    1555.3582   -22802.786   -398.81479    389.12823    78.660052    15.958006    29.696629 
   66400    230.44009   -236.94897    229018.04   -21321.792    1526.2877   -22848.079   -425.04589    389.69405    78.661646    15.957705    29.711467 
   66600    230.23486   -314.21714    229018.04   -21292.671    1524.9283     -22817.6   -693.61656    390.41907    78.663101     15.95944    29.727837 
   66800    226.09687   -288.80405    229018.04     -21321.6     1497.521   -22819.121   -611.61834    387.55557    78.664927    15.959266    29.714793 
   67000    232.72782   -175.90202    229018.04   -21278.826    1541.4401   -22820.267   -173.31823    387.30402    78.665323    15.955432    29.718125 
   67200    235.62651   -318.75315    229018.04   -21327.865    1560.6392   -22888.504   -744.81971    385.76233    78.667057    15.954677    29.725143 
   67400    236.39879   -176.61152    229018.04    -21237.56    1565.7543   -22803.314   -135.31232    388.55249    78.667532    15.952085    29.696873 
   67600    233.91624   -398.96855    229018.04    -21267.82    1549.3115   -22817.132   -1039.2945    390.26675    78.667056    15.951758    29.693641 
   67800    233.62935   -372.38076    229018.04   -21292.037    1547.4112   -22839.448   -949.14829    390.35936    78.667898    15.953721    29.688676 
   68000    243.70374   -157.85096    229018.04   -21277.706    1614.1376   -22891.844   -98.485468     389.3272    78.666382    15.954858    29.680668 
   68200    232.58399   -216.90718    229018.04   -21293.597    1540.4874   -22834.084   -316.35188    388.38323    78.663473    15.952447    29.686805 
   68400    237.72063    -407.0533    229018.04   -21156.609    1574.5093   -22731.118   -1098.3097    389.58307    78.661123    15.949606    29.678811 
   68600    234.81699   -207.26697    229018.04    -21184.78    1555.2775   -22740.058    -322.6795    390.09748    78.661798     15.94866    29.692319 
   68800    241.96898   -202.28445    229018.04   -21172.662    1602.6477   -22775.309   -262.13687    391.39822    78.659916    15.950275    29.689394 
   69000    238.84503    -357.0397    229018.04   -21186.478    1581.9566   -22768.435   -918.09337    393.99887    78.659889    15.949557    29.708097 
   69200    233.29362   -300.66871    229018.04   -21201.257    1545.1876   -22746.445   -674.98013    393.86579    78.661046    15.950142    29.688647 
   69400    232.95355   -304.91641    229018.04   -21205.815    1542.9352    -22748.75   -709.50302    393.36437    78.661561    15.950672    29.692959 
   69600    235.51989   -275.49597    229018.04   -21223.175     1559.933   -22783.108   -558.22765    394.35899    78.660928    15.954211    29.710739 
   69800    238.67175   -274.89543    229018.04   -21194.064    1580.8089   -22774.873   -613.79669    396.76912    78.660789    15.954871    29.693398 
   70000    236.63528   -449.39938    229018.04   -21254.921    1567.3206   -22822.242   -1240.7273      397.213     78.66047    15.952244    29.688674 
   70200    230.17558   -234.73937    229018.04   -21247.026    1524.5357   -22771.562   -444.23589    397.91871    78.660816    15.952394    29.703232 
   70400    236.33503   -217.11208    229018.04   -21219.682     1565.332   -22785.014   -343.69005    397.61658    78.661142    15.952586    29.699327 
   70600     232.8949   -189.40584    229018.04   -21200.392    1542.5468   -22742.939   -292.65284    398.20401    78.662491    15.955381    29.691486 
   70800    235.93673   -234.90963    229018.04   -21265.372    1562.6939   -22828.066   -430.75996    399.08727    78.662699    15.957368    29.697158 
   71000    236.92476   -317.68844    229018.04   -21218.804     1569.238   -22788.042   -770.65794     398.0187    78.664989    15.958224    29.683566 
   71200    238.11544   -459.32121    229018.04   -21103.393    1577.1243   -22680.517   -1304.2023    399.39994    78.666131    15.957353    29.687246 
   71400    233.12799    -390.3315    229018.04   -21170.707    1544.0906   -22714.798   -1036.1157    398.89701    78.666443    15.957681    29.678451 
   71600    232.44514   -346.08883    229018.04   -21206.379    1539.5679   -22745.947   -861.15446    399.73688    78.668208     15.95824     29.67347 
   71800    236.92073   -364.48836    229018.04   -21241.677    1569.2113   -22810.888   -914.40942    400.18177    78.670126    15.958093    29.668423 
   72000    237.94584   -172.46271    229018.04   -21253.323    1576.0009   -22829.324   -198.61518    402.69054     78.67042    15.958362    29.684409 
   72200    236.81111   -186.30924    229018.04   -21249.178    1568.4852   -22817.663   -232.55977    403.95118    78.672393    15.958045    29.711926 
   72400    237.58255   -355.04247    229018.04   -21182.626    1573.5948   -22756.221   -918.69832    404.62638    78.672737    15.958286    29.703507 
   72600    236.28722   -259.90136    229018.04   -21185.824    1565.0153    -22750.84    -504.2236    406.30445    78.673094    15.958187    29.684507 
   72800    234.13215   -277.71681    229018.04    -21224.26    1550.7415   -22775.002   -619.51043     406.0052    78.672569    15.960854    29.686629 
   73000    232.87127   -458.36962    229018.04   -21243.099    1542.3902   -22785.489   -1307.9993      410.289    78.673615    15.961554    29.691053 
   73200    234.44893   -161.85646    229018.04   -21119.019    1552.8396   -22671.858   -159.46091    410.25295    78.675463    15.963583    29.709063 
   73400    240.24432   -282.61302    229018.04   -21128.272    1591.2246   -22719.496   -584.81228    412.53553    78.675478    15.960894    29.718263 
   73600    233.78593     -432.706    229018.04   -21212.566    1548.4483   -22761.014   -1217.7184    412.53755    78.673293    15.958497    29.700487 
   73800    232.99887   -280.99423    229018.04   -21146.471    1543.2354   -22689.706    -595.2239    412.95323    78.671423    15.959187    29.696394 
   74000    240.40212    -305.9098    229018.04   -21096.357    1592.2698   -22688.626   -710.49177    414.71002    78.670465     15.95719    29.715008 
   74200    236.48109   -292.16131    229018.04   -21219.407    1566.2994   -22785.706   -670.15785    416.15215    78.668726    15.959115     29.71109 
   74400    236.11578   -198.80334    229018.04   -21283.591    1563.8798    -22847.47   -263.72127    416.77517    78.668861    15.959901    29.725564 
   74600    234.32101   -109.36952    229018.04   -21301.556    1551.9924   -22853.549    100.44801     416.9683    78.672971     15.96045    29.745713 
   74800    234.57489   -248.34152    229018.04   -21260.004    1553.6739   -22813.678   -489.93893    416.88359    78.674707    15.958281    29.771992 
   75000    230.79962   -307.04183    229018.04   -21302.799    1528.6689   -22831.468   -697.94166    417.85224    78.676264     15.95664    29.773698 
   75200    230.95558   -305.75604    229018.04   -21300.723    1529.7019   -22830.425   -716.83999    417.05383    78.679262    15.959139    29.776401 
   75400    240.51434    -256.2201    229018.04   -21258.592    1593.0131   -22851.605   -523.68574    417.85664    78.678019    15.959286    29.778768 
   75600    234.80954   -370.57594    229018.04   -21252.347    1555.2281   -22807.575   -921.28534    419.58271    78.678129    15.956902    29.805932 
   75800    235.22001   -300.14554    229018.04   -21285.575    1557.9468   -22843.522   -695.37467    423.41051    78.679116    15.955699    29.816011 
   76000    236.78851   -157.00403    229018.04   -21313.122    1568.3355   -22881.458   -181.30698    426.61757    78.677772    15.955036    29.811746 
   76200    231.84468   -241.84924    229018.04    -21394.96    1535.5907   -22930.551   -451.19683    426.40329    78.677082    15.954771    29.800999 
   76400    225.22448   -245.52469    229018.04   -21437.338    1491.7428    -22929.08   -468.62466    425.06698    78.678524    15.957565    29.789855 
   76600    230.84012   -351.05534    229018.04   -21366.764    1528.9372   -22895.701   -872.23295    424.87927    78.678006    15.956756    29.790749 
   76800    234.01393   -190.54253    229018.04   -21236.216    1549.9585   -22786.174    -246.9574    424.85639    78.677109       15.957    29.785459 
   77000     228.5478   -341.69643    229018.04   -21331.562    1513.7544   -22845.317   -901.42068    426.96963    78.676209     15.95988    29.780106 
   77200    233.62627   -293.95632    229018.04   -21295.219    1547.3909    -22842.61   -644.28861    428.55032     78.67592    15.959683    29.768713 
   77400    233.61855   -302.71226    229018.04   -21301.709    1547.3397   -22849.049   -731.19294    427.40531    78.676456    15.958684    29.746703 
   77600    234.04394   -222.98606    229018.04   -21293.895    1550.1572   -22844.053   -405.37033    427.44814    78.675819     15.95592    29.750173 
   77800    239.27945   -463.33917    229018.04   -21345.027    1584.8339   -22929.861   -1284.8966    429.11433    78.675795    15.951672    29.720913 
   78000    233.11136   -292.29595    229018.04   -21387.098    1543.9805   -22931.078   -632.16128    429.12479    78.675271    15.950533    29.751425 
   78200    233.49437   -355.89254    229018.04     -21313.8    1546.5173   -22860.317   -916.53698     431.2237    78.675146    15.950798    29.760121 
   78400    234.87552   -231.68961    229018.04    -21326.44    1555.6651   -22882.105   -425.94312    432.15682    78.674714    15.952854    29.763056 
   78600    229.88595   -333.58897    229018.04   -21394.023    1522.6174   -22916.641   -814.85149    434.45473    78.672946    15.952274    29.771337 
   78800    231.41347   -424.72339    229018.04   -21355.932    1532.7347   -22888.667    -1157.236    431.95814    78.671692    15.954055    29.774989 
   79000    231.47292   -413.19016    229018.04   -21330.307    1533.1284   -22863.436   -1127.9498    431.71125    78.670048    15.952265    29.769853 
   79200    231.61057    -125.8089    229018.04   -21321.474    1534.0402   -22855.514    6.7203087    431.35022    78.669188    15.950784    29.762414 
   79400    228.70079   -355.20334    229018.04   -21360.645    1514.7677   -22875.413   -883.52009    433.24068    78.670455    15.952994    29.769661 
   79600    233.80617   -363.97115    229018.04   -21314.862    1548.5824   -22863.445   -887.35941     433.6552    78.669499     15.95764    29.765775 
   79800    236.32963   -395.87366    229018.04   -21297.454    1565.2962   -22862.751   -1033.8317    435.33309    78.668277    15.959472    29.769679 
   80000    233.12276   -318.15871    229018.04   -21320.004    1544.0559    -22864.06   -768.38694    435.23531    78.667386     15.96075    29.759746 
   80200    235.65455   -250.58953    229018.04    -21334.86    1560.8249   -22895.685   -455.91396    436.67491    78.666899    15.959937    29.764965 
   80400    228.98032   -78.531738    229018.04   -21401.954     1516.619   -22918.574    198.28062     439.0073    78.666899    15.958822    29.756232 
   80600    237.61145   -347.41536    229018.04   -21219.819    1573.7862   -22793.605   -848.70515    441.95157    78.665508    15.959208    29.758564 
   80800    237.28208    -407.7297    229018.04   -21257.413    1571.6046   -22829.017   -1116.7592    444.87522    78.665518    15.957402    29.757671 
   81000    245.90043   -297.92028    229018.04   -21220.511    1628.6871   -22849.198    -676.0091    442.82927    78.666011    15.956988    29.750451 
   81200    239.90015    -358.1699    229018.04   -21237.644    1588.9451   -22826.589   -884.23572    443.48076    78.666952    15.954463    29.743287 
   81400    232.49359    -400.0978    229018.04   -21314.708    1539.8887   -22854.597   -1058.4391    445.87296    78.666404    15.953177    29.735185 
   81600    237.76584   -165.40461    229018.04   -21220.118    1574.8088   -22794.927   -128.76664     444.8221    78.666441    15.951792    29.722924 
   81800    238.98771    -342.1519    229018.04   -21198.918    1582.9016   -22781.819    -814.2783    446.21559    78.667812    15.950106    29.730917 
   82000    243.32781   -415.49487    229018.04   -21180.031    1611.6477   -22791.679   -1106.2048    446.35242     78.66851    15.945954    29.729851 
   82200    233.68668   -278.52533    229018.04   -21276.103     1547.791   -22823.894   -564.72387    447.31098     78.66866    15.946481    29.733849 
   82400    231.56148    -353.1796    229018.04   -21290.101     1533.715   -22823.816   -873.14982    446.62331    78.669163    15.946798    29.714682 
   82600    242.56283   -261.93404    229018.04   -21258.453    1606.5809   -22865.034   -548.86053    446.27469    78.672062    15.942331    29.704496 
   82800    239.09547   -197.01473    229018.04   -21232.746    1583.6153   -22816.362   -248.52438    446.99828    78.670649    15.940538    29.688151 
   83000    234.77726   -238.70683    229018.04    -21268.47    1555.0143   -22823.485   -434.22532    450.08963      78.6713    15.937901    29.700929 
   83200    235.80752   -213.73003    229018.04   -21283.314    1561.8381   -22845.152   -350.51349    448.41016    78.670825     15.93873    29.704743 
   83400    235.19975   -197.27434    229018.04   -21272.883    1557.8126   -22830.695   -280.20815    449.59183    78.672317    15.937898    29.697212 
   83600    237.98055   -157.33545    229018.04   -21257.291    1576.2308   -22833.521   -93.075626    449.74885    78.672726    15.939974    29.683195 
   83800    234.55012   -397.40718    229018.04   -21279.283    1553.5098   -22832.793   -996.07859    453.01989    78.672603    15.939945    29.689199 
   84000    229.67392   -268.52947    229018.04   -21319.548    1521.2131   -22840.761    -544.2743    454.99245     78.67097    15.939941    29.673421 
   84200    233.97945   -255.06771    229018.04    -21340.35    1549.7301    -22890.08   -457.47374    457.54276    78.670268    15.941001    29.685945 
   84400    239.58887   -410.42218    229018.04   -21281.558    1586.8833   -22868.441   -1091.3753    462.48982    78.668713    15.941215    29.697538 
   84600    239.26995   -333.23849    229018.04   -21286.354     1584.771   -22871.125   -815.62433    464.42638    78.669228    15.940335    29.727531 
   84800    230.06039   -264.19581    229018.04    -21328.32    1523.7728   -22852.092   -539.82599    464.58437    78.668188    15.939558    29.720457 
   85000    234.68037   -201.22209    229018.04    -21285.46    1554.3725   -22839.833   -263.94644    466.30425    78.667888    15.938834    29.712213 
   85200    237.40227   -318.13178    229018.04   -21218.451    1572.4007   -22790.852   -736.56077    466.57701    78.668867    15.936031    29.687654 
   85400    234.09309   -282.80915    229018.04   -21279.479    1550.4828   -22829.962   -632.06255    467.75467    78.669987    15.933386    29.691308 
   85600    239.20207   -179.03447    229018.04   -21265.882    1584.3214   -22850.204    -173.8014    468.63792    78.671152    15.932983     29.68621 
   85800    237.41443   -266.97745    229018.04    -21245.24    1572.4812   -22817.721   -542.40501    468.44996    78.670567    15.931917    29.706494 
   86000    242.05862    -251.6545    229018.04   -21221.146    1603.2414   -22824.387   -440.02452    467.15386    78.671471    15.930611    29.715536 
   86200    236.27705   -350.72818    229018.04   -21291.309    1564.9479   -22856.257   -855.60148     467.6313    78.671261    15.930221    29.705072 
   86400    235.35566   -293.34172    229018.04   -21299.888    1558.8453   -22858.733   -609.83049    467.21859    78.671975    15.932975    29.705251 
   86600    236.77504   -273.55056    229018.04   -21259.266    1568.2463   -22827.513   -551.50719    468.30532    78.671848     15.93118    29.687554 
   86800    236.31254   -378.85117    229018.04    -21337.66     1565.183   -22902.843   -985.57422    470.29607    78.674716    15.930321    29.679455 
   87000    230.29843   -317.28522    229018.04   -21332.159    1525.3494   -22857.508   -672.99152    470.28241    78.676354    15.928143    29.671785 
   87200    239.10721   -327.90647    229018.04    -21290.77    1583.6931   -22874.464   -746.68085     469.2821    78.676472    15.928059    29.686904 
   87400    237.15213    -251.5436    229018.04   -21318.199    1570.7439   -22888.942   -488.60078    471.93189    78.678647     15.92769    29.688003 
   87600    237.88376   -207.75457    229018.04   -21280.323    1575.5898   -22855.913   -285.61441    473.10991    78.677471    15.927027    29.685743 
   87800    230.44883   -199.61296    229018.04    -21431.86    1526.3456   -22958.206   -286.19308    473.08963    78.679891    15.925949    29.676543 
   88000    235.43307   -250.64934    229018.04   -21263.426     1559.358   -22822.783   -464.23727      474.235    78.679623    15.923292    29.677335 
   88200    234.20938    -273.3075    229018.04   -21252.746    1551.2531   -22803.999   -582.01068    475.04305    78.682105    15.920519    29.672737 
   88400    238.89307   -278.55897    229018.04   -21262.903    1582.2748   -22845.177   -603.96005    474.68247    78.683434    15.917196    29.675612 
   88600    234.75619   -346.59528    229018.04   -21351.041    1554.8748   -22905.916   -842.30589    476.40791    78.682165    15.913702    29.681339 
   88800    229.85647   -262.79505    229018.04    -21344.18    1522.4221   -22866.603   -540.50105    475.00174    78.680997    15.912349    29.700542 
   89000    227.33665   -290.06051    229018.04   -21368.099    1505.7325   -22873.831   -633.71951    477.65015    78.682055    15.911176    29.692085 
   89200    236.60549     -446.152    229018.04   -21290.515    1567.1233   -22857.638    -1245.641    478.01251    78.681998    15.911778    29.683145 
   89400    235.09484   -248.84733    229018.04   -21252.571    1557.1177   -22809.688   -485.63955    477.53353    78.681982      15.9144    29.677275 
   89600    225.32454   -481.26394    229018.04   -21357.108    1492.4055   -22849.514   -1354.1296     479.8201    78.680594      15.9123    29.673495 
   89800     233.8399   -367.23426    229018.04   -21290.973    1548.8058   -22839.779   -948.50866    482.63007    78.679313    15.911177    29.664949 
   90000    230.67144   -346.32584    229018.04   -21237.389      1527.82   -22765.209   -843.39268    485.34294    78.680297    15.913983    29.655199 
   90200    230.40096   -214.82284    229018.04   -21254.342    1526.0285   -22780.371   -314.14279     484.3315     78.68098    15.915105    29.654959 
   90400    235.57417   -385.39308    229018.04   -21328.434    1560.2925   -22888.727    -1006.896    485.81518    78.681461    15.916423    29.641906 
   90600    233.98312   -215.22678    229018.04   -21349.787    1549.7544   -22899.542   -269.49689    484.84138    78.682966    15.917223    29.650894 
   90800    241.40421   -324.57311    229018.04   -21210.943    1598.9069    -22809.85   -759.06552    486.93886    78.682173    15.920069    29.650059 
   91000    232.89534   -212.79728    229018.04   -21301.646    1542.5497   -22844.195   -341.59909    487.46782    78.682978      15.9208    29.652925 
   91200    230.44926   -236.48131    229018.04   -21312.099    1526.3484   -22838.447   -424.39859    488.98855    78.684012    15.923348    29.677618 
   91400     234.8696   -411.14986    229018.04    -21267.33    1555.6259   -22822.956   -1081.8578    489.88653    78.680295     15.92316      29.6792 
   91600    236.51793   -249.84093    229018.04   -21272.272    1566.5434   -22838.815   -467.70745    489.02897    78.677453    15.919266    29.671572 
   91800    237.39951    -414.4967    229018.04   -21229.719    1572.3824   -22802.102    -1111.499    489.67931    78.677958    15.916646    29.687592 
   92000    230.61325   -342.94448    229018.04   -21253.164    1527.4346   -22780.598   -807.06891    490.14094    78.677894     15.91797    29.663245 
   92200    236.18609   -198.03193    229018.04   -21281.821    1564.3455   -22846.166    -280.9704    491.85074    78.677576    15.921557    29.652618 
   92400    235.96511   -288.90101    229018.04   -21273.626    1562.8818   -22836.508   -628.41571    492.18916     78.67892    15.920881    29.666825 
   92600     235.7718   -219.66055    229018.04    -21273.07    1561.6015   -22834.672   -353.61749    494.08004    78.680092    15.921607    29.652445 
   92800    224.04585   -393.04113    229018.04   -21366.795    1483.9363   -22850.731   -1057.1075    496.43985    78.680655    15.919055    29.632438 
   93000    229.40168    -327.4987    229018.04   -21386.416    1519.4099   -22905.826   -761.10594    500.06231    78.682447    15.920484     29.63802 
   93200    232.51001    -270.3528    229018.04   -21291.782    1539.9975    -22831.78   -552.65036    500.54321    78.684308    15.919306    29.629481 
   93400    228.48835   -165.79953    229018.04   -21366.726    1513.3606   -22880.087   -159.80131    501.96999     78.68341    15.919822    29.635491 
   93600    232.14595   -341.54018    229018.04   -21311.874    1537.5862    -22849.46   -827.78242    502.20718    78.683969    15.920702    29.626021 
   93800    241.79349   -393.02883    229018.04   -21226.004    1601.4853   -22827.489   -1041.7887    505.03012    78.684606    15.919408    29.627433 
   94000    240.51892   -204.74947    229018.04   -21242.156    1593.0434   -22835.199   -267.76506    504.88369    78.685534    15.919288    29.643938 
   94200    229.43124   -333.70554    229018.04   -21246.546    1519.6057   -22766.151   -806.85143    506.63681    78.687081    15.918817    29.661048 
   94400    239.81365    -250.0791    229018.04   -21174.977    1588.3721   -22763.349   -472.54515    505.47766    78.688749    15.918433    29.690792 
   94600    234.21432   -265.89841    229018.04   -21244.379    1551.2858   -22795.665   -515.56271    505.26309    78.687132    15.919193    29.661129 
   94800    241.08186   -336.44249    229018.04   -21172.259     1596.772   -22769.031   -836.78509    509.32647    78.686567    15.920942    29.652018 
   95000    231.68835   -316.72796    229018.04   -21178.793    1534.5553   -22713.348    -719.4719    509.18161    78.688002    15.921247    29.640519 
   95200    226.49391   -394.02402    229018.04   -21265.246    1500.1507   -22765.397   -1051.6416    511.52013    78.687834    15.923382    29.640085 
   95400    231.04159   -425.34233    229018.04   -21267.182    1530.2716   -22797.454   -1142.7121    513.47785    78.687327    15.925916    29.635266 
   95600    228.34217   -238.84676    229018.04   -21261.931    1512.3924   -22774.324   -410.90819    513.92234    78.688558    15.926953    29.636789 
   95800    236.43002   -301.18207    229018.04   -21213.116    1565.9611   -22779.077   -661.61698    513.61266    78.689996    15.928349    29.666799 
   96000    230.96295   -357.90032    229018.04   -21253.828    1529.7507   -22783.578   -847.04612    516.56265     78.69161    15.928796    29.670691 
   96200    229.73879   -328.11905    229018.04   -21294.883    1521.6427   -22816.526   -785.50306    519.82561    78.691429    15.929058    29.678972 
   96400    234.28134   -339.43629    229018.04    -21236.75    1551.7296    -22788.48   -838.12733     521.4903      78.6922     15.92776    29.677754 
   96600    235.04829   -291.65115    229018.04   -21351.869    1556.8095   -22908.678   -646.32651    522.79769    78.692222    15.930125     29.68728 
   96800    231.71066   -196.23674    229018.04   -21320.904    1534.7031   -22855.607   -222.03241    526.94054    78.691132    15.933352    29.686143 
   97000    232.36505   -249.72022    229018.04   -21280.522    1539.0374    -22819.56   -488.67206    527.18703    78.693119     15.93339      29.6899 
   97200    240.14235   -229.87932    229018.04   -21225.957    1590.5492   -22816.506    -394.3258    528.13676    78.695357    15.933385    29.676625 
   97400    239.41134   -214.79952    229018.04   -21194.799    1585.7074   -22780.506   -341.26245    526.65504    78.698127    15.931875    29.699805 
   97600    239.24467   -186.07683    229018.04   -21208.081    1584.6036   -22792.684   -224.44907    526.01564    78.698475    15.931171    29.703934 
   97800    229.20936   -182.33106    229018.04   -21287.678    1518.1361   -22805.814   -238.09367    526.66645    78.699505    15.930856    29.698111 
   98000    227.24666   -359.40568    229018.04   -21379.879    1505.1364   -22885.015   -906.45157     530.2306    78.698632    15.929914    29.700321 
   98200    228.88607   -367.21991    229018.04    -21365.58    1515.9948   -22881.575   -931.11296    529.44365    78.699453    15.928851    29.712503 
   98400    231.75174   -302.08507    229018.04    -21317.24    1534.9752   -22852.215   -680.77467    530.79755    78.700907    15.927126    29.710705 
   98600    229.90444   -206.74725    229018.04   -21282.981    1522.7399   -22805.721   -300.87191    531.41019    78.702292    15.928374    29.710077 
   98800    239.01125   -248.35563    229018.04   -21163.571    1583.0575   -22746.629   -461.32274    533.77149    78.703321     15.92719    29.740708 
   99000     237.6551   -357.94378    229018.04   -21132.708    1574.0753   -22706.783   -962.21152    532.80795    78.704858    15.925043    29.756541 
   99200    237.51496   -78.971949    229018.04   -21189.258    1573.1471   -22762.405      186.978    528.67087     78.70464    15.923752    29.764649 
   99400    232.47904   -354.64997    229018.04   -21248.785    1539.7924   -22788.578   -921.18986    529.13835    78.704206     15.92582    29.794287 
   99600     234.6992   -411.14309    229018.04    -21193.67    1554.4973   -22748.167   -1136.4564    528.58536     78.70585    15.929109    29.783037 
   99800    241.31731   -442.64534    229018.04   -21158.856    1598.3314   -22757.188   -1262.5351    531.83591    78.707412    15.926982    29.795504 
  100000    233.43079   -233.76958    229018.04     -21203.5    1546.0962   -22749.596   -426.71318    532.29513    78.703623    15.929469    29.797531 
  100200    236.85903   -330.05025    229018.04   -21140.405    1568.8026   -22709.207   -801.84793    532.51293    78.703146    15.932639    29.794727 
  100400    243.71712   -335.71359    229018.04   -21172.912    1614.2262   -22787.138    -808.3126    534.46124    78.703347    15.932353    29.810798 
  100600    230.25891   -278.77114    229018.04   -21227.912    1525.0876   -22752.999   -611.10052    534.58599    78.703505    15.931274    29.805276 
  100800    236.99157   -429.51027    229018.04   -21167.978    1569.6805   -22737.659   -1174.8674    534.30216    78.703819    15.929552    29.821705 
[...]
 3975800    225.72428   -169.25736    229018.04   -23393.001    1495.0531   -24888.055    -203.0026    4914.3204    80.104627    14.337629    28.831355 
 3976000     221.4039   -166.10507    229018.04   -23411.421    1466.4377   -24877.858   -146.77754    4914.4018    80.104598    14.337903    28.833991 
 3976200    221.58673   -185.21696    229018.04   -23363.621    1467.6487   -24831.269    -281.7336    4913.9883    80.102502    14.339188    28.836397 
 3976400    225.36476   -215.06347    229018.04   -23364.915    1492.6719   -24857.587   -361.68113    4914.6739    80.101513     14.33852    28.817032 
 3976600    229.27032   -103.88895    229018.04   -23303.425    1518.5398   -24821.965    116.07461    4914.2084    80.100279    14.338124    28.826182 
 3976800    230.68674   -53.951338    229018.04   -23319.362    1527.9213   -24847.284    289.03464    4914.5589    80.099434    14.338188    28.823028 
 3977000    223.42289   -144.48699    229018.04   -23359.809    1479.8102   -24839.619   -63.208173    4913.7318    80.099056    14.337947     28.83166 
 3977200    226.20825   -165.68167    229018.04   -23309.835    1498.2587   -24808.093   -175.59929    4912.9741    80.099163    14.338261    28.828963 
 3977400    225.69657   -159.44925    229018.04   -23351.766    1494.8696   -24846.636   -131.91485    4915.1969    80.097638    14.338783    28.821565 
 3977600    222.18545   -74.891373    229018.04   -23420.539    1471.6142   -24892.154    194.58088    4912.6797    80.098214    14.339103    28.824473 
 3977800    223.77828   -140.25778    229018.04   -23374.212    1482.1641   -24856.376   -75.667261    4913.2979    80.098028    14.339737    28.824178 
 3978000    226.74566   -202.15657    229018.04   -23372.887    1501.8181   -24874.705   -328.13838    4914.6533    80.097974    14.339217    28.831722 
 3978200    224.79084   -112.63982    229018.04   -23318.495    1488.8706   -24807.366    3.4470522    4913.7537    80.097619    14.338903    28.824325 
 3978400    224.77747   -143.04871    229018.04   -23366.314    1488.7821   -24855.096   -35.799511    4913.5656    80.096406    14.339376    28.826469 
 3978600    218.49681   -193.43248    229018.04   -23413.383     1447.183   -24860.566   -297.55978    4915.5679    80.096032    14.338068    28.826287 
 3978800    222.93446   -137.95736    229018.04   -23363.102    1476.5752   -24839.677   -77.421171    4915.4891    80.095171    14.337825    28.820364 
 3979000    231.86168   -143.56652    229018.04   -23250.241    1535.7034   -24785.944   -82.201832    4915.1914    80.092643    14.337801    28.812406 
 3979200    225.47749   -183.29454    229018.04   -23314.804    1493.4186   -24808.223   -202.69373    4918.0777    80.091068    14.338175    28.811614 
 3979400    222.25234   -170.13061    229018.04    -23386.31    1472.0573   -24858.367   -227.41457    4913.4438    80.089017    14.337989    28.818762 
 3979600    225.04771    -292.8912    229018.04   -23376.051     1490.572   -24866.623   -658.81251    4918.1385    80.088719    14.337563    28.816124 
 3979800    227.35511   -147.69441    229018.04   -23322.708    1505.8547   -24828.563   -96.704149    4914.4206    80.087516    14.337045    28.826884 
 3980000    222.78766   -202.33637    229018.04   -23420.032    1475.6029   -24895.635    -279.4681    4915.7331    80.085648    14.338481    28.815477 
 3980200    225.72079   -207.40773    229018.04   -23422.424    1495.0301   -24917.454   -342.33298     4916.644    80.085053    14.338787    28.834714 
 3980400    224.84114    -98.97691    229018.04   -23384.544    1489.2038   -24873.747    126.50124    4915.3546    80.083724    14.340252    28.823784 
 3980600    219.74188   -239.83205    229018.04   -23415.572    1455.4296   -24871.002   -439.73082    4917.1958    80.083353    14.339926     28.81939 
 3980800    220.86647   -175.45589    229018.04   -23419.847    1462.8781   -24882.725    -238.8804    4913.4555    80.082988     14.33993    28.825373 
 3981000     230.6453   -244.18546    229018.04   -23341.524    1527.6468   -24869.171   -469.08535    4916.2796    80.080877    14.341154    28.826994 
 3981200    223.24877    -202.7983    229018.04   -23395.168     1478.657   -24873.825   -258.08613    4915.8586    80.079584    14.341722    28.828917 
 3981400    219.83762    -102.8244    229018.04   -23368.914    1456.0637   -24824.978    81.480598    4913.7032    80.079374    14.342253    28.819373 
 3981600      226.363   -151.65232    229018.04   -23329.203    1499.2836   -24828.487   -97.461898    4917.0352    80.080285    14.343729    28.817765 
 3981800    221.92302   -242.16898    229018.04   -23399.906     1469.876   -24869.783   -432.04705    4915.0393    80.080166    14.345457    28.825229 
 3982000    224.20562   -214.99769    229018.04   -23371.601    1484.9945   -24856.595   -401.40287    4916.3082     80.08088    14.346786    28.824655 
 3982200    229.23006   -106.22766    229018.04   -23339.219    1518.2732   -24857.492    61.719189    4913.6797    80.081357    14.347327    28.812079 
 3982400     227.6341   -132.80892    229018.04   -23343.495    1507.7025   -24851.197   -51.983016     4914.908    80.080895    14.347708    28.826993 
 3982600    228.25071   -160.87017    229018.04   -23344.496    1511.7866   -24856.283   -125.29418    4915.6485    80.080962    14.348333    28.828972 
 3982800    228.58379   -229.75483    229018.04   -23332.449    1513.9927   -24846.441   -395.09982    4916.6566     80.08076    14.348918    28.821864 
 3983000    223.65071   -220.51582    229018.04   -23409.142    1481.3191   -24890.461    -398.3305    4916.3399    80.080038    14.348571    28.825391 
 3983200    221.20052    -159.6188    229018.04   -23370.847    1465.0907   -24835.938   -142.59011    4914.1611    80.080982    14.348809    28.825132 
 3983400    221.55061   -215.83776    229018.04   -23366.351    1467.4094   -24833.761   -364.86418    4916.1037    80.080389    14.348422    28.818368 
 3983600    228.61976   -266.02369    229018.04    -23315.67     1514.231   -24829.901   -548.67369     4918.466    80.079748    14.348488    28.813418 
 3983800    216.63961   -55.933635    229018.04   -23432.427    1434.8821   -24867.309    290.19788    4915.0449    80.079538    14.348324    28.825472 
 3984000    222.93164   -113.65542    229018.04   -23359.849    1476.5565   -24836.406    44.407833    4917.5246    80.079118    14.348688    28.829047 
 3984200     219.9031   -216.17848    229018.04   -23411.766    1456.4974   -24868.263   -335.75431    4917.7575    80.079775    14.350024    28.825963 
 3984400    224.37745   -154.58814    229018.04   -23421.271    1486.1326   -24907.403   -147.85639    4915.0148    80.079621    14.349693    28.823963 
 3984600    222.08863   -134.44733    229018.04   -23371.817     1470.973   -24842.789   -9.8233818    4915.3194    80.080059    14.352016    28.825087 
 3984800    224.54295   -182.98123    229018.04   -23393.054    1487.2288   -24880.283   -229.72089     4918.109    80.080478    14.352585    28.826521 
 3985000    221.77802   -11.024184    229018.04   -23344.909    1468.9157   -24813.825    412.62113    4915.4255    80.080042    14.353155    28.826168 
 3985200    220.91504   -148.26291    229018.04   -23336.341    1463.1998    -24799.54   -86.644545    4916.4619     80.07982    14.355155    28.836418 
 3985400    224.26679   -230.59184    229018.04   -23356.064    1485.3996   -24841.463   -421.62768    4916.3803    80.078803     14.35461    28.838035 
 3985600    228.33048   -107.30806    229018.04   -23322.546     1512.315   -24834.861    89.330648    4916.7452    80.078341     14.35406    28.843546 
 3985800    223.49673   -291.09841    229018.04   -23396.679    1480.2993   -24876.979    -667.5553    4917.5147    80.079498    14.354818    28.846214 
 3986000    221.62119   -175.36146    229018.04    -23331.79    1467.8769   -24799.667   -169.41239    4915.8731    80.079715    14.355462    28.826082 
 3986200    226.59835   -164.17312    229018.04   -23354.464    1500.8424   -24855.306   -147.21932    4917.2127    80.078365    14.356088    28.836645 
 3986400    220.49901   -158.41101    229018.04   -23427.228    1460.4443   -24887.673   -123.68387    4917.4304    80.078479    14.355464    28.835552 
 3986600    221.61739   -179.19279    229018.04   -23414.178    1467.8517    -24882.03   -221.50391    4914.9683    80.078411    14.356465     28.84389 
 3986800    226.51255   -104.27571    229018.04   -23328.798    1500.2742   -24829.072    89.882478    4916.1628    80.077293    14.357447    28.839433 
 3987000    228.29505   -139.05423    229018.04   -23319.634    1512.0803   -24831.714   -54.958542    4918.3029    80.076592    14.357015    28.841201 
 3987200    225.20843   -194.67654    229018.04   -23347.354    1491.6365   -24838.991   -259.41229    4918.0593    80.076399     14.35725    28.846084 
 3987400    230.84115   -200.80251    229018.04   -23354.184     1528.944   -24883.128   -283.98453    4917.7537     80.07515     14.35711    28.839387 
 3987600    221.36118   -125.91169    229018.04   -23406.964    1466.1548   -24873.119    36.387279    4917.8106    80.074044    14.356096    28.838781 
 3987800    225.00314   -202.58813    229018.04   -23385.649    1490.2768   -24875.925   -349.06136    4916.3738    80.072092    14.356886    28.839237 
 3988000    229.20644   -313.60992    229018.04   -23363.017    1518.1168   -24881.134   -733.45142    4921.9896     80.07238     14.35596    28.840896 
 3988200    225.25451   -118.94198    229018.04   -23347.522    1491.9417   -24839.464    37.908011    4916.0442    80.071021    14.354963    28.834157 
 3988400    226.89457   -235.24451    229018.04   -23320.873    1502.8044   -24823.678     -440.418    4922.3821    80.071712    14.355965    28.839587 
 3988600    226.36958   -193.22115    229018.04   -23342.947    1499.3272   -24842.274    -307.6672    4918.8568    80.071961    14.354774    28.841137 
 3988800    217.24149   -222.29964    229018.04   -23428.953    1438.8686   -24867.822    -362.8321    4920.4397    80.071076    14.355969    28.829248 
 3989000    218.58555   -90.691165    229018.04   -23395.604    1447.7708   -24843.375    88.477198    4917.4971    80.069293    14.355701    28.836734 
 3989200    228.81575   -151.20268    229018.04   -23324.142    1515.5291   -24839.671   -63.313972    4921.4973    80.067453    14.356762    28.825131 
 3989400    225.17082   -56.850804    229018.04   -23342.569    1491.3874   -24833.956     281.9078    4917.5318    80.068236    14.357155    28.842276 
 3989600    221.73106   -229.22345    229018.04   -23393.445    1468.6046   -24862.049   -402.83403    4920.5295     80.06821    14.356455    28.838007 
 3989800    224.15191   -205.76442    229018.04   -23359.235    1484.6388   -24843.874   -312.77448    4918.0396    80.067577    14.357876    28.843181 
 3990000    226.13274   -170.33212    229018.04   -23331.638    1497.7585   -24829.396   -217.23323    4918.9909    80.065324    14.358486    28.827582 
 3990200     228.9692    -204.3422    229018.04   -23381.059    1516.5454   -24897.604   -305.62345    4918.4425     80.06453    14.358129    28.834715 
 3990400    223.71115   -284.95739    229018.04   -23352.137    1481.7194   -24833.856   -622.40728    4921.5074    80.064122    14.357673    28.830344 
 3990600    222.93612   -91.333601    229018.04   -23386.781    1476.5862   -24863.368    106.68401    4914.0843    80.062847    14.357652    28.833069 
 3990800    230.48028   -155.31234    229018.04   -23301.547    1526.5539   -24828.101   -135.84791    4919.8977    80.061355    14.358531    28.822175 
 3991000    229.95534   -173.42544    229018.04   -23316.764     1523.077   -24839.841   -215.89561    4919.1343    80.061411    14.360602    28.832022 
 3991200     224.1688   -103.53277    229018.04   -23368.137    1484.7507   -24852.887    50.313342    4916.3191    80.060229    14.360506    28.826417 
 3991400    218.29586   -181.07396    229018.04   -23399.131     1445.852   -24844.983   -220.82924    4917.1151    80.059164    14.360048    28.836536 
 3991600    223.05117   -210.72837    229018.04   -23371.445    1477.3482   -24848.794   -324.24937     4921.056     80.05708    14.359248    28.832969 
 3991800    228.82661   -113.28646    229018.04   -23311.269     1515.601    -24826.87    75.067463    4917.1715    80.056495    14.359413    28.845213 
 3992000    227.41971   -178.68893    229018.04   -23349.657    1506.2826    -24855.94   -206.52651    4918.1657    80.055709    14.358022    28.843014 
 3992200    224.88801   -126.33017    229018.04   -23398.116    1489.5143    -24887.63     24.54646    4918.5713    80.054527    14.356891    28.833688 
 3992400    223.71667   -152.95137    229018.04   -23403.876     1481.756   -24885.632   -123.94081    4919.2942    80.052353    14.356333    28.820787 
 3992600    226.19515   -211.20114    229018.04   -23349.828    1498.1719       -24848   -328.46307    4919.8225     80.05032    14.354831    28.842467 
 3992800    227.04863   -184.12553    229018.04   -23321.005    1503.8248    -24824.83   -224.57819    4919.8856    80.048069    14.352727    28.840979 
 3993000    225.90801   -163.44465    229018.04   -23302.882    1496.2701   -24799.152   -150.38577     4920.033    80.048143    14.351974    28.844066 
 3993200    231.40415   -151.72991    229018.04   -23310.138    1532.6729   -24842.811   -100.16199    4919.8953    80.048496    14.350433     28.84137 
 3993400    226.35163   -266.00131    229018.04   -23344.047    1499.2083   -24843.255   -575.64388    4920.7521    80.047213     14.34978    28.839327 
 3993600    221.75736   -160.42084    229018.04   -23388.762    1468.7788   -24857.541   -109.92142     4918.694    80.045931    14.348005    28.845182 
 3993800    221.40865   -175.48124    229018.04   -23434.685    1466.4692   -24901.154   -185.67244    4920.3376    80.045211    14.347725    28.844473 
 3994000    222.89156    -154.6661    229018.04   -23443.298     1476.291   -24919.589   -135.65502    4918.7939    80.044081    14.347436    28.846681 
 3994200    226.15494   -180.89522    229018.04    -23359.74    1497.9056   -24857.646   -199.57788    4921.9458    80.043134    14.346594    28.843159 
 3994400    225.57947   -94.046583    229018.04   -23380.846     1494.094    -24874.94    147.42364    4918.7542    80.042959    14.345226    28.850462 
 3994600    225.07564   -157.65371    229018.04   -23360.693     1490.757    -24851.45   -108.39367    4919.2742     80.04353    14.345369    28.862584 
 3994800    227.30973   -151.87851    229018.04   -23370.793    1505.5542   -24876.347   -98.260697    4919.1927     80.04282    14.344135    28.851117 
 3995000    221.82653   -204.83097    229018.04   -23404.206     1469.237   -24873.443   -291.61875    4919.8067    80.042432    14.344361    28.858756 
 3995200    221.22465   -96.869665    229018.04   -23434.683    1465.2505   -24899.934     125.3524    4918.5859    80.041745    14.344326    28.861718 
 3995400    223.60155   -108.05403    229018.04   -23375.893    1480.9935   -24856.886    58.449386    4918.9975    80.041614     14.34484    28.854448 
 3995600    226.06717   -178.45307    229018.04   -23373.521    1497.3242   -24870.845   -193.28729    4919.7882    80.041471    14.344512    28.855763 
 3995800    219.45983   -256.94404    229018.04    -23422.69    1453.5615   -24876.251    -510.4211    4920.9369    80.041516    14.343226    28.853043 
 3996000    222.84465   -38.371831    229018.04   -23389.806    1475.9803   -24865.786    303.17021    4918.0518     80.04023    14.344014    28.846533 
 3996200    224.96979   -104.46495    229018.04    -23368.48    1490.0559   -24858.536    117.57058    4918.3994    80.039346    14.344501    28.849427 
 3996400    220.96194   -204.45954    229018.04   -23416.108    1463.5105   -24879.619   -329.15018    4921.7409    80.038959    14.345019    28.853817 
 3996600    220.94835   -82.389857    229018.04   -23445.859    1463.4205   -24909.279      174.681    4918.3299    80.039107    14.346189    28.849861 
 3996800    223.01326   -107.57269    229018.04   -23390.152    1477.0971   -24867.249    62.267127    4919.3541    80.038841    14.344678    28.857544 
 3997000    228.54307   -182.72856    229018.04    -23342.16     1513.723   -24855.883   -201.10596    4919.9452    80.038084    14.343716    28.851012 
 3997200    224.43394   -203.10413    229018.04   -23411.747    1486.5068   -24898.254   -289.62409    4922.8177    80.036741    14.342656    28.849763 
 3997400    222.78861   -114.41575    229018.04    -23393.35    1475.6092    -24868.96    35.259191    4919.0959     80.03662    14.340973    28.855836 
 3997600    226.14011   -202.37378    229018.04   -23391.267    1497.8073   -24889.074   -319.96935    4921.4622    80.036315    14.340439    28.849221 
 3997800    226.88388    -196.3041    229018.04   -23359.387    1502.7336   -24862.121    -248.9745    4921.6342    80.036455    14.338912    28.850284 
 3998000    225.36074   -132.51858    229018.04   -23368.666    1492.6453   -24861.311   -53.047012    4918.9177    80.036262    14.337936    28.844741 
 3998200    227.49499   -123.98354    229018.04   -23319.529    1506.7812    -24826.31    35.063313    4918.8549      80.0358    14.336283    28.852419 
 3998400    223.21571   -146.58102    229018.04   -23378.993     1478.438   -24857.431   -79.001431    4921.5633    80.035359    14.335497    28.843071 
 3998600    223.14214   -139.08997    229018.04   -23377.879    1477.9507    -24855.83   -79.412021    4918.8803    80.034607    14.336506    28.838798 
 3998800    226.22981   -219.97655    229018.04   -23387.017    1498.4015   -24885.418   -332.40307    4921.8395    80.033224    14.336798    28.844644 
 3999000    221.12525   -172.63965    229018.04   -23396.686    1464.5921   -24861.278   -183.32333    4919.2134    80.032151    14.337232    28.844384 
 3999200    226.67208   -125.05227    229018.04   -23380.227    1501.3308   -24881.558    4.6339361    4919.8239    80.031367    14.338015    28.843938 
 3999400    224.76105   -154.42951    229018.04   -23370.784    1488.6734   -24859.457    -111.9643    4920.5466    80.029888    14.338917    28.849772 
 3999600    227.06846   -156.71501    229018.04    -23395.98    1503.9561   -24899.936   -123.81398     4918.134    80.029665    14.339009    28.839887 
 3999800    220.10639   -152.79786    229018.04   -23380.598    1457.8438   -24838.441   -98.115835    4919.1353    80.028792    14.338193    28.838203 
 4000000    229.80838   -184.19767    229018.04    -23377.26    1522.1036   -24899.364   -216.38441    4919.3125    80.027769    14.336692    28.828325 
Loop time of 12096.6 on 60 procs for 4000000 steps with 8943 atoms

Performance: 285.701 ns/day, 0.084 hours/ns, 330.672 timesteps/s
98.0% CPU use with 60 MPI tasks x no OpenMP threads

MPI task timing breakdown:
Section |  min time  |  avg time  |  max time  |%varavg| %total
---------------------------------------------------------------
Pair    | 0.26663    | 3107       | 10274      |6983.2 | 25.69
Neigh   | 2.1747     | 187.41     | 548.36     |1460.3 |  1.55
Comm    | 86.01      | 3795.5     | 9705.7     |6031.3 | 31.38
Output  | 117.25     | 117.33     | 118.96     |   2.0 |  0.97
Modify  | 241.5      | 4836.3     | 11840      |7001.3 | 39.98
Other   |            | 53.04      |            |       |  0.44

Nlocal:    149.05 ave 376 max 0 min
Histogram: 24 0 5 11 0 0 0 0 4 16
Nghost:    815.883 ave 1249 max 360 min
Histogram: 8 4 0 0 21 7 4 4 4 8
Neighs:    0 ave 0 max 0 min
Histogram: 60 0 0 0 0 0 0 0 0 0
FullNghs:  15006.5 ave 44885 max 0 min
Histogram: 29 11 0 0 0 0 0 2 8 10

Total # of neighbors = 900388
Ave neighs/atom = 100.681
Neighbor list builds = 417565
Dangerous builds = 0
write_data 		${DIR}/data.${NAME}_run
write_data 		run_1/data.${NAME}_run
write_data 		run_1/data.ibeam_cooling_1_run
Total wall time: 3:22:07
