LAMMPS data file via write_data, version 29 Oct 2020, timestep = 35673

2502 atoms
1 atom types

0.0 78.752 xlo xhi
0.0 72.97531888075024 ylo yhi
0.059580261156153114 29.940419738843882 zlo zhi

Masses

1 18.015

Atoms # atomic

797 1 19.664055865277778 23.531813556539824 20.918670978417797 0 0 0
17 1 28.723847717678453 2.195789995027417 0.182886852199926 0 1 1
892 1 33.51825671816329 2.473002415370464 0.9764068609339845 0 0 1
416 1 29.421406239088245 0.8459797915295413 2.4656008345662404 0 1 0
942 1 37.473464326170465 1.7961667396951488 1.8607850510254793 0 0 0
37 1 38.25047169935379 17.58728807618153 0.5159022593812036 0 0 1
322 1 22.03407327877252 4.299250097995208 26.613170149121345 0 0 0
65 1 22.421628287856624 4.876465061268789 2.438777943272017 0 0 1
14 1 24.30984418642015 3.886927938051878 0.6915060705945705 0 0 1
15 1 27.00659534512726 4.158998002599807 1.0727622487259105 0 0 1
896 1 33.93163617468225 5.206704232346777 1.6658165041817465 0 0 1
23 1 22.634107536782093 8.08248424254697 29.465840547774185 0 0 0
21 1 25.120327932096128 7.984851619368148 29.779506668093912 0 0 0
18 1 28.223889178039347 8.847191653884297 4.033070154299906 0 0 0
1286 1 36.41477792230955 4.369738372521602 0.41527226283708835 0 0 1
22 1 32.417167660769564 6.797923293866749 29.6925468908633 0 0 -1
1546 1 38.216373496337575 11.194496403622518 26.359372858161105 0 0 -1
269 1 21.178062070958365 10.557300951251262 0.680455729231168 0 0 1
20 1 26.540422056076615 10.371334067724295 29.475853426148515 0 0 0
128 1 26.779045221294975 11.825573808175006 1.679334435047032 0 0 0
31 1 31.466860794855805 8.968883418621422 1.950428105471748 0 0 1
81 1 28.837807010709916 13.5380012063051 1.8372449585844624 0 0 1
33 1 35.39132680789437 9.481296313804336 3.0709788399763394 0 0 1
26 1 35.01364255918699 11.066752731801554 0.9313937524286828 0 0 0
87 1 24.622832260401598 15.049401435010994 3.308839382112718 0 0 1
396 1 27.94126070899864 16.279558333372737 0.9842683195069482 0 0 1
366 1 30.385210401726205 11.417155526224596 0.1877672089001861 0 1 0
387 1 32.014560645800266 14.46117768129955 4.073056815864708 0 0 1
359 1 33.96136277530689 13.290414655120383 1.914099529320819 0 0 1
391 1 36.6057436618451 14.25137624254979 2.7441924229133283 0 0 1
1158 1 33.4272619607406 0.403700791655222 15.14183895565653 0 1 0
98 1 21.07054677357003 14.499176346027662 4.7348563565628154 0 0 1
35 1 27.40494241779516 15.463673072533126 4.112605543389063 0 0 1
25 1 30.521101530522206 16.374514598167647 2.3307133891104224 0 0 1
414 1 28.611443042824707 16.948805167313484 28.31180769440254 0 0 0
304 1 32.50870393158458 17.842222470536484 0.8968449108335715 0 0 1
1261 1 37.84332118800065 5.110352316925068 2.935725031183823 0 0 0
42 1 23.605945942770525 17.952341383739448 29.330505291972614 0 0 0
144 1 21.98307455449061 17.385917374876296 1.6209703725068318 0 0 1
402 1 26.606431705099084 20.067354961451045 0.8047751529546769 0 0 1
30 1 30.860587299593956 20.60417039129926 0.8123932717308956 0 0 1
43 1 36.58109371043311 20.975442372071473 2.2248997238720345 0 0 1
38 1 37.62981636516408 20.304858464500043 29.674390312575014 0 0 -1
259 1 24.62484782723121 21.79146371531741 1.587804985454484 0 0 1
399 1 28.693782125982803 21.98650100281319 0.7436508278848035 0 0 1
727 1 28.66662296680343 23.093008193252167 3.4247300441361763 0 0 1
46 1 31.564871603526424 23.272352180680542 2.2007032765640058 0 0 0
750 1 34.49396590105611 23.04673638581437 2.2444612244786506 0 0 1
1585 1 38.335204363259514 8.466410397760043 25.744492990671183 0 0 0
4 1 25.809359933888423 2.211752548025698 4.30145603684012 0 1 0
67 1 26.88194182228948 4.966340891780476 3.6045211061348814 0 0 1
252 1 28.721617451758213 2.1658928210262527 4.943574825258319 0 1 0
424 1 31.76288358448241 2.8075369053555814 4.581906657176491 0 0 0
891 1 36.072623206997115 2.6902514168565643 4.104377109896863 0 1 1
600 1 38.17056525729696 24.147524549458137 28.81863051576296 0 0 0
369 1 27.44122679397011 0.2787657189670792 28.48528462178494 0 0 0
1 1 24.496126675145753 6.1413893783495315 6.563788268216973 0 0 1
74 1 29.252664354176247 6.577115339634304 2.893834865626153 0 0 0
62 1 27.28134681742274 4.893190328767788 6.542017188736867 0 0 1
56 1 33.676894954284336 4.99515294054209 4.441139415539395 0 0 1
419 1 38.01150482530759 8.014973015902365 2.6403310612174167 0 0 1
941 1 36.164766904436156 0.2265684028310297 5.170851340279222 0 1 0
9 1 23.069089637242843 6.959375843630568 3.8790907370635277 0 0 1
24 1 25.490735750450433 7.6251834914865615 2.817005632200656 0 0 1
2 1 21.17347972594676 9.155253558024963 4.361997143892547 0 1 0
32 1 28.186712862587477 10.043875591594947 6.495590299119935 0 0 0
73 1 31.12314574994808 6.38572852905652 4.975631487385493 0 0 0
123 1 32.857457444889164 8.946988950013832 4.2102401881864235 0 0 1
418 1 34.73464641943746 7.9516184464006425 6.477553902448954 0 0 1
121 1 36.54372777676361 10.228271481760324 6.700641522199826 0 0 1
8 1 22.7833406294255 10.791763872206774 3.144056046832134 0 0 0
36 1 25.572640030666157 10.333814278981613 3.90405915817786 0 0 1
75 1 30.9809119936447 10.561709909425753 6.8686828468630186 0 0 0
83 1 30.196586576806258 11.296152981971701 3.7613816453727416 0 0 1
19 1 36.457793052165734 11.533220474561805 4.407212230274167 0 0 1
94 1 35.89424073428926 12.743535220851635 8.333824210370942 0 0 1
86 1 24.456509150365278 12.951394275462917 4.94293693789653 0 0 1
40 1 26.753188625422393 12.253378923204988 6.467723537143477 0 0 0
133 1 29.308437842064137 13.546892579179142 5.012736990828306 0 0 1
256 1 33.13590806026024 11.821165268558548 4.34078674276708 0 0 1
27 1 35.15800483906293 13.967140695747927 5.569230748513456 0 0 1
205 1 22.847393192784214 3.3127328480982356 7.307749593104601 0 1 0
361 1 27.64512824768972 18.430870708486886 3.0658242222162317 0 0 1
190 1 22.92806443334103 16.700075999440227 3.962981728599936 0 0 0
80 1 31.355847623320397 15.9534062550407 8.06954051367253 0 0 1
405 1 37.00983587298413 16.923208432472045 2.8998076190759563 0 0 1
48 1 37.26548623403092 18.20278974882994 7.5592495797629935 0 0 1
401 1 22.54862351117982 20.196372920178874 2.650177436273918 0 0 1
228 1 23.496993477152348 19.100299896203094 4.8535161133017475 0 0 1
137 1 26.34035981597287 19.411032074069215 5.362895542163896 0 0 0
203 1 30.372412790111753 19.235795900142953 3.2354290297875417 0 0 1
491 1 30.436529238547248 19.488026524653435 7.115877235296232 0 0 0
255 1 34.71769278737852 18.895015313327505 2.76049873447857 0 0 1
254 1 32.55203370145093 18.855451319391307 5.22961134206569 0 0 1
92 1 25.921029157856395 22.616365354604437 4.116149060158687 0 0 1
549 1 28.61560152800614 21.033800790341576 5.386042159664065 0 0 0
534 1 35.64968019746868 22.31265929463383 5.1404720499083245 0 0 1
946 1 21.796568678996852 2.889742512040017 4.434289323340658 0 1 0
53 1 21.888854719947414 1.7981581970920029 9.853025703131197 0 0 1
404 1 28.090303038300465 20.57210641322901 26.66022955999118 0 0 0
260 1 25.096130293324357 1.0849441826895985 7.03604672246023 0 1 1
943 1 32.069555966475406 0.7253089118424169 6.557899838413628 0 1 0
12 1 30.317373883297634 0.054677646800527585 25.475944155618837 0 1 0
940 1 33.76996231641 1.279632360009683 8.535462364551902 0 0 0
156 1 24.37456327162624 3.079508749238553 10.215765300534942 0 0 0
108 1 26.694728762130456 2.9030321751921 8.337164106595301 0 1 0
55 1 30.050368091856992 4.359964883650382 6.806889258963822 0 0 0
111 1 30.816848136493114 5.0963207652005424 9.12041106093753 0 0 0
11 1 35.921662763553805 5.471936691008658 6.248219210532715 0 0 0
106 1 34.91794356890025 3.8363477264126304 8.472116406574033 0 0 0
61 1 24.85512349878729 8.868456621689678 6.656327993452649 0 0 0
182 1 27.41981971392415 7.5442209280440045 7.742012080784761 0 0 1
109 1 29.403366282583768 7.371120073570444 9.638615639823957 0 1 0
57 1 33.69139388155237 8.084249440951618 9.020324838613133 0 0 0
79 1 22.28451323887961 9.897003186442895 6.706884480679223 0 0 0
119 1 25.58878434432774 10.391806550917039 8.960688342691435 0 0 0
166 1 28.158742570448396 11.435990574284668 9.439568140102486 0 0 1
70 1 31.02832657983211 9.492980869385251 9.354009270056192 0 0 1
233 1 38.98874504220441 12.60877949777331 12.223706608483765 0 0 1
66 1 22.375150169493697 12.668377313492764 6.66993381562519 0 0 1
78 1 21.292863942841365 14.816605527752003 8.611643345309448 0 0 0
88 1 27.707956542413665 14.338879246890222 8.410636148810314 0 0 0
129 1 30.4232935887862 13.237155965705487 7.992091884625011 0 0 0
117 1 32.26976270830638 13.254899557183819 10.578976849025137 0 0 1
71 1 34.62347356375985 11.806382000634782 10.35528675726125 0 0 0
93 1 35.42795999787093 15.909461607337496 7.4892239815776405 0 0 0
49 1 21.713013346555382 0.43568263216785896 28.049257401885573 0 0 -1
96 1 22.158888085101275 18.38204989920329 7.511199373745119 0 0 1
90 1 23.064176650611596 16.176034038817118 10.268587873911093 0 0 1
126 1 24.922997540134634 17.393003579617435 8.365881951297832 0 0 1
77 1 27.03879133962477 17.21167259622987 6.619785233699472 0 0 0
140 1 32.880604779402574 16.27763975737546 5.850027461763514 0 0 0
149 1 33.09744435884996 16.749329495169185 9.863292207293757 0 0 1
1335 1 35.73407330395741 15.567631866363962 10.361268519001174 0 0 1
222 1 22.616828360249006 19.456105674238422 10.24811961126029 0 0 1
488 1 25.11169418625717 21.667265363015968 6.937369970165923 0 0 0
145 1 29.188306342491977 17.36102956155943 8.510352486681372 0 0 1
147 1 29.236397658232274 19.017956873697045 10.921042859017634 0 0 0
196 1 31.112988910663177 20.754070530731468 9.253773156036129 0 0 0
50 1 33.6836552956175 19.54682082963901 9.221969454585107 0 0 0
1403 1 34.892073720917935 19.771629356791063 6.659288097378272 0 0 0
1552 1 38.800733104404124 13.05575296848942 0.9619446711722965 0 0 0
368 1 22.17303940545636 23.830184490728797 8.825450637882717 0 0 0
544 1 22.29308330723244 21.146380062112318 6.999660706962893 0 0 0
155 1 37.786519724787404 7.066365047270207 13.203282948212571 0 1 0
91 1 28.214185465116262 22.26676528815484 7.945422582573124 0 0 0
247 1 28.535695711247108 21.67154647158753 10.859654684110275 0 0 0
358 1 38.56407632330506 15.71062724555806 24.899728301860474 0 0 0
1358 1 33.76442306238285 22.942546178375768 7.3207358591260325 0 0 0
131 1 24.434656768921958 0.967137164071867 12.36730618322914 0 1 0
110 1 28.25001081224142 1.5340825159095395 10.33487501496942 0 1 0
1004 1 27.183847247433487 0.8831487882925786 12.843812593622488 0 1 0
1165 1 28.05331117303556 2.495418670585661 14.58537978302795 0 1 0
1054 1 34.57944466285018 0.7445254948866173 11.448837044368107 0 0 0
1005 1 37.57178797529738 1.4356645758134963 11.666539298270836 0 1 0
165 1 23.358554636856695 5.016839302539099 12.692966850435692 0 0 0
948 1 30.14004418007952 3.3906010422454997 11.064142708921528 0 0 1
7 1 33.347764585895476 5.5612431317611986 9.781217560534763 0 1 0
213 1 33.68286651651507 4.963238821460057 12.343918340789457 0 0 0
880 1 37.301101732775024 3.6748084671751737 10.23280213912848 0 1 1
63 1 36.40806991661115 4.618420188479898 12.810805076829585 0 0 0
162 1 21.67450441833649 6.947502358192321 9.892739796479246 0 0 0
163 1 24.07359521149519 5.707191172038892 9.238729068306574 0 0 0
115 1 25.734255746508182 7.682803537437678 10.17693146283808 0 1 0
159 1 27.937995358054906 7.399308198934603 12.004775072180777 0 0 0
360 1 37.68059729804068 8.259490366453408 10.869621946598821 0 0 1
314 1 39.22127050091614 3.6767528839637036 16.47349547185331 0 0 0
72 1 21.55575070273184 9.875466789324687 9.629111429362476 0 0 0
178 1 23.58401441784209 11.201891396151527 10.973028940200301 0 0 0
168 1 27.49243029083983 10.090740551174761 13.369800467873661 0 0 0
134 1 28.312777496565776 12.33638092433282 11.958897215114325 0 0 0
116 1 30.816655552132616 11.156969112036395 11.701179390150905 0 1 0
884 1 32.281129683632514 0.3119746204566994 2.2424411585570834 0 1 1
69 1 35.25812227296459 9.122480380089305 10.961167128655935 0 0 0
172 1 24.580290738924347 13.657726123553443 8.503881951472074 0 0 0
185 1 26.94811770226066 14.606103596191872 10.972412199548936 0 0 0
135 1 32.22220037737345 15.645236761616596 12.30577408121039 0 0 0
188 1 34.6334540170875 15.384284577220999 13.81386499269352 0 0 0
1559 1 35.99485357495057 13.372211104982004 12.237106482174326 0 0 1
755 1 25.323526648411153 23.85440442130037 25.642020776146783 0 0 0
127 1 24.32578515986073 13.997851408233712 11.34023271384736 0 0 0
189 1 26.878198991485814 17.66082587285571 10.834606176304838 0 0 0
187 1 28.521557083251643 15.645733472844626 13.42841466395847 0 0 0
132 1 25.12397667481188 20.109581521583177 9.734838742539496 0 0 0
99 1 23.212872637394156 18.058019585539448 12.833991462261315 0 0 1
139 1 30.24132852405407 17.8955992321461 13.246153790851237 0 0 1
240 1 33.66470214443659 20.430641517575587 15.124210877043474 0 0 0
194 1 35.5426460335175 20.681886908003477 10.802738438239867 0 0 0
1770 1 37.5101181358919 19.46837004181554 12.263372792239322 0 0 0
244 1 22.87065333339304 20.8176411298276 14.04425466646055 0 0 0
237 1 25.53491364027036 21.09651242998018 14.247354498454929 0 0 0
34 1 38.301547061958445 21.114370583142847 8.000171084860868 0 0 1
539 1 25.929754622472206 22.180697074866682 11.674215548376406 0 0 1
141 1 29.23606765890215 22.71554499373809 13.15334735999234 0 0 0
41 1 20.176773052825606 16.62148299061586 6.486594945864301 0 0 0
202 1 34.0699243691297 22.026034421950882 12.862451258364304 0 0 0
687 1 35.81338780483819 22.651787655191068 8.930338885548483 0 0 0
152 1 26.09174031518027 3.269608177025078 16.420880206685773 0 1 0
1107 1 29.288067536777305 0.5018097068575985 16.307370781350976 0 0 0
1114 1 36.24034051416766 1.0043582223053242 14.424247475810995 0 1 0
210 1 21.439703569434762 7.024194083918099 12.865102804569963 0 0 0
157 1 24.0061867908833 2.8427988677298086 14.485640683508608 0 1 0
158 1 28.643015549891583 4.730959663282532 12.849128914387668 0 1 0
271 1 31.62210654356935 4.309745542648726 15.763106384782802 0 0 0
214 1 31.21451457247158 1.8595514524787669 14.700135824958195 0 0 0
154 1 32.60095965887982 2.3767179294510417 12.211704642803255 0 0 0
850 1 36.65196101915243 3.6791179346795557 15.75265300441 0 0 0
170 1 25.426073982538448 7.012718418952607 13.398741126681246 0 1 0
218 1 24.552086594816252 9.907907685334834 13.274018212089368 0 0 0
206 1 30.094791314080947 6.6955036032631705 14.483738411516244 0 0 0
351 1 33.06213539015806 6.659686582977604 14.158028619576411 0 0 0
174 1 34.464160629222114 9.184824925551023 13.57889655846132 0 0 1
161 1 34.66581292235258 6.6293315331242875 16.40253420064121 0 0 0
1479 1 37.222966311377284 7.57073370039471 15.896542299765825 0 0 0
225 1 24.103688008596116 11.95919528300392 15.192559949724364 0 0 0
164 1 28.493006753290693 10.804908551797455 15.923246449259576 0 0 0
122 1 32.24487675167996 10.998247501286396 14.044447928060146 0 0 0
160 1 36.74360606854819 10.059853647636249 15.033027063147433 0 0 0
217 1 21.92438311822407 13.546066581223073 17.001857454939902 0 0 0
286 1 24.135571896611843 14.71003277436334 13.920884381454824 0 0 0
124 1 29.50285463846893 13.373654396381834 16.18088234149175 0 0 1
195 1 30.565032719179946 13.94653575744809 13.685182315405793 0 0 0
175 1 34.201644164407725 13.162000997604478 15.13441188546244 0 0 0
1522 1 36.2842743499138 12.273164249760882 16.545291713559543 0 0 -1
1474 1 38.11247665433705 14.150426821784624 16.82445793855069 0 0 0
229 1 21.628841320174665 15.215262317619894 14.522009199446908 0 0 0
230 1 21.917085523060898 17.771695039064067 15.368590315178034 0 0 0
243 1 25.6432797019877 17.021744898003938 13.35509494028982 0 0 0
181 1 28.240678032311056 16.612785081703993 16.111174594735456 0 1 0
245 1 25.62839493102982 15.750396970647252 16.57177144524399 0 0 1
287 1 30.22158985246615 17.965256306807042 17.930324465322396 0 0 0
232 1 34.8402249655964 17.649682075709524 15.478394096468792 0 0 1
84 1 37.35722954724215 18.156640837449544 14.754022593348331 0 0 1
183 1 27.234741697210428 19.17442718828216 15.328344887189486 0 0 0
285 1 31.311909717949565 20.503632423678198 16.86056285681429 0 0 0
349 1 29.61143194292104 20.270824248245454 14.720223825689715 0 0 0
150 1 34.82324821234521 21.477925226769933 17.512013469444145 0 0 0
242 1 38.536620406290126 17.92798047068902 5.2083214679344065 0 0 1
199 1 23.880374965934575 24.07661002441126 11.274617438650756 0 0 0
101 1 31.413026029860152 23.63508889769947 9.183395967795391 0 0 1
1561 1 39.050009488425516 11.559506956337808 3.5898996859813477 0 0 1
949 1 39.36071277782822 6.068288635290751 5.59532996750033 0 0 0
702 1 21.145003387924614 24.18994103749733 14.427232500161534 0 0 0
208 1 37.151002103987004 22.437196274492326 13.89919147194871 0 0 0
708 1 37.60805021180069 21.726522417583325 16.91557123421527 0 0 0
1106 1 22.905151346458794 2.5130480575732244 17.408624759034645 0 1 0
211 1 25.599842429148108 1.329982405794916 18.315730313653887 0 0 0
263 1 28.384105216174532 1.167659037925173 18.98232645299014 0 1 0
1566 1 39.188390506256994 0.9411978213563565 22.94657554351111 0 0 0
220 1 32.231086635152096 1.6590768745291864 19.433474427612026 0 0 1
118 1 39.27688705298866 9.242783460880776 6.939381706636792 0 0 0
261 1 22.759737844870155 8.680657749151417 14.778522542511947 0 0 0
316 1 23.997569972532627 7.34251792929138 16.854164222871734 0 0 0
257 1 28.99394430293639 4.665374211067941 17.1421351402581 0 0 0
258 1 32.48952965716841 3.9712416198654874 18.12717725969225 0 1 0
1611 1 35.172231414637956 4.503031206465445 17.717910061331303 0 0 0
268 1 36.66510896558022 4.864996279625326 20.003287955815313 0 0 0
276 1 21.211497414001368 10.87172480217636 15.69031805119729 0 0 0
167 1 26.30582894965746 6.09265884715221 15.927991435539138 0 0 1
221 1 31.163206930811917 6.108635015579502 19.1923378537216 0 0 0
180 1 28.878817300328247 7.9136606458500856 17.04882059271556 0 0 0
226 1 32.7758067456516 8.025350463964712 18.001109171244025 0 0 0
270 1 21.631591393217846 9.940409028850842 18.41730330767607 0 0 0
120 1 25.93550968684123 11.536712558151843 16.937800958051373 0 0 1
224 1 24.696548542326806 9.503232246810239 18.539143870813756 0 0 0
223 1 27.831071924075683 9.800572231370017 18.998950035113594 0 0 0
334 1 29.14803484586527 11.994390527432953 19.90461521250097 0 0 0
288 1 31.379895827410554 9.935935810610726 16.3390841380094 0 0 0
336 1 31.649332713760586 11.5336038703665 18.972861489412434 0 0 0
2403 1 33.747963448944 0.586614900039982 26.85492022463183 0 0 0
378 1 35.84132055759506 11.66546332486746 19.40175377600248 0 0 0
275 1 24.762587359723838 13.780418862855374 18.3639978088716 0 1 0
330 1 20.403569591877247 14.64210517431068 19.538044323485217 0 0 0
239 1 32.18269793437739 13.587272797153544 17.07232880840072 0 0 1
412 1 26.7953113858703 22.9862784138136 28.04715142598502 0 0 0
238 1 24.236276373264246 18.045751037953845 17.432860719802708 0 0 0
284 1 23.116540252542453 17.621784822107244 19.81948481905948 0 0 0
231 1 31.92706192320034 16.04802255951878 18.749702121266083 0 0 0
333 1 34.645270887746236 17.0225744253326 18.20691001524337 0 0 0
250 1 38.469016572715596 19.02372592548913 17.00060964238364 0 0 0
340 1 22.167645600193115 22.404435548641782 16.44846220238059 0 0 0
283 1 20.580508507049583 21.545338155923826 18.550981918794438 0 0 0
179 1 26.221905589719515 20.00588146223834 17.881782234036752 0 0 0
246 1 25.18092370862355 18.72317764388971 21.50087314304324 0 0 0
427 1 28.95752923265452 20.060893590421013 19.567048152862426 0 0 0
752 1 30.355234020796352 22.524636902873794 18.721148672582032 0 0 0
1491 1 34.80265673213777 19.47777052543006 19.409420080469246 0 0 0
647 1 37.659285662885964 18.83873766874553 20.014516884956503 0 0 0
291 1 25.014630296499714 22.248549216720207 18.103053759549233 0 0 0
1173 1 37.80370768623978 1.5884726185380924 8.036309764221274 0 0 0
186 1 33.006807514960656 24.20559094326073 17.531271271767675 0 0 0
834 1 20.65587427823958 21.398248136979067 9.51845780932642 0 0 0
262 1 21.900918035865587 2.09456618044596 22.242172870561422 0 0 0
306 1 24.875481781296997 2.497769940707896 20.96643034345287 0 0 0
272 1 30.666111323311714 2.4410111023295316 21.823636302991908 0 1 0
749 1 31.33076872875657 23.72782827728481 22.573689353662306 0 0 0
312 1 34.9633883340239 1.0815322238561274 20.69104041298253 0 1 0
5 1 37.80582691124544 3.442736843922167 6.018268372824745 0 0 1
219 1 22.35800686149099 3.8234439654086083 20.06137153665023 0 0 1
212 1 28.94465453300535 3.8717920131486347 19.80234706606697 0 1 0
290 1 34.52301339036827 22.57166407566636 27.427700902847054 0 0 -1
171 1 36.82326550238401 2.929551080109151 21.79846404470496 0 0 0
393 1 20.67928445149392 7.7913014725499385 20.287893412271842 0 0 0
173 1 26.684286443553052 8.716961457107631 21.12700952700473 0 0 0
264 1 22.984140331256217 6.599860535391713 19.388599665616873 0 0 0
321 1 29.00693417583281 6.928077500283386 21.4653483629948 0 0 0
310 1 32.48245374768416 6.385492969949877 21.625585458183423 0 0 0
1514 1 36.22709403433096 7.3432233889117375 23.993297934952757 0 0 0
1525 1 37.65272888340555 8.615382662427065 20.484994106398194 0 0 0
1475 1 35.21351656795209 6.845056861852563 21.436648335998736 0 0 0
278 1 24.275919793140375 11.51049505069335 20.337115448281 0 0 0
372 1 28.869776028328285 10.367505143397977 22.406942084552682 0 1 0
386 1 31.262119620775486 8.846706394498163 22.475516056693433 0 0 0
234 1 34.57557190987194 9.236928463210186 19.87131108142908 0 0 0
113 1 33.441046139478395 10.449215790341771 22.438650630359348 0 0 0
1628 1 37.87475630614232 11.353024070300966 23.076940577233927 0 0 0
400 1 21.42595950423377 12.204814287119254 20.076477131142724 0 0 0
346 1 21.796880626591133 12.42357549663391 22.585435915152825 0 0 0
328 1 27.85679537387904 14.047614810513581 18.366181780055857 0 0 0
344 1 28.383568202951842 15.76585869110038 20.562940232309433 0 0 0
324 1 32.59492597241811 12.78948349811861 23.991713654011757 0 0 0
1538 1 32.61856433500537 13.170272872692374 21.08423168101143 0 0 0
1498 1 37.56035299345147 17.719889790715712 10.252478145754365 0 0 0
335 1 35.26713041673808 13.80799152559542 20.690053349050366 0 0 0
339 1 23.459572631670635 14.933396770141954 20.361841975941996 0 0 0
353 1 25.912830443385115 16.23395614894543 21.918321574251546 0 0 0
200 1 31.19474279590121 15.761997990145122 21.18379192422604 0 0 0
305 1 30.833685234789932 18.8153088544943 21.483489800515642 0 0 0
289 1 36.92915825803141 15.555957309690653 18.958178562648627 0 0 -1
1591 1 34.93532448018969 18.667882734937788 23.956509783207633 0 0 0
1486 1 38.30598999836317 15.704153877751446 21.300282194014198 0 0 0
594 1 31.81016836430116 23.30159284476364 11.91778088653635 0 0 0
799 1 23.602412218004872 21.82116682354985 20.77779139155787 0 0 0
407 1 21.48665334264692 19.891183359993054 20.429208406473695 0 0 0
303 1 33.55527663218241 19.76187115467473 21.740891127992775 0 0 0
441 1 24.39441978406194 23.406529383124195 29.30805514347354 0 0 0
295 1 21.602468298044094 22.23253906507735 12.04204290181356 0 0 0
331 1 27.280745930649378 23.239362978177194 19.49539291079356 0 0 0
296 1 27.14173824606209 20.979800721829704 21.82429121511655 0 0 0
748 1 29.742957926260203 21.60592396134022 22.588394347701854 0 0 0
1617 1 33.83521030099482 22.499916864861028 22.414349765867314 0 0 0
648 1 38.90748908360134 21.161288569620822 20.993064921614017 0 0 0
436 1 36.59765973853987 23.05646612944971 21.929643947620047 0 0 0
1154 1 21.890394467859423 1.8560261579294217 25.280711677340406 0 1 -1
362 1 24.300755747507715 2.9603548899541408 24.23642758744689 0 0 0
380 1 26.053442446352264 2.1719121989990304 26.523883930182645 0 1 0
317 1 28.432165133086713 2.2501665370234876 25.022410343210783 0 1 0
45 1 38.60365648613934 6.987956492391216 8.453388108574197 0 0 1
1530 1 38.495937597486915 11.043142878587352 19.21689837109613 0 0 0
315 1 23.99157321349927 5.944512283450406 24.48868700235603 0 1 0
320 1 24.886242931072378 6.785233434304194 21.869563879815068 0 0 0
323 1 26.7702922559354 4.728883760799982 21.605291611282315 0 0 0
390 1 28.943585305966227 5.0935695170407 24.117465302959364 0 0 -1
274 1 31.621546402758597 4.350901185102677 23.426489473223427 0 0 0
318 1 27.878241903537496 1.8843388321369008 22.312633001234563 0 0 0
375 1 32.68088330067939 1.598347778333566 24.335843980407628 0 1 0
426 1 37.77732448678115 5.027112487821576 23.661166969333408 0 0 0
384 1 22.047084661774278 7.803215534286229 22.771440502609252 0 0 0
428 1 20.577386594190084 6.41773024934018 25.24116084173206 0 0 0
392 1 26.756270576136746 9.134063538077674 25.30364299009471 0 0 0
266 1 29.37803089357774 5.878624099446513 26.75240019766414 0 0 0
267 1 34.031529551891744 6.6255640587747475 25.56578077406698 0 0 0
385 1 22.85325822809677 10.270465730559692 23.73292220757919 0 0 0
281 1 25.556429939569227 10.532790883326985 23.051949202600486 0 0 0
389 1 31.536090336311506 8.596737263482613 25.162532484266578 0 0 0
376 1 32.19294831110212 10.778552389671374 26.595254539130767 0 0 0
47 1 34.98713948786753 10.238323937973178 26.61886029768352 0 0 0
280 1 26.49593653341479 12.985876981552787 23.518075644528146 0 0 0
198 1 24.162307025264322 15.953435200010308 25.721551278473935 0 0 0
279 1 28.935302486692784 13.615211559271525 22.403295746270448 0 0 0
327 1 30.696662994554078 14.992988527231068 24.196908688361027 0 0 0
326 1 35.74554457825594 10.123210128265768 23.89970986933711 0 0 0
273 1 36.625025507453465 14.111254402684565 23.148489237372996 0 0 0
332 1 24.052109058743405 14.437356799208185 23.125525672684415 0 0 0
394 1 25.685481668234253 15.086316498511312 29.082716908274215 0 0 0
329 1 27.649072130732065 16.5143087310903 24.41658849554796 0 0 0
343 1 30.29123545710989 17.96719829880726 23.986771611360084 0 0 0
342 1 34.48737961311178 14.33531452023221 24.96674939079824 0 0 0
151 1 20.14428519391818 21.42942554658626 22.831940797562613 0 0 -1
338 1 21.296579821107926 19.496928328274716 24.972317766267945 0 0 0
277 1 22.09347093836906 20.092944978681487 27.72688925939201 0 0 0
406 1 23.907880773003164 19.573207782851053 24.135128332659608 0 0 0
751 1 31.861244813595306 20.01760128264021 25.89411196924412 0 0 0
345 1 33.173080754848215 16.96554306695274 25.361608127009106 0 0 0
1878 1 34.36842206392661 21.2221074619397 24.91882228988685 0 0 0
64 1 37.53732884848028 17.854402595108684 23.30301925095039 0 0 0
13 1 24.911233854107017 21.965855829325626 23.52278763878542 0 0 0
354 1 21.903217873685854 22.989518087488264 24.4730018612237 0 0 0
410 1 30.057427389793723 22.174032277300746 25.38301781134963 0 0 0
1350 1 37.906428287311186 19.325421548337893 26.241593070522818 0 0 0
757 1 32.303430543858006 23.794724381529225 25.828890005253133 0 0 0
408 1 37.278875299509075 21.85636116257073 26.912255578918472 0 0 0
146 1 26.338014741082326 23.432354083438394 15.887697492470926 0 0 0
1352 1 39.03507407345105 10.028561939183971 13.346195729560506 0 1 0
388 1 23.14045536514044 1.5825321717239902 0.4031667992325284 0 0 1
429 1 21.0316431181062 3.53860106843726 29.146561268755985 0 0 -1
381 1 24.90514080258815 4.478999888057816 27.645880526224698 0 0 0
1473 1 36.423483703295545 17.637586697649457 28.075148608252356 0 0 0
1319 1 35.09862202201584 2.369273696136148 28.389083710702877 0 0 0
2328 1 38.98818745755786 0.7791520583695075 20.00132750504549 0 0 0
1255 1 37.76714523102308 1.2886196024750625 27.85423120926463 0 0 -1
52 1 37.571780727173326 23.344932389163784 24.48886787111641 0 0 0
16 1 20.877693342510305 5.963625997881997 0.507251858253453 0 0 1
371 1 27.119394525869307 5.907714480639441 28.745364962775767 0 1 0
425 1 31.34103090215276 2.2968768820469947 29.030122876542023 0 1 0
319 1 31.824419356402686 4.966804540017142 27.655019383164856 0 0 0
374 1 34.04488930910431 3.958368224003255 25.674869823649352 0 1 0
1601 1 36.77833373406999 3.863517016813314 26.221841983045042 0 1 0
373 1 25.163030670022376 7.170363158412379 26.547317160426154 0 0 0
379 1 22.564473501586836 8.165074851716929 26.868689458450273 0 0 0
430 1 29.655176743108292 6.846492321331334 0.07015086688938184 0 0 1
3 1 34.90945117040056 7.7740865619463175 28.195896461503704 0 0 -1
248 1 33.25881397540064 20.203264294859185 28.66139322755201 0 0 0
308 1 37.484166866157686 5.963598952479399 28.222184828126863 0 0 -1
377 1 22.997272335375786 10.758529551860628 26.52350203823241 0 0 0
423 1 25.72511617164573 11.185558006883491 26.95700862134997 0 0 0
409 1 29.165233566853544 8.591988006146174 26.316018195614856 0 0 0
382 1 29.14139734741285 9.314418298583316 28.97358996787374 0 0 0
68 1 32.97719218943291 9.933057084131404 29.471204412719164 0 0 0
39 1 22.89691973696903 12.354978693512907 28.83653144951938 0 0 0
236 1 24.755008458323392 13.249403641841822 0.9044515803287273 0 0 1
29 1 29.701490269842942 11.74270196715845 25.051355677815284 0 0 0
265 1 26.507511582819866 13.712806953674836 26.305459774990158 0 0 0
307 1 31.04942999780084 13.095137868510665 27.89568748022687 0 0 0
398 1 33.03671274055329 14.681752088640748 29.530001463067865 0 0 0
104 1 35.3404058672225 13.624693585095113 27.771719313575968 0 0 0
300 1 36.7385978352536 11.609342073560853 29.12462512810148 0 0 0
337 1 23.22230168540123 15.380100420997682 28.134602540497703 0 0 -1
395 1 29.27671034339339 14.805079907509539 26.51413213740848 0 0 0
397 1 30.072202399956176 19.26028463949349 28.056575681911156 0 0 0
184 1 33.821031954241036 17.34788101253971 28.266751126397825 0 0 -1
1647 1 37.43604911230338 15.299435547294262 27.57342004678014 0 0 0
487 1 22.742713232207205 22.79936102221584 27.126243634503826 0 0 0
411 1 26.12464858793418 18.625905783125955 25.484236518939927 0 0 0
403 1 26.2213413408277 18.33325617847889 28.51114360656225 0 0 0
1426 1 37.96366310022922 15.317530797578863 13.873772144204818 0 0 0
1000 1 23.062220594018708 0.37563084502825883 3.287210672535165 0 1 0
1396 1 38.303375340934686 20.500748349836726 4.193403102821711 0 0 0
1280 1 38.89244570772853 12.245747742571425 7.753485848801298 0 0 0
294 1 22.2013779917795 24.309928947927588 20.221809783869407 0 0 0
1596 1 39.078531761948575 8.833994550546624 22.946749879934593 0 0 0