LAMMPS data file via write_data, version 29 Oct 2020, timestep = 25673

5638 atoms
1 atom types

0.0 78.752 xlo xhi
0.0 72.97531888075024 ylo yhi
0.059580261156153114 29.940419738843882 zlo zhi

Masses

1 18.015

Atoms # atomic

163 1 13.99620178601875 23.958708955369108 25.771453280045403 0 0 0
4187 1 5.395471649963003 2.3781181498758155 1.6908792011170493 1 0 0
5184 1 8.546017035294408 2.0961783569575947 1.5068603399146763 1 1 0
205 1 14.43905165126638 1.9914299208455495 2.011932367683133 0 0 0
1813 1 14.233804792373554 2.880014305326605 4.747465081309759 0 0 0
23 1 15.580637277438035 23.17627255996504 29.377291034480418 0 0 0
2 1 2.731386094306569 5.741276304049936 28.221430311979724 0 0 -1
389 1 2.699166864836361 3.4467706882752216 2.1071747652144146 0 0 0
4322 1 6.204677002556577 6.4960321816481805 2.4631095784967507 1 0 0
50 1 12.966473740306625 4.328177310021531 1.2945347684596193 0 0 1
2653 1 17.01507405518267 4.365727924902343 4.605904302750931 0 1 1
226 1 1.946492714094495 8.15693770102402 29.172731621683837 0 0 -1
385 1 7.034637065956279 6.515141102870387 29.59320000199837 0 0 -1
140 1 11.941350375478992 8.026275848799678 29.258202536423543 0 0 -1
1245 1 15.328951181685468 7.99987265080171 2.3996532938851036 0 1 0
1756 1 15.758431069658881 10.168028262648008 1.1572483191899756 0 0 1
386 1 17.69726151120242 6.557657979235926 3.1494330597364084 0 0 1
374 1 7.56069857402507 10.527774421922715 0.8067492430820582 0 0 0
82 1 10.2960158303361 9.901126044304805 0.7215627012947764 0 0 0
397 1 11.655727747038775 12.206538902610822 29.794858297749702 0 0 -1
380 1 15.362991051808763 12.132217182960874 2.730425943730166 0 0 0
371 1 18.336532887084395 12.483685181511616 2.8545737639954765 0 0 0
4217 1 4.037117118465919 12.355015930895155 29.899935378603836 1 0 -1
4473 1 1.0247684597913695 3.3393683073825633 23.625891292816018 1 0 -1
436 1 8.728435511945927 13.037318331749733 0.28632862455933883 0 0 1
241 1 14.186978441051325 15.048282567423666 2.0882426288425107 0 0 0
234 1 13.729492827484979 15.635589501300213 29.11560705874973 0 0 -1
177 1 19.18180223586826 15.419835799550064 2.4685942392882403 0 0 0
4428 1 1.9328491915680077 17.835017569894617 1.0909519672258428 1 0 0
4486 1 5.4483584570149 15.23102294770725 29.787621194363183 1 0 0
157 1 2.6938822861162115 15.23693910251193 1.2971799571359146 0 0 0
219 1 9.1118887438353 14.865587131516062 2.7459929144156074 0 0 0
39 1 7.401529462706691 16.71941073033521 1.4717681549732649 0 0 0
3 1 12.622524455131856 17.90095206183442 29.870632454609176 0 0 0
75 1 12.930323273965325 23.27619721498738 28.40915749236505 0 0 0
292 1 16.54562583718309 19.005920261267235 2.742771662602644 0 0 1
63 1 3.6140183651754527 19.926284747213337 0.0631980473805811 0 0 0
5140 1 5.239783926580859 19.00413123547834 3.666361388805088 1 0 0
583 1 8.723535044302826 19.44851142185956 1.3123703118752175 0 0 0
404 1 12.480575093953526 17.61337993311063 2.690065075044361 0 0 0
293 1 10.692321454330962 19.96979605668031 3.313587610311608 0 0 0
271 1 14.065839541713517 19.623526546169334 4.001465555682001 0 0 1
143 1 11.930604406549364 21.322323802835804 0.5797381195153736 0 0 1
1659 1 18.9428379002536 21.51671664679052 1.5726287421299388 0 0 0
507 1 19.5105368868427 23.063023380010666 16.82685232354465 0 0 0
853 1 6.030220708816762 20.90581028225675 1.1743872175952155 0 0 0
1257 1 10.731614609124332 2.08417223039447 12.883849680513478 0 1 0
350 1 9.659186911324312 23.01158457067588 1.5880490169177666 0 0 0
852 1 13.751992969994477 22.000012127611758 2.825417290742674 0 0 1
646 1 2.481533180895117 20.2783400691043 25.11566931532151 0 0 -1
1372 1 4.6257348741487005 0.569860415596247 5.040829913022224 0 1 0
1090 1 10.320154127882835 2.0771579173683112 6.351738863529374 0 1 0
16 1 0.23801197164149152 13.682467425370463 1.7694115587309982 0 0 0
396 1 18.434074800470903 2.129209024639873 5.816313358531121 0 0 0
1331 1 15.833079106562092 0.28576457649328135 17.022510758820015 0 1 0
326 1 1.9438679860946744 1.7714152236575176 4.239979200350927 0 0 0
427 1 3.967410427087477 6.2174748278235255 5.418089809838872 0 0 0
73 1 7.17662789813685 4.1207018392928525 2.9753977331167114 0 0 0
1165 1 6.506822917024118 2.597742442209981 5.404625661400114 0 1 0
329 1 12.205404141214766 4.80284120575595 3.971218191314826 0 0 1
1385 1 9.560878963415005 4.272907654148293 4.870404914340198 0 1 0
6 1 17.771020176571323 3.7351260614837014 8.942426282504517 0 0 0
4569 1 3.439265087276101 6.130626110874213 2.7220630196040174 1 0 1
165 1 6.901474696199062 8.532472206409222 4.185377180715955 0 0 0
336 1 13.18267854174726 7.567169782222346 4.218457146043601 0 0 0
33 1 10.9893662051803 9.267744076462083 3.841133106599067 0 0 0
1076 1 14.616758273349008 7.233485810790103 6.737002957364645 0 1 0
1422 1 18.40293474034504 8.403005628431861 5.045484196893519 0 0 0
347 1 17.40164391061207 6.1767349491060575 7.129566268403249 0 0 1
4315 1 2.077542946850455 8.56931857054795 2.054431580473358 1 0 0
4198 1 0.4780678995549301 6.881602413338605 17.450846541102763 1 0 0
202 1 3.24802644882191 11.085148194544553 2.4651548005517 0 0 0
349 1 6.023654360652392 10.875340395532195 3.005944869790919 0 0 0
281 1 13.270902026136444 10.927832376375147 4.442426938280011 0 0 1
1428 1 18.41352729637634 11.251149810504492 5.363333887714652 0 0 0
882 1 9.958458439071299 22.163753305927802 28.13955731656984 0 0 -1
438 1 2.9571290189568726 12.671861695271527 5.119869182200015 0 0 0
4531 1 0.7482169066174418 14.05737014900134 4.271047555744152 1 0 0
42 1 7.232076834367363 13.030608960731012 4.346567168848179 0 0 0
1 1 11.961800774072413 15.49881282472394 4.880802439701701 0 0 0
100 1 16.121957781300974 15.774682365556654 6.0614217258554675 0 0 0
1721 1 15.071637544127945 13.44789424353792 7.191362605783959 0 0 0
4584 1 0.04938859412970409 13.36164129875607 18.8251616578368 1 0 0
365 1 4.597503770357504 14.351295737748297 3.3235774940601126 0 0 0
432 1 11.961992600422326 13.223486565778638 2.7173433715222934 0 0 0
251 1 13.59462046230655 16.84235576779952 6.6006321508184325 0 0 0
1624 1 16.468068570011567 16.326716918895332 3.1681647077086077 0 0 0
5118 1 2.56294976733557 19.522101603381522 3.2206717955521587 1 0 0
602 1 6.214590959338469 16.34993521428053 4.466574940414321 0 0 0
166 1 6.870290053863313 18.9045343617734 7.80841300869814 0 0 0
57 1 9.101502471921933 19.14273615809626 5.687334157955787 0 0 0
198 1 13.226295921898108 19.55778650340761 7.342479450047319 0 0 0
131 1 15.99884470464606 20.178011715098894 6.081219964973272 0 0 0
2052 1 18.346315929225504 20.927803781944352 4.386679959692459 0 0 1
4612 1 1.1536131127856017 11.958832868813802 29.670833844463615 1 0 -1
186 1 1.5392771846207292 23.679476919879395 5.334590917382561 0 0 0
175 1 1.330121305382566 21.905978517670146 3.179521062537735 0 0 1
287 1 1.2669978272923987 1.9026151091058094 8.980706581571969 0 0 0
778 1 6.427340123670418 21.641524592522263 4.26541591831757 0 0 0
252 1 8.511382267613945 22.688976726957723 5.970275822951514 0 0 0
490 1 11.965533068578182 22.843658944048045 4.690598733867281 0 0 0
32 1 13.188827393581077 23.630120150322103 7.189857209024092 0 0 0
2145 1 17.828011811820815 22.754615857899214 6.593101065682312 0 0 0
4339 1 3.1133853553472646 3.9592539212831985 9.424681050283988 1 0 0
101 1 5.084077899652661 4.286378512187548 7.367315595341521 0 0 0
425 1 7.990324247614679 1.5921921480219428 7.43471377520943 0 0 0
223 1 9.07620063876649 2.3316233606450125 10.094030080733244 0 0 0
361 1 12.708666460420536 0.02529994767087552 19.43529935100709 0 0 0
900 1 4.876394078721622 23.683253357302128 12.046752469054011 0 0 0
59 1 7.072976410087176 5.789474080398896 8.559038777249041 0 0 0
339 1 9.15673968650666 6.376122217607489 6.809140627585743 0 0 0
34 1 11.666905472449985 2.712678435616826 8.797442149587036 0 0 0
104 1 11.187656651872825 6.839577037575069 8.851802861891015 0 0 0
1293 1 15.106895020127084 3.9926153259097177 9.594512937823326 0 1 0
313 1 13.07175922717369 5.042568518730561 8.053081632749816 0 0 0
370 1 5.281267618348607 1.5102204113436746 23.89967123416966 0 0 0
65 1 4.760866442999772 8.621489977571379 6.124057366405261 0 0 0
330 1 5.102957943081272 7.833903658039537 8.967496642261088 0 0 0
253 1 8.97725093067574 8.716805597529845 5.7352609721153245 0 0 0
270 1 13.77872919492758 9.942281222453468 7.013657487571167 0 0 0
1346 1 16.835259787467027 8.35670150150157 8.842997233589722 0 1 0
398 1 2.46571980651399 9.963760886192423 5.657690286375274 0 0 0
144 1 7.98967009145389 10.595958486943909 7.901981250712889 0 0 0
179 1 16.42265812561696 11.089101043066307 7.504426181318655 0 0 0
446 1 3.24529403783831 24.013951934779872 19.696252234010732 0 0 0
314 1 1.6857758873958135 16.207346513547375 5.942460462313088 0 0 0
402 1 4.201732857663566 13.45452337051596 7.591475726209528 0 0 0
109 1 6.788644188155882 12.907612852151114 7.077481754519666 0 0 0
118 1 12.435245575934635 13.009484761927181 6.602520718301676 0 0 0
1660 1 10.601859433393908 13.797150885454586 9.069960104615786 0 0 0
383 1 14.656115710431346 14.107821948878474 10.104511943393513 0 0 1
4336 1 4.453398940039119 17.4752806760494 6.871262732031372 1 0 0
639 1 2.9984618359625856 19.56321515445187 7.92736874682931 0 0 0
334 1 9.287820196298226 16.060269496457277 5.193743274973172 0 0 0
376 1 8.367582633694292 14.941412796059485 7.762787846581581 0 0 0
142 1 12.753155979268985 16.027430963755155 9.413033815362406 0 0 0
276 1 16.923366594708757 17.95806454779687 7.528412063611917 0 0 0
195 1 13.901048776157372 0.368478243111099 5.421678796979514 0 0 0
4582 1 0.43358656167321513 19.9676707453914 7.146049756283117 1 0 0
4581 1 2.9442261411891395 21.357411005228286 27.539143136093763 1 0 0
242 1 7.824722514573225 20.10160970306988 10.256817136976387 0 0 0
168 1 10.789260834502787 21.26211552059795 6.566343955334798 0 0 0
1755 1 10.617523265414452 17.731123446313916 7.80284443296126 0 0 0
822 1 18.845622731768167 21.90769966905963 9.050098012916115 0 0 0
92 1 0.32164661471157285 22.6142527856821 7.4534428168499325 0 0 0
4209 1 4.071958149439243 22.012939544396673 8.274211528394213 1 0 0
579 1 6.1759949956434665 22.558650107406482 9.951035849304915 0 0 0
4298 1 7.260105748469366 0.7891824931721038 11.556879424010546 1 0 0
835 1 15.401729320070318 22.094572625268984 8.450160073049457 0 0 1
4841 1 0.425825264349539 18.359460036701236 4.638924179549049 1 0 0
4460 1 3.845979732409176 2.316996468905579 11.781520811066892 1 0 0
1051 1 6.351309052232029 3.3245157270631798 12.587132994085412 0 1 0
1121 1 9.299611238168945 3.6655345530845005 14.802300672602192 0 1 0
1397 1 18.90325144361786 0.9748022379780839 10.538463779639061 0 1 0
4221 1 1.252659513635748 5.746502801483436 10.279117087433816 1 0 0
266 1 4.707724195607576 7.610107892456817 12.793172698594624 0 0 0
4685 1 4.637618167318934 5.20567937969743 14.267171767655485 1 0 0
311 1 7.970841346742993 4.745759317712745 10.854261564103153 0 0 0
58 1 12.750051019531488 3.7692380726100883 11.5827652066533 0 0 0
919 1 18.763041119894396 4.254931864742816 11.39791309931215 0 1 0
4695 1 2.9311206710793067 7.915072409572153 10.537263713661565 1 0 0
300 1 2.5044849517345713 11.2147080960548 14.093219834838907 0 0 0
85 1 10.608464915959944 5.8369421576798395 11.274827309756517 0 0 0
297 1 7.140999800478367 7.6571778776231705 11.44497845161589 0 0 0
337 1 11.986184252395589 9.416494411219146 9.22240239794868 0 0 0
4635 1 15.123022801299216 0.978720744989696 10.613081106068778 1 0 0
78 1 14.51938079992593 7.217534348381092 10.09458419029363 0 0 0
550 1 1.320864864798355 22.44065072224942 23.362616555208174 0 0 0
79 1 17.980028918628104 23.392180971870605 14.115242410870458 0 0 0
384 1 1.721098102248262 9.586489717954626 8.5980868635538 0 0 0
227 1 6.058630791286557 10.475253840997127 9.836296753850407 0 0 0
304 1 3.4967415312116517 11.687773283355229 9.51722589147072 0 0 0
420 1 9.948797780294223 10.948065541942206 9.889514933381294 0 0 0
135 1 13.815486692045027 9.614753544047408 11.44097822155507 0 0 0
310 1 16.611977504302388 10.082644555644208 11.769504261647535 0 0 0
19 1 15.56906612901806 5.662536852450209 12.185835693729647 0 0 0
4184 1 4.163511846995263 15.611035217546045 8.953068229191986 1 0 0
138 1 12.811909174509502 12.1838683412066 11.09935464484629 0 0 0
164 1 17.44262102668388 12.17973136642677 10.01389754830244 0 0 0
275 1 17.795258169464834 14.28275762939757 11.651458772058117 0 0 0
4416 1 0.8419263604913626 6.565258696015199 20.26600440841735 1 0 0
373 1 3.7651365672297428 15.385180060288576 12.029353752246042 0 0 0
1602 1 6.960002654820482 16.700765390794803 9.316674481157188 0 0 0
108 1 9.37187021413445 14.889945049410446 11.388465707276882 0 0 0
88 1 11.731098933192166 16.448632876396193 12.086400984402403 0 0 0
1830 1 16.548475904927308 18.14133052908021 10.375604300036107 0 0 0
405 1 15.91803908874493 16.1031645896276 12.138676244225696 0 0 0
4455 1 1.1167604701208305 21.70114023589579 11.224996685340942 1 0 0
4178 1 2.6647442338121268 19.44205219661722 10.919518289925568 1 0 0
4537 1 7.4501104040903625 17.404569975383538 12.25155288733455 1 0 1
244 1 10.707932667946963 20.311989909702895 9.479942704008074 0 0 0
308 1 12.74600912658448 20.443760047629695 12.001812215548497 0 0 0
315 1 14.755436066558342 20.110296166254265 9.920850933594785 0 0 0
150 1 18.39385201873811 20.131159060028587 11.117090187080398 0 0 0
60 1 1.9149900974247391 23.44500479133981 9.63572455429749 0 0 0
185 1 3.181275814669604 21.780876229344923 13.275652177316955 0 0 0
11 1 7.092866713694507 23.26100306212991 13.962835815034753 0 0 0
294 1 9.588481350453234 22.885680332728786 10.070517979934 0 0 0
4552 1 12.696839920090948 23.286622922000994 11.81279803964099 1 0 0
133 1 15.982847674482791 22.00765602364902 11.914228797130065 0 0 0
8 1 13.995610957144063 23.713711690695575 18.676999550984092 0 0 0
510 1 7.465268180162874 24.223682311869943 8.149508796793153 0 0 0
1364 1 6.81561971027011 1.960017443092235 15.143237917875307 0 1 0
2593 1 13.070405172661449 1.0579835927474146 16.729016084359735 0 1 -1
685 1 18.693237364744398 23.74105114302773 24.086472364014217 0 0 0
1011 1 16.569756171978092 1.3763037058546022 14.287247699271955 0 1 0
440 1 2.0299798394644784 6.765350855586804 14.93074924240834 0 0 0
1211 1 4.271249701492629 3.215710938114732 16.589179114351918 0 1 0
1274 1 6.072606833945143 6.775270004878363 16.774962240971337 0 1 -1
269 1 7.67598583569349 6.135976208540136 14.205596289131298 0 0 0
1054 1 14.506624814518775 3.4061897782801727 13.921802868799158 0 1 0
1486 1 16.087264820447963 3.6147960449082204 17.544314653340354 0 0 0
120 1 19.533422019469768 4.885726809216549 14.004510926902556 0 0 0
1578 1 14.484899863515047 24.147472969228296 21.406409738646243 0 0 0
4448 1 1.1954225561002463 11.52520930444875 16.546776541405546 1 0 0
322 1 5.289099592346336 10.1698301792738 14.380564819477037 0 0 0
151 1 7.869902486290317 9.013189327474455 17.7713084199481 0 0 0
2435 1 10.045883408229159 8.032504497792525 13.10394900444429 0 1 0
170 1 14.898140622621591 6.933523864186949 14.449877282827405 0 0 0
331 1 12.81845377211571 8.757497638953238 13.99273280909831 0 0 0
215 1 17.165405620391688 8.425832594545058 15.103788693273259 0 0 0
4479 1 7.019158135361203 24.135020368557083 16.87437409539554 1 0 0
184 1 2.715839281542615 12.887381694459902 11.995627418576449 0 0 0
95 1 1.297225301273685 15.534041406341943 17.070376197686507 0 0 -1
221 1 9.002847179561172 10.360720679624148 12.309341873386298 0 0 0
229 1 6.7140052200008675 11.547438355711458 12.547072952484204 0 0 0
1615 1 13.772492241762272 11.252179464656226 15.018191010187113 0 0 0
1467 1 16.481840173785898 11.015688671253965 14.372353887194613 0 0 0
1339 1 0.29741394877470045 14.143869242760356 12.56977295066271 0 1 0
196 1 6.935013957258194 13.827880069496308 14.982705791756954 0 0 0
121 1 12.44692699573649 13.105328844880313 13.640657792929044 0 0 0
4 1 9.541735036981866 13.061147150277979 13.668443334133634 0 0 0
382 1 18.335226680077113 13.18711595305772 14.329555997261613 0 0 0
4422 1 0.5807593224416518 11.122598081348972 25.15168671873281 1 0 -1
97 1 4.34224944983377 17.483663655779353 13.828386621267066 0 0 0
403 1 6.646834004463185 16.714695249373303 14.881716805524828 0 0 0
146 1 6.392968306718891 14.422127841702611 12.189726849345046 0 0 0
413 1 10.073605232291918 18.831002886543917 11.951740896776553 0 0 0
49 1 13.699379372335013 15.431015252278677 13.675320787884186 0 0 0
76 1 13.852083350796029 17.289794267641945 15.732856051691977 0 0 0
4789 1 5.252576723362182 19.579253895675663 11.985256940370972 1 0 0
182 1 10.216267803571299 20.35707222855374 14.333298420958737 0 0 0
96 1 11.6408339406215 18.477262876038317 16.41472665593881 0 0 0
1695 1 15.97789301738224 19.342301840682126 15.714042950881842 0 0 0
210 1 17.533538846460544 17.12310911674112 14.12981888495154 0 0 0
91 1 0.45375822903561197 23.134625927665695 13.858379839991464 0 0 0
605 1 7.951556239403767 19.132110427791314 15.459962297270799 0 0 0
850 1 6.03573089530329 20.78533785750561 14.382557834501739 0 0 0
770 1 12.250695145908717 22.214320161578534 15.220607416598382 0 0 0
162 1 9.685426731265956 22.84494701852311 13.007701010273058 0 0 0
366 1 14.662739182394473 21.249528023075513 14.268081100215948 0 0 0
114 1 0.7893943953973637 16.4393190144663 8.624792060601804 0 0 0
4472 1 1.1928052749167026 0.3291147034017148 18.352215272926205 1 0 0
1231 1 3.205099109011733 0.6507565694805438 16.270340417500666 0 1 0
437 1 8.728365986125425 2.4469139763313827 17.36853232871223 0 0 0
1684 1 18.190016924868903 20.495486978245502 13.961137635014087 0 0 0
119 1 0.15651236368920707 10.354457854772015 3.75566867932602 0 0 0
1808 1 15.07276433236641 2.1468777201290634 20.05948141247707 0 0 0
4593 1 0.9603882106371169 7.51147338670277 6.061653367402528 1 0 0
429 1 8.09398558016194 0.6164667109625259 20.098689689605045 0 0 0
260 1 1.766880121725115 4.2213659603147065 17.183664443958314 0 0 0
1132 1 6.784654951704546 4.279692259287757 18.02501408568334 0 1 0
320 1 3.7423970669175586 5.599906235191048 18.705184394766782 0 0 0
70 1 8.499924051228138 6.359117824476225 18.819077750152484 0 0 0
5 1 11.53282822639186 3.1867517919958557 17.444724244141025 0 0 0
1067 1 14.058855078950511 4.779228116102215 16.389950563065163 0 1 0
961 1 18.178812466121997 2.9620099573822456 15.779946812979437 0 1 0
4361 1 3.5003446506038975 7.8137150037597625 17.154395826742544 1 0 0
4524 1 5.583469926376556 10.821627454010315 17.507056754156594 1 0 0
125 1 10.153051186116956 8.304510555136321 16.10946323900912 0 0 0
992 1 11.206399497824666 6.1487481464610285 17.96263615459554 0 1 0
409 1 17.062166874582022 5.791863640600757 19.1373131188932 0 0 0
183 1 18.06320137959377 8.06812327934979 17.623999178736266 0 0 0
4439 1 3.090236314285802 10.071681313929728 18.586919294793695 1 0 0
4558 1 10.907982376096886 10.549567929360999 17.85474059178147 1 0 0
224 1 13.758593921775674 12.088138235744308 17.6413582184834 0 0 0
52 1 17.801871904170863 11.311902686306988 16.952335589350007 0 0 0
272 1 16.55620720755781 9.941778778456673 19.601294804892298 0 0 -1
4674 1 0.4358337150695328 18.324255351687412 16.10579296402601 1 0 0
328 1 4.528954696086169 12.817510866386792 15.871190609124232 0 0 0
204 1 7.882254072733024 14.453715319735267 17.861269830735797 0 0 0
390 1 9.83859368985042 12.825505835520033 16.561668682851796 0 0 0
41 1 12.050274091167825 14.364059405641274 18.212621863547234 0 0 0
1833 1 16.405582295103635 13.211276958752967 18.282390465360898 0 0 0
898 1 17.365080284561646 15.10714296002079 15.85066636284697 0 0 0
657 1 19.38691772230696 23.886190307599403 28.041351587975097 0 0 0
4255 1 5.753918955151169 16.676896116636325 17.780505563633135 1 0 0
154 1 10.213314884392203 16.44272825400117 17.934572658648722 0 0 0
424 1 14.702200378324267 15.801936883050734 18.081250544626737 0 0 0
4644 1 1.2122512768143483 3.492908634376449 14.540243776665763 1 0 0
4232 1 3.7580408114560715 20.9962779055207 16.1192134040632 1 0 0
239 1 3.4627323295875705 18.078580745754305 16.442806724403248 0 0 0
21 1 11.50087724156576 20.00934203790093 18.58764301301846 0 0 0
24 1 16.523278677537576 19.8233211272411 18.35834371686947 0 0 0
1678 1 18.472642510315453 18.292918605412336 19.810255393159864 0 0 0
816 1 1.8064735897083157 23.379897736631545 17.242039845632757 0 0 0
222 1 5.057192386751232 22.567685616874122 18.106045876034177 0 0 0
857 1 8.516127029003417 21.84715890199408 18.259051895909835 0 0 0
103 1 8.604488444281769 18.964694255895715 18.227777661783435 0 0 0
243 1 11.656388113780116 22.581082145101526 17.79499407364914 0 0 0
476 1 16.334663033008837 22.607732653404756 18.215757018269745 0 0 0
1097 1 4.376171560557403 2.5747314576948295 21.18095356077712 0 1 0
1234 1 7.0741579170584155 3.155259596216231 20.807741116525776 0 1 0
2433 1 10.5431932525044 0.9682399868156489 21.110028873981296 0 1 0
1405 1 16.76797427504879 2.44435723311461 22.269650102173788 0 1 0
4459 1 1.981627568140769 4.025315586078017 20.818590246967375 1 0 0
203 1 9.72565056582208 5.285631301753813 22.019981258032043 0 0 0
167 1 11.466353401967693 3.414940275315424 20.43509125844672 0 0 0
273 1 13.975591724762232 3.863253786115406 21.876436527612125 0 0 0
137 1 1.3441301193614668 16.948773744605482 11.589350323821085 0 0 0
2603 1 18.968775969233327 4.608657926886135 20.53069431064133 0 1 0
169 1 2.8399267591279527 8.501995417813545 20.994800736217307 0 0 -1
4277 1 4.334463569049188 6.043610875352221 21.643235866053317 1 0 -1
107 1 7.182446854149061 6.481004199560415 21.605223979519483 0 0 0
5186 1 12.854298486215358 7.431781751732689 19.873068145210986 1 1 0
55 1 11.227382780343353 7.703124083503739 21.919156312786466 0 0 0
2478 1 15.10905565321057 6.294408520779101 20.94235833893815 0 1 0
4266 1 1.61745217349755 11.839007406844646 20.503765864615414 1 0 0
66 1 6.191593790937181 12.717876853693618 19.315473569345322 0 0 -1
22 1 8.979898311197159 11.033492544002288 19.740097257969982 0 0 0
282 1 9.282886544096717 9.516427191009841 22.173529519763218 0 0 0
90 1 13.746972210407645 10.129502285687 19.33373375579226 0 0 0
299 1 17.20555071816232 10.39327576843469 22.249529559907057 0 0 0
1169 1 0.18502559990370634 1.1522329597868277 11.524459104205155 0 1 0
190 1 3.9022790759920523 14.514144861877698 17.938904621288028 0 0 -1
4504 1 2.762595914583259 17.03084211372835 19.377995135395963 1 0 -1
369 1 5.258117620280063 13.903732352721606 21.650524905244794 0 0 0
127 1 11.739530051425895 13.4463513477882 20.816310247521717 0 0 0
333 1 13.336058453509484 11.748835388624354 21.91230263477965 0 0 0
214 1 17.281748669557086 13.616710770435304 20.85928093882929 0 0 -1
4211 1 1.0816096906194106 13.053242312490747 27.30078228041706 1 0 -1
15 1 1.3861643050968082 18.530532702707816 22.37846366643257 0 0 0
342 1 6.81625820678337 18.1270820815656 20.079218929387856 0 0 0
358 1 8.808272595886981 13.672364884147049 21.27208095717359 0 0 0
817 1 12.276597838196178 16.246038199372148 21.616446536054635 0 0 -1
159 1 14.550260132143437 17.172589919869733 20.624492839447786 0 0 0
1580 1 16.83988368131891 16.323886112117638 21.601177142319475 0 0 0
401 1 6.05615063846415 20.939014233282347 20.156602375993558 0 0 -1
53 1 3.795869335691636 19.960503023076463 21.70016160790008 0 0 0
181 1 10.067592607417787 18.000272071242488 20.99206649223283 0 0 0
81 1 8.973308931474122 19.074753747731766 23.316560226960828 0 0 0
4463 1 13.968256682649605 19.511249932382047 19.630779030307842 1 0 0
1993 1 18.420888119698276 18.179647243631635 23.409406312742963 0 0 0
123 1 18.571106185175346 1.6525585556758087 20.27600318798305 0 0 0
4620 1 2.4195225817632378 1.00887530489681 13.809363849847882 1 0 0
4279 1 1.7845136866829292 21.830807910649405 20.796591954815657 1 0 0
775 1 7.40180651888826 21.28326460686968 22.548317399907077 0 0 0
671 1 9.367330416798495 22.466111331123827 20.821822216393514 0 0 0
354 1 11.416104514877558 20.962059097227485 21.46941604173477 0 0 0
254 1 14.41482257678371 21.489772749992667 21.768288042843913 0 0 0
1175 1 13.045344011385648 0.8191811776484726 13.84938922652695 0 1 0
418 1 19.49453752328152 6.91705699792985 29.341944268231035 0 0 -1
360 1 19.28048493486226 17.075535894322556 29.709560509081573 0 0 0
5414 1 3.396700087692665 2.9110943708402224 25.214797385510025 1 1 -1
102 1 17.08834730048464 0.7314031245972742 8.261202112020001 0 0 0
994 1 10.061480428803645 1.532066027471815 23.935560980145816 0 1 0
1344 1 12.00809436731355 1.2145768355469937 25.963015219717363 0 1 0
980 1 16.40295507993662 0.4460762488674266 24.74647641155435 0 1 0
444 1 14.822094119052155 1.8187367723191359 26.437334030313476 0 0 0
1113 1 18.75578333468119 0.8979240227514589 28.367845663181157 0 1 -1
2589 1 18.21673953802683 4.05699865810707 27.69224655278842 0 1 -1
4234 1 4.02753261336561 5.512550486498993 24.482993545487297 1 0 0
323 1 7.441813412741214 3.7112935961894182 23.819253970993064 0 0 0
72 1 10.658022979409678 4.610719939344511 24.5995972192914 0 0 0
208 1 13.426038487002952 5.04852458695165 24.43065632132698 0 0 -1
45 1 16.131889232302267 4.16740004187125 25.94573140620672 0 0 0
1754 1 16.917079864612973 4.793542123523621 23.529132203650732 0 0 0
37 1 6.53626975542328 5.92694416164895 25.23985748228987 0 0 -1
4690 1 6.8663842060761855 8.290447005952249 23.746397699037786 1 0 -1
110 1 13.32610844302358 7.716088576861571 23.757726520592968 0 0 0
105 1 16.509626841260562 8.84939995338644 25.990253079479825 0 0 0
256 1 16.2385950031221 7.954076497488404 23.398427799691785 0 0 0
4425 1 4.3868542415347465 9.557802297459498 23.310306905596786 1 0 0
35 1 11.015468374375175 10.971101914141432 23.56328742591067 0 0 0
18 1 19.479446717030974 7.709340361541764 13.933546198784448 0 0 0
359 1 2.681270494022357 14.654288471044444 20.829294701427045 0 0 0
149 1 5.081516117382187 12.22797966411422 23.801347461036883 0 0 -1
258 1 9.109375957015283 12.838415958924566 23.857976103691822 0 0 0
445 1 15.64145508007557 12.689433382229277 22.776838573704318 0 0 0
192 1 15.54256638138196 13.11445619555795 25.713551461049466 0 0 0
126 1 17.788868051694834 14.609183271591027 26.69670479015381 0 0 -1
298 1 1.9449218369476098 15.425729874238032 23.31136684812123 0 0 -1
4530 1 7.292663471538665 15.73136455118538 21.54069070841565 1 0 0
391 1 9.97585537007505 15.148915343169623 25.119612507418616 0 0 0
823 1 8.029594048929235 16.65837582619214 23.915403318108304 0 0 0
530 1 12.541208116906539 16.241001259678903 24.333028417114 0 0 -1
155 1 15.506989120021384 15.979266403274591 24.052502088588913 0 0 0
67 1 3.9961694820213594 22.452601169517358 5.44964352089062 0 0 0
377 1 1.4007525883500334 8.9588709044977 12.929898094356046 0 0 0
25 1 5.672918633170743 18.056943945485134 24.955008014629 0 0 0
435 1 11.161795940295498 20.46989749750899 24.10466713709445 0 0 0
356 1 11.600602409539437 18.168442485286967 25.9421491208136 0 0 0
112 1 18.435061281333546 23.725119135982137 19.507687378404995 0 0 0
736 1 3.8063334184551953 23.862359276433665 24.512418456652632 0 0 0
830 1 5.37842963162231 22.6312136997741 27.45278612449943 0 0 -1
791 1 4.943587902190727 20.761117574766427 24.288589469174475 0 0 0
106 1 6.993074699427235 22.956920615923362 25.01434870446455 0 0 0
767 1 9.614419941052976 22.29145508703487 25.437286295887308 0 0 0
1838 1 17.95497879760479 7.3132625635435184 11.551211130373954 0 0 0
69 1 14.112996585379573 21.195618130907476 24.501529283973042 0 0 0
4329 1 0.8196771376020197 20.823359626161366 17.567259971641462 1 0 0
116 1 16.80559496191285 20.219273067389878 25.07938458523366 0 0 0
4693 1 3.193957586762296 1.875256019437115 27.8703708293435 1 0 -1
351 1 5.762754555302177 2.4110292962502804 28.74064481546801 0 0 -1
1013 1 7.7096131020287775 0.6811790725453782 27.542656494050004 0 1 -1
274 1 10.462660222906985 1.4503703936051588 27.99352768853044 0 0 -1
325 1 15.783042951975434 3.0418189657998926 29.579455281867787 0 0 0
93 1 17.018832778656055 2.053671375956541 2.828502740460407 0 0 0
231 1 7.8531190288838415 0.39267731572521886 24.699704225919177 0 0 0
4542 1 1.5917093892038758 3.732852841261676 29.346986064712095 1 0 0
346 1 5.4213920761779795 5.254484072368728 27.935263553578025 0 0 -1
1360 1 10.46780357684845 3.628934482577963 29.79717733254688 0 1 -1
1352 1 9.58237301058704 6.007855404212537 28.529670472634447 0 1 0
1867 1 18.956353687297305 3.252896410411004 0.785732644781974 0 0 0
4523 1 2.048165194635856 6.814120932581914 25.79007607233736 1 0 -1
312 1 9.582775076793894 6.894729126210092 25.758807121830582 0 0 0
193 1 7.635093769541891 9.465017917295343 26.160974860209954 0 0 0
1610 1 14.068754514827345 6.600310697571463 0.5011121587436675 0 0 1
161 1 12.139595518514763 8.345724289910125 26.41845762029523 0 0 -1
217 1 15.553892076676187 6.454923397203565 27.83607094149293 0 0 -1
87 1 13.47258845280957 10.23038419802722 29.383282445707938 0 0 0
1445 1 17.233202562540324 5.495466240592551 0.6664195358049678 0 0 1
86 1 19.149219665532534 8.289179174946474 26.700316898073783 0 0 0
4237 1 1.0126186611314703 23.20637055054966 28.3944586993484 1 0 0
4511 1 2.935725795608422 9.507805411440215 25.70295951002375 1 0 0
233 1 6.526610070925661 8.987469482003856 28.479611548554654 0 0 0
317 1 3.9450797019458164 10.005751933331636 28.1604781955758 0 0 -1
77 1 7.186121057368198 12.113213833506313 26.002761173257454 0 0 -1
235 1 10.042564030792722 10.53744833436772 26.352766467447786 0 0 0
309 1 17.029378610303453 11.057554505732016 27.532320920898783 0 0 0
441 1 17.965004670813407 9.572772210288651 29.579023405847995 0 0 -1
62 1 19.462616526630292 11.911195758043092 26.569670279704884 0 0 0
458 1 6.845926521844206 23.780079875490753 1.7690180875066672 0 0 1
4189 1 2.7488054337243875 13.18272377635291 24.725342130182646 1 0 -1
4615 1 4.306514814710402 13.640693932784428 27.21768098957286 1 0 -1
410 1 7.496085501145295 13.866595367674503 28.0311409523882 0 0 -1
283 1 10.532729048426203 13.203257273034328 27.26417127751075 0 0 -1
199 1 13.02039314189113 14.190399721808552 26.631136644602456 0 0 0
46 1 16.76245480794101 16.463438592396813 28.758165870987856 0 0 -1