
# read in graphite data
read_data data.graphite group graphite extra/atom/types 1
Reading data file ...
  orthogonal box = (0.0000000 0.0000000 0.0000000) to (78.752000 72.975319 10.062000)
  4 by 3 by 1 MPI processor grid
  reading atoms ...
  6624 atoms
  reading velocities ...
  6624 velocities
  read_data CPU = 0.012 seconds

# Insert water
read_data data.Ibeam_MLmW_235K add append shift 0.0 0.0 ${Z_G} group water offset 1 0 0 0 0
read_data data.Ibeam_MLmW_235K add append shift 0.0 0.0 10.062 group water offset 1 0 0 0 0
Reading data file ...
  orthogonal box = (0.0000000 0.0000000 0.0000000) to (78.752000 72.975319 40.002420)
  3 by 2 by 2 MPI processor grid
  reading atoms ...
  2502 atoms
  reading velocities ...
  2502 velocities
  read_data CPU = 0.005 seconds


# Define potential
# CHECK ON THIS %%%%%%%%%%%%
#
pair_style sw
pair_coeff * * MLC_e.sw C mW


# Delete water and ice atoms that are overlapping
#
delete_atoms overlap 2.5 water graphite
System init for delete_atoms ...
Neighbor list info ...
  update every 1 steps, delay 10 steps, check yes
  max neighbors/atom: 2000, page size: 100000
  master list distance cutoff = 6.6747184
  ghost atom cutoff = 6.6747184
  binsize = 3.3373592, bins = 24 22 12
  2 neighbor lists, perpetual/occasional/extra = 1 1 0
  (1) command delete_atoms, occasional, copy from (2)
      attributes: full, newton on
      pair build: copy
      stencil: none
      bin: none
  (2) pair sw, perpetual
      attributes: full, newton on
      pair build: full/bin/atomonly
      stencil: full/bin/3d
      bin: standard
Deleted 116 atoms, new total = 9010

write_data test.${NAME}
write_data test.Ibeam_235K
System init for write_data ...
Neighbor list info ...
  update every 1 steps, delay 10 steps, check yes
  max neighbors/atom: 2000, page size: 100000
  master list distance cutoff = 6.6747184
  ghost atom cutoff = 6.6747184
  binsize = 3.3373592, bins = 24 22 12
  1 neighbor lists, perpetual/occasional/extra = 1 0 0
  (1) pair sw, perpetual
      attributes: full, newton on
      pair build: full/bin/atomonly
      stencil: full/bin/3d
      bin: standard


# Fix graphite atoms in place
#
fix 1 graphite setforce 0.0 0.0 0.0
velocity graphite set 0.0 0.0 0.0
velocity water create ${TEMP} 120598 rot yes dist gaussian
velocity water create 235 120598 rot yes dist gaussian
timestep 5.0

# Define output
#

compute 1 water msd
compute 2 water stress/atom NULL
compute 3 water temp

thermo 100
thermo_style custom step c_3 press vol etotal ke pe c_1[4] density

# Neighbor lists
#
neigh_modify delay 0 every 1 check yes




# Set fixes
#
fix                 2 water momentum 10 linear 1 1 1 rescale
fix                 3 all nve
fix                 4 water temp/csvr ${TEMP} ${TEMP} 500.0 928347
fix                 4 water temp/csvr 235 ${TEMP} 500.0 928347
fix                 4 water temp/csvr 235 235 500.0 928347

# Run 0.25 ns equilibration
#
dump                1 all custom 100 eq.${NAME}.dump id type x y z vx vy vz
dump                1 all custom 100 eq.Ibeam_235K.dump id type x y z vx vy vz
run                 50000
Per MPI rank memory allocation (min/avg/max) = 5.733 | 5.935 | 6.144 Mbytes
Step c_3 Press Volume TotEng KinEng PotEng c_1[4] Density 
       0          235   -584.52526       229892   -21576.437    1670.6695   -23247.106            0   0.88510766 
     100    258.63433   -806.22769       229892   -21699.436    1838.6915   -23538.127    1.2475578   0.88510766 
     200    258.18699   -273.49966       229892   -21889.888    1835.5112   -23725.399    2.2119939   0.88510766 
     300    243.78896   -39.106454       229892   -22018.306    1733.1523   -23751.458    3.1955029   0.88510766 
     400    243.64791   -535.48357       229892   -22111.261    1732.1495   -23843.411    3.8953474   0.88510766 
     500    248.53419     -498.907       229892   -22168.215    1766.8872   -23935.102    4.4496934   0.88510766 
     600    244.10596   -461.98774       229892   -22154.657    1735.4059   -23890.063    5.0831853   0.88510766 
     700    240.27394     -158.468       229892   -22204.125    1708.1631   -23912.288    5.6578225   0.88510766 
     800    240.52256   -372.97368       229892   -22231.309    1709.9307    -23941.24    5.9951321   0.88510766 
     900    243.92353   -434.15265       229892   -22281.216     1734.109   -24015.325    6.4672213   0.88510766 
    1000    237.74255   -165.19139       229892   -22346.829    1690.1669   -24036.996     6.967496   0.88510766 
    1100    240.83242    -337.0874       229892   -22348.735    1712.1335   -24060.868     7.420014   0.88510766 
    1200    235.10234   -230.28478       229892   -22381.075    1671.3971   -24052.472    7.8501159   0.88510766 
    1300    244.55647   -163.68304       229892   -22360.948    1738.6087   -24099.557    8.1453033   0.88510766 
    1400    231.58015   -296.02897       229892   -22406.931     1646.357   -24053.288    8.6633915   0.88510766 
    1500    240.91228    -406.1838       229892   -22444.006    1712.7013   -24156.707    8.9440926   0.88510766 
    1600    240.56128   -279.50753       229892   -22437.875    1710.2059   -24148.081    9.6049188   0.88510766 
    1700    234.42033    -155.9684       229892   -22458.698    1666.5485   -24125.246    9.9543728   0.88510766 
    1800    239.06725   -394.01545       229892   -22431.859    1699.5845   -24131.444     10.14467   0.88510766 
    1900    236.42966   -332.92876       229892   -22395.676    1680.8333   -24076.509     10.36288   0.88510766 
    2000    246.55736   -355.32411       229892   -22377.705    1752.8335   -24130.538    10.929125   0.88510766 
    2100    234.46408    -145.8553       229892   -22487.878    1666.8596   -24154.738    11.199979   0.88510766 
    2200    233.00019   -359.34284       229892   -22463.759    1656.4524   -24120.211    11.706921   0.88510766 
    2300    239.13319   -171.86426       229892   -22430.469    1700.0533   -24130.522    11.965831   0.88510766 
    2400    236.24587   -195.31016       229892   -22436.527    1679.5267   -24116.054    12.292324   0.88510766 
    2500    230.51845    -300.2551       229892   -22461.923    1638.8091   -24100.732    12.504723   0.88510766 
    2600     233.6035    -244.8025       229892   -22453.678    1660.7415    -24114.42    12.968407   0.88510766 
    2700    241.61619   -279.34772       229892   -22439.442    1717.7055   -24157.147    13.324642   0.88510766 
    2800    238.92067   -302.70439       229892   -22404.466    1698.5425   -24103.009    13.744131   0.88510766 
    2900     241.0748   -467.23767       229892   -22425.346    1713.8567   -24139.203    13.948967   0.88510766 
    3000    245.66478    -206.8396       229892    -22442.58    1746.4879   -24189.068    14.272725   0.88510766 
    3100    240.18547   -397.66501       229892   -22440.161    1707.5342   -24147.695    14.467973   0.88510766 
    3200    236.21431    -364.5907       229892   -22508.497    1679.3024     -24187.8    15.019164   0.88510766 
    3300    232.20943   -173.26797       229892   -22586.948    1650.8307   -24237.779    15.548843   0.88510766 
    3400    235.34777   -359.80923       229892   -22529.833    1673.1419   -24202.975    15.955731   0.88510766 
    3500    232.46108   -312.70492       229892   -22518.326    1652.6198   -24170.946    16.374697   0.88510766 
    3600    230.96581   -260.80388       229892   -22505.846    1641.9895   -24147.836    16.719211   0.88510766 
    3700    243.32741   -310.65847       229892   -22484.884     1729.871   -24214.755    17.285771   0.88510766 
    3800    230.04466   -272.40711       229892     -22474.5    1635.4408   -24109.941    17.732609   0.88510766 
    3900    238.98212   -169.86638       229892   -22474.993    1698.9793   -24173.973    18.140296   0.88510766 
    4000    240.53349   -360.61366       229892   -22509.339    1710.0083   -24219.348    18.336366   0.88510766 
    4100    233.25829   -340.47502       229892   -22504.388    1658.2873   -24162.676    18.983583   0.88510766 
    4200    238.37761   -185.65285       229892    -22491.38    1694.6817   -24186.062    19.056103   0.88510766 
    4300     233.4749   -295.59473       229892   -22575.602    1659.8272   -24235.429    19.231823   0.88510766 
    4400    231.49484   -400.13929       229892   -22539.306    1645.7505   -24185.057    19.641213   0.88510766 
    4500     235.0495   -195.07205       229892   -22560.827    1671.0214   -24231.848    19.848601   0.88510766 
    4600    230.95612   -307.71977       229892   -22596.756    1641.9206   -24238.676    20.347535   0.88510766 
    4700    234.41776    -379.5194       229892   -22519.748    1666.5302   -24186.278    20.506426   0.88510766 
    4800    234.97415   -220.73136       229892   -22490.843    1670.4857   -24161.328    20.979917   0.88510766 
    4900     236.1522   -195.67404       229892   -22447.851    1678.8608   -24126.712    21.065498   0.88510766 
    5000    230.81392    -300.3425       229892   -22506.092    1640.9097   -24147.001    21.580511   0.88510766 
    5100     236.2927   -234.23144       229892   -22461.904    1679.8596   -24141.764    22.259002   0.88510766 
    5200    234.53234   -188.05051       229892   -22511.804    1667.3448   -24179.148    22.716026   0.88510766 
    5300    233.47918   -291.61528       229892   -22567.124    1659.8576   -24226.982    23.132554   0.88510766 
    5400     235.8562   -422.78882       229892   -22560.498    1676.7564   -24237.255    23.517323   0.88510766 
    5500     235.5532   -227.07829       229892   -22553.895    1674.6023   -24228.497     23.87793   0.88510766 
    5600    232.36506   -422.57404       229892   -22572.436    1651.9371   -24224.373    24.097964   0.88510766 
    5700    237.58589   -162.88832       229892   -22553.289    1689.0532   -24242.343    24.494068   0.88510766 
    5800    239.37773   -208.01826       229892   -22548.373    1701.7918   -24250.164    24.768999   0.88510766 
    5900    237.89975   -219.20118       229892   -22588.547    1691.2845   -24279.831    25.327521   0.88510766 
    6000    237.17842   -259.50424       229892   -22622.303    1686.1564    -24308.46    25.316565   0.88510766 
    6100    231.37482   -379.29228       229892   -22643.992    1644.8973    -24288.89    25.345976   0.88510766 
    6200    231.25985   -193.50713       229892    -22651.55    1644.0799    -24295.63    25.540205   0.88510766 
    6300    236.50311   -9.7061182       229892   -22585.816    1681.3555   -24267.172    25.866151   0.88510766 
    6400    235.46198   -487.57939       229892   -22632.413    1673.9539   -24306.366    25.908639   0.88510766 
    6500    231.85634   -467.67306       229892   -22649.637    1648.3205   -24297.957    26.319951   0.88510766 
    6600    231.77618   -338.79259       229892    -22656.94    1647.7506    -24304.69    26.753673   0.88510766 
    6700    227.70419   -359.29025       229892   -22670.906    1618.8019   -24289.708    26.723441   0.88510766 
    6800    227.75636   -398.25128       229892   -22653.932    1619.1728   -24273.105    26.885435   0.88510766 
    6900    236.26419   -63.146204       229892   -22599.846    1679.6569   -24279.503    27.446442   0.88510766 
    7000    230.10199   -396.00661       229892   -22597.149    1635.8484   -24232.997    27.957104   0.88510766 
    7100    237.83702    -446.4012       229892   -22595.294    1690.8386   -24286.132    28.174265   0.88510766 
    7200    232.25144   -345.96418       229892   -22663.523    1651.1294   -24314.653    28.498306   0.88510766 
    7300    230.77671   -288.65291       229892   -22702.684    1640.6452    -24343.33    28.535962   0.88510766 
    7400    233.52599   -300.20573       229892   -22660.791    1660.1905   -24320.981     28.76613   0.88510766 
    7500    232.64101   -385.33933       229892   -22614.883    1653.8989   -24268.782    29.145621   0.88510766 
    7600    236.25119   -141.17313       229892     -22573.1    1679.5645   -24252.665    29.793865   0.88510766 
    7700    231.08322   -339.90716       229892   -22574.976    1642.8242     -24217.8    30.180449   0.88510766 
    7800    230.33473   -310.33555       229892   -22633.239     1637.503   -24270.742    30.718455   0.88510766 
    7900    231.85413   -249.97775       229892   -22602.659    1648.3048   -24250.964    31.094311   0.88510766 
    8000    241.34118   -399.59968       229892   -22522.554    1715.7504   -24238.305    31.382959   0.88510766 
    8100    238.40357    -295.5421       229892   -22504.351    1694.8663   -24199.218    31.787152   0.88510766 
    8200     234.7904   -292.00715       229892   -22521.633    1669.1794   -24190.812    32.139335   0.88510766 
    8300    239.98161   -243.49862       229892    -22480.24     1706.085   -24186.325     32.31511   0.88510766 
    8400    235.55802   -480.84962       229892   -22462.727    1674.6366   -24137.364    32.481561   0.88510766 
    8500    238.34405   -394.43701       229892   -22492.916    1694.4432   -24187.359    33.308559   0.88510766 
    8600    240.01709   -228.05288       229892   -22505.246    1706.3372   -24211.583    33.511527   0.88510766 
    8700    232.76731   -338.56111       229892    -22539.14    1654.7968   -24193.936    34.075215   0.88510766 
    8800    232.76517   -423.47599       229892   -22550.932    1654.7816   -24205.713    34.160073   0.88510766 
    8900    230.71553   -322.94367       229892   -22590.223    1640.2102   -24230.433    34.569216   0.88510766 
    9000    232.27837   -243.22759       229892   -22547.351    1651.3208   -24198.672    35.075807   0.88510766 
    9100    231.56504   -299.70764       229892   -22570.503    1646.2496   -24216.753    35.415892   0.88510766 
    9200    230.06308   -282.87171       229892   -22534.018    1635.5718    -24169.59    35.776228   0.88510766 
    9300    231.53649   -327.64187       229892    -22603.51    1646.0466   -24249.557    36.055325   0.88510766 
    9400     236.2921   -430.49349       229892   -22574.136    1679.8553   -24253.991    36.369367   0.88510766 
    9500    230.27228   -322.89353       229892   -22618.419     1637.059   -24255.478    36.726198   0.88510766 
    9600    229.75296   -281.58204       229892   -22624.804    1633.3671   -24258.171    36.821307   0.88510766 
    9700     234.5166   -252.50331       229892     -22598.5    1667.2329   -24265.733    37.271466   0.88510766 
    9800    239.20327   -321.53377       229892   -22548.066    1700.5515   -24248.618     37.42891   0.88510766 
    9900    235.17122   -310.57101       229892   -22564.174    1671.8867   -24236.061    37.551601   0.88510766 
   10000    236.91255   -423.20591       229892   -22567.624    1684.2663    -24251.89    37.768605   0.88510766 
   10100    240.67289   -289.65761       229892   -22562.233    1710.9994   -24273.233    38.248415   0.88510766 
   10200    241.83845   -270.10186       229892   -22533.664    1719.2856    -24252.95     38.67929   0.88510766 
   10300    245.41868   -273.68473       229892   -22553.607    1744.7383   -24298.345    39.018804   0.88510766 
   10400    238.78918   -301.75921       229892   -22554.313    1697.6077    -24251.92    39.268916   0.88510766 
   10500    232.02997   -360.22981       229892   -22609.815    1649.5549    -24259.37    39.585129   0.88510766 
   10600    230.88684    -422.8629       229892   -22618.529    1641.4281   -24259.957    39.893416   0.88510766 
   10700    238.75288    -370.6199       229892    -22642.08    1697.3496   -24339.429    40.479188   0.88510766 
   10800    231.18931   -316.46345       229892   -22670.209    1643.5784   -24313.787    40.652757   0.88510766 
   10900    228.94775    -394.9262       229892   -22703.894    1627.6427   -24331.537      40.4691   0.88510766 
   11000    228.35624    -325.3982       229892   -22711.445    1623.4375   -24334.882    40.273043   0.88510766 
   11100    231.88902    -356.9226       229892   -22687.606    1648.5528   -24336.159    40.239218   0.88510766 
   11200    228.28121   -336.40173       229892   -22688.315    1622.9041    -24311.22    40.499501   0.88510766 
   11300    237.96411   -207.98045       229892   -22696.921     1691.742   -24388.663    40.731464   0.88510766 
   11400    234.06903    -315.3075       229892   -22668.968     1664.051   -24333.019     41.02997   0.88510766 
   11500    233.24569   -430.92934       229892    -22630.66    1658.1977   -24288.858    41.285223   0.88510766 
   11600     238.3315   -342.01336       229892   -22589.568    1694.3539   -24283.922    41.532097   0.88510766 
   11700    245.26318   -423.51676       229892   -22559.581    1743.6328   -24303.213    41.944334   0.88510766 
   11800    238.88811   -157.73917       229892   -22570.592     1698.311   -24268.903    42.380547   0.88510766 
   11900    239.12209    -345.5856       229892    -22591.26    1699.9744   -24291.235    42.658926   0.88510766 
   12000    238.48165   -424.62417       229892    -22574.15    1695.4214   -24269.571     43.13416   0.88510766 
   12100    230.06046   -466.06374       229892   -22615.285    1635.5531   -24250.838    43.627695   0.88510766 
   12200    241.10536   -289.38332       229892   -22602.276    1714.0739    -24316.35     43.74111   0.88510766 
   12300    228.74679   -388.73839       229892   -22655.661     1626.214   -24281.875    44.084127   0.88510766 
   12400    239.69481   -361.95937       229892   -22625.305     1704.046   -24329.351    44.092297   0.88510766 
   12500    241.32153   -414.78189       229892    -22623.01    1715.6108    -24338.62    44.095172   0.88510766 
   12600    237.14774   -310.60438       229892     -22584.9    1685.9383   -24270.838    44.540802   0.88510766 
   12700     235.3719   -252.65873       229892   -22601.477    1673.3134   -24274.791    45.040906   0.88510766 
   12800    237.62996   -204.36102       229892    -22624.42    1689.3665   -24313.786    45.435012   0.88510766 
   12900    233.56325   -352.38138       229892   -22650.429    1660.4554   -24310.884    45.787117   0.88510766 
   13000    231.01776    -450.9612       229892   -22655.677    1642.3589   -24298.036    46.013378   0.88510766 
   13100    234.67583   -176.61151       229892   -22679.453    1668.3649   -24347.818    46.253577   0.88510766 
   13200    229.42769    -473.5687       229892   -22711.711    1631.0547   -24342.765    46.140158   0.88510766 
   13300    237.77146   -334.82712       229892   -22687.995    1690.3724   -24378.367     46.44809   0.88510766 
   13400    231.12823   -238.97656       229892   -22760.941    1643.1442   -24404.085    46.562148   0.88510766 
   13500    225.29125   -443.21124       229892   -22701.077    1601.6478   -24302.725    46.867065   0.88510766 
   13600    231.62662   -495.97459       229892   -22698.995    1646.6874   -24345.682    47.211809   0.88510766 
   13700    232.66777   -309.41101       229892   -22701.286    1654.0892   -24355.376    47.555628   0.88510766 
   13800    234.76841   -273.58342       229892   -22650.433    1669.0231   -24319.456    47.999212   0.88510766 
   13900    235.20562    -369.0071       229892   -22682.429    1672.1313    -24354.56    48.211899   0.88510766 
   14000    229.00357     -494.759       229892   -22608.985    1628.0395   -24237.025     48.81373   0.88510766 
   14100    229.74272    -325.4223       229892    -22634.64    1633.2943   -24267.934    49.008794   0.88510766 
   14200    234.98728   -443.45028       229892    -22623.81    1670.5791   -24294.389    49.012787   0.88510766 
   14300    241.66565   -328.31064       229892   -22606.577    1718.0572   -24324.634    49.325804   0.88510766 
   14400    229.47405   -188.12758       229892   -22664.793    1631.3843   -24296.178    49.143324   0.88510766 
   14500    231.08751   -387.58368       229892   -22647.159    1642.8547   -24290.014    49.593867   0.88510766 
   14600    236.17213   -325.26365       229892   -22640.138    1679.0025   -24319.141    49.958118   0.88510766 
   14700    230.45672   -547.55355       229892   -22635.532    1638.3703   -24273.902    50.132956   0.88510766 
   14800    235.99028   -121.53347       229892   -22587.973    1677.7096   -24265.683    50.845609   0.88510766 
   14900    232.40594   -367.89509       229892   -22605.553    1652.2277   -24257.781    50.947028   0.88510766 
   15000    233.31743   -243.08817       229892   -22617.708    1658.7078   -24276.416    51.197394   0.88510766 
   15100    232.52489   -426.46081       229892   -22600.661    1653.0734   -24253.735    51.253551   0.88510766 
   15200    237.53623    -404.6124       229892   -22599.408    1688.7001   -24288.108    51.515107   0.88510766 
   15300    240.29833   -293.33578       229892   -22616.001    1708.3366   -24324.338    51.688808   0.88510766 
   15400    233.47188   -398.78156       229892   -22656.959    1659.8058   -24316.765    51.913419   0.88510766 
   15500    235.91431   -367.22161       229892   -22636.365    1677.1696   -24313.535    52.496534   0.88510766 
   15600    230.35164   -295.85595       229892   -22565.371    1637.6233   -24202.994    53.057519   0.88510766 
   15700    234.56739   -178.26789       229892   -22518.174     1667.594   -24185.768    53.279568   0.88510766 
   15800    237.45617   -426.35463       229892   -22545.063     1688.131   -24233.194    53.647471   0.88510766 
   15900     238.9838   -315.02378       229892   -22561.484    1698.9913   -24260.475    53.833828   0.88510766 
   16000    235.72926   -471.22937       229892   -22585.922     1675.854   -24261.776    53.931285   0.88510766 
   16100    239.43866    -293.5579       229892    -22612.74     1702.225   -24314.965    54.151626   0.88510766 
   16200    236.30717   -248.27282       229892     -22592.2    1679.9625   -24272.163    54.237293   0.88510766 
   16300    235.11924   -385.63091       229892   -22638.847    1671.5172   -24310.364    54.166947   0.88510766 
   16400    236.36747   -397.23264       229892   -22631.981    1680.3912   -24312.372    54.405382   0.88510766 
   16500    236.61504   -350.96756       229892   -22584.654    1682.1512   -24266.805    54.544128   0.88510766 
   16600     240.8224   -308.00016       229892   -22582.275    1712.0623   -24294.337    54.664644   0.88510766 
   16700     235.3825    -302.7372       229892   -22603.785    1673.3888   -24277.174    54.770292   0.88510766 
   16800    237.68714   -466.17736       229892   -22604.891     1689.773   -24294.664     55.04676   0.88510766 
   16900    235.54185    -287.8434       229892    -22621.04    1674.5217   -24295.562    55.274172   0.88510766 
   17000    230.42358   -396.38867       229892   -22647.364    1638.1347   -24285.499    55.555232   0.88510766 
   17100    234.79313   -386.49677       229892   -22601.685    1669.1988   -24270.884    55.375274   0.88510766 
   17200    229.29202     -69.6659       229892   -22646.822    1630.0901   -24276.912    56.133707   0.88510766 
   17300    235.37403   -358.31112       229892   -22681.568    1673.3286   -24354.897    56.737962   0.88510766 
   17400    229.06919   -423.07972       229892   -22734.818     1628.506   -24363.323    57.366655   0.88510766 
   17500     229.3391   -264.69214       229892   -22715.728    1630.4249   -24346.153    57.496464   0.88510766 
   17600    238.40197   -72.591369       229892   -22689.508    1694.8549   -24384.363    57.445436   0.88510766 
   17700    231.58331   -117.92159       229892   -22697.717    1646.3795   -24344.097    57.816651   0.88510766 
   17800    230.40059   -239.01045       229892   -22725.636    1637.9712   -24363.607    58.257444   0.88510766 
   17900    234.66969   -251.83422       229892   -22670.987    1668.3212   -24339.308    58.883152   0.88510766 
   18000    235.43575   -319.39973       229892    -22675.83    1673.7673   -24349.597    59.644375   0.88510766 
   18100    237.94732   -268.49391       229892   -22619.564    1691.6227   -24311.187    59.952269   0.88510766 
   18200     233.3031   -452.93943       229892   -22665.892    1658.6059   -24324.498    60.434574   0.88510766 
   18300    238.45883   -203.45226       229892   -22645.087    1695.2591   -24340.346    60.273499   0.88510766 
   18400    232.74359   -400.13421       229892   -22638.181    1654.6282    -24292.81    60.370411   0.88510766 
   18500    235.15146   -445.90876       229892   -22642.237    1671.7463   -24313.984    60.685696   0.88510766 
   18600     234.6235   -424.06735       229892   -22626.012    1667.9929   -24294.005    60.587546   0.88510766 
   18700    240.18702   -267.89346       229892   -22601.153    1707.5452   -24308.698    60.268581   0.88510766 
   18800    233.26126   -367.08633       229892   -22648.937    1658.3084   -24307.245    60.624521   0.88510766 
   18900    234.42379   -260.44173       229892   -22623.567    1666.5731    -24290.14    60.810841   0.88510766 
   19000    233.89124   -409.91072       229892   -22590.865    1662.7871   -24253.652    60.986775   0.88510766 
   19100    234.47067   -291.68917       229892   -22581.005    1666.9064   -24247.911    60.782147   0.88510766 
   19200    241.25481   -407.48072       229892   -22596.382    1715.1364   -24311.518    61.653652   0.88510766 
   19300    240.68136   -404.52336       229892   -22559.628    1711.0596   -24270.687    62.314618   0.88510766 
   19400    240.01595   -352.41779       229892   -22552.627    1706.3291   -24258.956    62.444029   0.88510766 
   19500    235.56818   -361.57674       229892   -22544.339    1674.7088   -24219.048    62.901616   0.88510766 
   19600     236.1423   -407.23543       229892   -22529.745    1678.7904   -24208.536    63.568025   0.88510766 
   19700    237.17132    -401.1155       229892   -22507.461    1686.1059   -24193.567    63.583862   0.88510766 
   19800    239.96542   -372.98375       229892   -22507.792    1705.9698   -24213.761    64.413507   0.88510766 
   19900    238.71658   -505.75033       229892   -22498.959    1697.0916    -24196.05    64.793887   0.88510766 
   20000    236.22924   -316.51732       229892   -22512.209    1679.4085   -24191.618    65.421282   0.88510766 
   20100    233.02877   -366.89532       229892   -22568.486    1656.6556   -24225.141    65.774278   0.88510766 
   20200    232.08867   -406.86902       229892   -22579.284    1649.9722   -24229.256    66.094308   0.88510766 
   20300    238.14559   -360.49756       229892   -22549.779    1693.0323   -24242.812    66.488604   0.88510766 
   20400    236.92266   -377.77799       229892   -22524.661    1684.3382   -24208.999    67.105399   0.88510766 
   20500    234.38748   -400.18706       229892   -22578.136     1666.315   -24244.451    67.144153   0.88510766 
   20600    234.99297   -290.09124       229892   -22617.329    1670.6195   -24287.948    67.625476   0.88510766 
   20700    232.50825   -314.59157       229892   -22623.609    1652.9551   -24276.564    68.196278   0.88510766 
   20800    235.73179   -450.69014       229892   -22573.502     1675.872   -24249.374    68.307224   0.88510766 
   20900     239.6152   -285.33489       229892   -22551.231      1703.48   -24254.711    68.492109   0.88510766 
   21000    236.77366   -464.74045       229892   -22581.131    1683.2789    -24264.41     69.34612   0.88510766 
   21100    241.76977   -404.87448       229892   -22574.432    1718.7974   -24293.229    69.907969   0.88510766 
   21200    239.40442    -251.0965       229892   -22569.043    1701.9816   -24271.025    69.865594   0.88510766 
   21300    241.20704   -327.14975       229892   -22566.715    1714.7968   -24281.512    70.172819   0.88510766 
   21400    235.79647    -423.4719       229892   -22573.666    1676.3318   -24249.998    71.040385   0.88510766 
   21500    232.91412   -325.91745       229892   -22546.101    1655.8405   -24201.942    70.991938   0.88510766 
   21600    241.38288   -216.85136       229892   -22498.453    1716.0469     -24214.5    71.869733   0.88510766 
   21700    236.72069    -294.3921       229892   -22556.489    1682.9023   -24239.392    72.283075   0.88510766 
   21800     236.0169   -393.84538       229892   -22591.242    1677.8989   -24269.141    72.602347   0.88510766 
   21900    231.25773   -344.63519       229892   -22622.677    1644.0648   -24266.741    72.944289   0.88510766 
   22000    225.46095   -374.61785       229892   -22655.042    1602.8542   -24257.896    72.787178   0.88510766 
   22100    237.31163   -360.46655       229892   -22635.749    1687.1034   -24322.852    73.706212   0.88510766 
   22200    230.06645   -399.94175       229892   -22701.945    1635.5958   -24337.541    74.339759   0.88510766 
   22300    231.20111   -299.86186       229892    -22700.34    1643.6623   -24344.002    74.771466   0.88510766 
   22400    237.34809   -476.76627       229892   -22605.977    1687.3626   -24293.339    75.121734   0.88510766 
   22500    235.33395   -200.12054       229892   -22609.771    1673.0437   -24282.814    75.748214   0.88510766 
   22600      228.752   -464.00188       229892   -22641.271     1626.251   -24267.522    76.064816   0.88510766 
   22700    236.05784   -479.82765       229892   -22679.442    1678.1899   -24357.632    76.021307   0.88510766 
   22800    237.92008    -246.4374       229892    -22623.73     1691.429   -24315.159    75.953347   0.88510766 
   22900    229.01578   -450.02347       229892   -22670.081    1628.1263   -24298.207     75.90583   0.88510766 
   23000    233.20649   -552.37543       229892    -22684.37     1657.919   -24342.289    75.922115   0.88510766 
   23100    234.37397   -288.05008       229892   -22681.373    1666.2189   -24347.591    75.867094   0.88510766 
   23200    236.98654   -283.64051       229892   -22648.338    1684.7923   -24333.131    75.859997   0.88510766 
   23300    234.47697   -216.92273       229892   -22658.966    1666.9512   -24325.917    76.167102   0.88510766 
   23400    238.36884   -345.59831       229892   -22644.154    1694.6194   -24338.774    76.767626   0.88510766 
   23500    236.45558     -447.574       229892   -22653.969    1681.0176   -24334.986    77.562432   0.88510766 
   23600    239.84578   -384.17965       229892    -22604.88    1705.1193   -24309.999    77.522049   0.88510766 
   23700    235.13029   -222.10787       229892   -22628.517    1671.5957   -24300.112    77.662199   0.88510766 
   23800    236.95721   -423.35884       229892    -22598.42    1684.5838   -24283.004    77.751552   0.88510766 
   23900    234.17678   -464.63916       229892   -22652.419    1664.8171   -24317.236    78.034856   0.88510766 
   24000    232.99688    -283.1148       229892    -22639.17    1656.4289   -24295.599    78.990585   0.88510766 
   24100    234.14133   -211.15388       229892   -22638.981    1664.5651   -24303.546    79.267522   0.88510766 
   24200    235.10385   -426.40154       229892   -22638.132    1671.4078    -24309.54    80.013736   0.88510766 
   24300    231.89629   -475.79211       229892   -22642.788    1648.6045   -24291.392    80.131371   0.88510766 
   24400    230.68494   -134.54464       229892   -22694.239    1639.9928   -24334.232    79.510005   0.88510766 
   24500    231.12588   -330.89729       229892   -22700.041    1643.1275   -24343.169    80.037526   0.88510766 
   24600    231.77963     -403.796       229892   -22693.114    1647.7752    -24340.89    80.356714   0.88510766 
   24700    230.78485    -175.0577       229892     -22682.5    1640.7031   -24323.203     80.57707   0.88510766 
   24800    231.09574   -363.15656       229892   -22643.316    1642.9132   -24286.229    80.946494   0.88510766 
   24900    229.84967    -445.7394       229892   -22647.655    1634.0546    -24281.71     80.86178   0.88510766 
   25000    232.02209   -533.85842       229892    -22662.48    1649.4989   -24311.979    81.151249   0.88510766 
   25100    233.34034   -348.41779       229892   -22663.837    1658.8706   -24322.708    81.810064   0.88510766 
   25200    229.51085   -335.93931       229892   -22749.371    1631.6458   -24381.017    82.089049   0.88510766 
   25300    235.39571   -188.05798       229892   -22721.073    1673.4827   -24394.556    82.983693   0.88510766 
   25400    229.12167   -495.79553       229892   -22676.874    1628.8791   -24305.753    82.857302   0.88510766 
   25500    232.60189   -265.89672       229892    -22658.16    1653.6208   -24311.781    82.699711   0.88510766 
   25600    240.15367   -435.58544       229892   -22581.507    1707.3081   -24288.815    83.311122   0.88510766 
   25700    234.45746   -236.08846       229892   -22621.152    1666.8125   -24287.965    83.376646   0.88510766 
   25800    239.94027   -135.13662       229892    -22598.87    1705.7911   -24304.661    83.840259   0.88510766 
   25900    235.93382   -462.77532       229892   -22568.001    1677.3083    -24245.31    84.421263   0.88510766 
   26000    234.88211    -369.1972       229892    -22608.01    1669.8314   -24277.841    84.499638   0.88510766 
   26100     233.8751   -225.91803       229892    -22612.16    1662.6723   -24274.833    84.820323   0.88510766 
   26200    238.19278   -395.58694       229892   -22636.625    1693.3677   -24329.993    85.138873   0.88510766 
   26300    241.32064   -432.61149       229892   -22689.363    1715.6044   -24404.968    85.733792   0.88510766 
   26400    232.09035    -329.6203       229892   -22694.288    1649.9842   -24344.273    85.403137   0.88510766 
   26500    233.94243   -269.78853       229892   -22635.333     1663.151   -24298.484    85.435473   0.88510766 
   26600    237.28561   -193.15255       229892   -22607.354    1686.9184   -24294.273    85.689697   0.88510766 
   26700    236.21359   -318.89486       229892   -22568.698    1679.2972   -24247.995    86.014495   0.88510766 
   26800    237.58334   -265.60597       229892   -22595.701    1689.0351   -24284.736    86.286986   0.88510766 
   26900    240.98987   -371.06439       229892   -22562.523    1713.2529   -24275.775    86.360268   0.88510766 
   27000    242.15597   -271.43252       229892   -22572.535     1721.543   -24294.078    86.073549   0.88510766 
   27100    234.13614   -262.46085       229892   -22596.842    1664.5281   -24261.371    86.110616   0.88510766 
   27200    232.74149   -424.69954       229892   -22600.075    1654.6132   -24254.688    86.166315   0.88510766 
   27300    243.49878   -518.27787       229892   -22544.861    1731.0893    -24275.95    86.031881   0.88510766 
   27400    234.50501   -371.18473       229892   -22546.227    1667.1505   -24213.378     86.11974   0.88510766 
   27500    240.17492    -494.2952       229892   -22591.628    1707.4593   -24299.088    86.068897   0.88510766 
   27600    228.67361   -298.89152       229892   -22656.034    1625.6938   -24281.728    85.888292   0.88510766 
   27700    234.33106   -90.546068       229892    -22625.93    1665.9139   -24291.844    86.247479   0.88510766 
   27800    239.56298   -386.14112       229892   -22586.483    1703.1088   -24289.591    87.166866   0.88510766 
   27900    233.91489   -332.09174       229892   -22620.564    1662.9552   -24283.519     87.56671   0.88510766 
   28000    235.25057   -242.19768       229892   -22650.816    1672.4509   -24323.267    87.882493   0.88510766 
   28100    226.89352   -402.85832       229892   -22656.168    1613.0387   -24269.207    87.546838   0.88510766 
   28200    239.10341   -310.83222       229892   -22634.382    1699.8416   -24334.223    87.941821   0.88510766 
   28300    233.05138   -353.40694       229892   -22648.163    1656.8164    -24304.98    88.088921   0.88510766 
   28400    237.71024   -303.52199       229892   -22624.679    1689.9372   -24314.616    88.617356   0.88510766 
   28500    230.99998    -483.7351       229892   -22625.049    1642.2325   -24267.281    88.802229   0.88510766 
   28600    236.79258   -348.64397       229892   -22647.855    1683.4134   -24331.268    89.760141   0.88510766 
   28700    238.42551   -314.58658       229892   -22628.794    1695.0223   -24323.816    90.002837   0.88510766 
   28800    233.37195   -379.39293       229892   -22660.566    1659.0953   -24319.661    90.528176   0.88510766 
   28900    240.76633    -370.0889       229892   -22641.611    1711.6637   -24353.275    90.531881   0.88510766 
   29000    231.78286   -284.29155       229892    -22631.74    1647.7981   -24279.538    90.622868   0.88510766 
   29100    235.26154   -236.28875       229892   -22598.572    1672.5288   -24271.101    90.513845   0.88510766 
   29200    239.15713   -402.25791       229892   -22601.754    1700.2235   -24301.978    90.777558   0.88510766 
   29300    240.00764   -255.36398       229892    -22579.15      1706.27    -24285.42    91.019354   0.88510766 
   29400    240.34115    -290.3376       229892   -22588.407     1708.641   -24297.048     90.87033   0.88510766 
   29500    233.79082    -341.9598       229892   -22591.969    1662.0731   -24254.043    91.126295   0.88510766 
   29600    240.32338   -197.84146       229892   -22595.634    1708.5147   -24304.149    91.367403   0.88510766 
   29700    242.43939   -467.61988       229892   -22613.888    1723.5579   -24337.446    91.399299   0.88510766 
   29800    230.79065   -364.66386       229892    -22661.55    1640.7442   -24302.295    91.797685   0.88510766 
   29900    229.68381   -322.49925       229892   -22661.323    1632.8755   -24294.198    92.397326   0.88510766 
   30000    232.65921   -252.26274       229892   -22706.045    1654.0283   -24360.073    92.479109   0.88510766 
   30100    227.03722   -347.53406       229892   -22678.148    1614.0603   -24292.209    92.518869   0.88510766 
   30200    237.19547   -406.11391       229892   -22623.042    1686.2776    -24309.32    92.722915   0.88510766 
   30300    231.10883   -294.48908       229892   -22653.484    1643.0063    -24296.49    92.942219   0.88510766 
   30400    238.74883   -283.75128       229892   -22654.519    1697.3208    -24351.84    93.054971   0.88510766 
   30500    230.92035   -318.47956       229892   -22714.281    1641.6663   -24355.947    93.456638   0.88510766 
   30600    232.88982   -333.30945       229892   -22703.643    1655.6678   -24359.311    94.012723   0.88510766 
   30700    230.33637   -313.36962       229892   -22668.062    1637.5147   -24305.577     94.11514   0.88510766 
   30800    232.44706   -352.78367       229892   -22660.353    1652.5201   -24312.873    94.085836   0.88510766 
   30900    237.86505   -219.27776       229892   -22587.549    1691.0378   -24278.587    94.586044   0.88510766 
   31000    236.51501   -289.16545       229892   -22633.269    1681.4401   -24314.709     95.10098   0.88510766 
   31100    235.35322   -431.04226       229892   -22650.613    1673.1806   -24323.793    95.588935   0.88510766 
   31200    233.84939   -383.40853       229892   -22642.339    1662.4896   -24304.828    95.812401   0.88510766 
   31300    239.33303   -218.27778       229892   -22567.983    1701.4741   -24269.458    95.530117   0.88510766 
   31400    230.62732   -458.96345       229892    -22593.96    1639.5831   -24233.543     95.93683   0.88510766 
   31500    233.13627   -427.66155       229892   -22606.301    1657.4198   -24263.721    96.387348   0.88510766 
   31600    231.59577   -332.51781       229892   -22604.713     1646.468   -24251.181     96.76265   0.88510766 
   31700    236.40312   -581.90288       229892   -22587.974    1680.6446   -24268.618     96.99163   0.88510766 
   31800    237.51082   -301.96104       229892   -22544.042    1688.5195   -24232.561    97.653399   0.88510766 
   31900    235.11264   -313.50941       229892   -22586.345    1671.4703   -24257.815    97.817035   0.88510766 
   32000    233.07256   -386.91512       229892   -22600.911    1656.9669   -24257.878    97.973379   0.88510766 
   32100    237.12467   -371.69599       229892   -22576.617    1685.7743   -24262.391    97.999624   0.88510766 
   32200    232.73583   -291.50099       229892   -22600.925     1654.573   -24255.498    98.022758   0.88510766 
   32300    230.36249   -368.63387       229892   -22652.712    1637.7004   -24290.412    98.158157   0.88510766 
   32400    234.63588   -382.31961       229892   -22617.406    1668.0809   -24285.487    98.092367   0.88510766 
   32500    231.70637   -403.11618       229892     -22593.8    1647.2543   -24241.054    98.381784   0.88510766 
   32600    240.93735   -224.78575       229892   -22562.826    1712.8795   -24275.706    98.486002   0.88510766 
   32700    237.30812   -232.78815       229892   -22595.611    1687.0785    -24282.69    99.416757   0.88510766 
   32800    237.79965   -92.737512       229892   -22566.003    1690.5728   -24256.576    99.439424   0.88510766 
   32900    236.74652   -433.58503       229892   -22552.138    1683.0859   -24235.224    99.887847   0.88510766 
   33000     240.3246   -334.36622       229892   -22545.284    1708.5233   -24253.807    100.22915   0.88510766 
   33100     235.3308   -216.90616       229892    -22553.65    1673.0212   -24226.671    100.14055   0.88510766 
   33200    240.54276   -284.68842       229892   -22578.773    1710.0743   -24288.848    100.14176   0.88510766 
   33300    236.96729   -244.13258       229892   -22575.959    1684.6554   -24260.614    100.72284   0.88510766 
   33400    228.58102    -408.5836       229892   -22627.507    1625.0355   -24252.543    100.97325   0.88510766 
   33500     236.3103   -225.62964       229892   -22663.937    1679.9847   -24343.922    101.58526   0.88510766 
   33600    234.79975   -284.14322       229892    -22645.98    1669.2459   -24315.226    101.78653   0.88510766 
   33700     232.2738   -349.01187       229892   -22650.434    1651.2883   -24301.722    102.12474   0.88510766 
   33800    241.12493   -438.23131       229892    -22575.68     1714.213   -24289.893     101.9578   0.88510766 
   33900    239.40191   -398.51691       229892   -22558.188    1701.9637   -24260.152    102.70437   0.88510766 
   34000     233.0956   -360.56103       229892    -22626.07    1657.1307   -24283.201    103.62522   0.88510766 
   34100    235.87237   -242.09947       229892   -22642.347    1676.8714   -24319.218    104.27309   0.88510766 
   34200    236.42755    -342.4082       229892   -22637.948    1680.8183   -24318.767    104.82116   0.88510766 
   34300    235.76375   -383.54192       229892   -22633.764    1676.0992   -24309.864    105.32268   0.88510766 
   34400    233.76545   -294.52456       229892   -22660.334    1661.8928   -24322.227     105.5599   0.88510766 
   34500    230.85596   -467.95626       229892   -22611.315    1641.2086   -24252.524    106.29424   0.88510766 
   34600    236.91978    -321.9113       229892   -22545.746    1684.3177   -24230.063    106.67782   0.88510766 
   34700    238.65962   -399.99526       229892   -22559.234    1696.6866    -24255.92    106.70346   0.88510766 
   34800    234.55603   -321.58005       229892   -22614.118    1667.5132   -24281.631    106.98381   0.88510766 
   34900    227.12096   -441.41452       229892   -22634.993    1614.6556   -24249.648     107.3483   0.88510766 
   35000    233.69453   -331.30884       229892   -22647.475    1661.3887   -24308.864    107.68288   0.88510766 
   35100    233.06487   -326.56241       229892   -22606.414    1656.9122   -24263.326    108.25412   0.88510766 
   35200    232.84875   -122.95689       229892   -22595.735    1655.3758    -24251.11     108.5576   0.88510766 
   35300    239.49926    -499.3833       229892   -22586.533    1702.6558   -24289.188    108.72072   0.88510766 
   35400    240.00104   -381.53012       229892   -22575.543    1706.2231   -24281.766    109.67712   0.88510766 
   35500    229.05563   -398.29425       229892   -22614.822    1628.4096   -24243.231    109.61653   0.88510766 
   35600    226.69915   -369.08033       229892   -22583.418    1611.6568   -24195.075    109.79834   0.88510766 
   35700    238.77434   -342.82428       229892    -22540.87    1697.5022   -24238.372    109.88249   0.88510766 
   35800     242.9657   -493.72107       229892   -22488.041    1727.2995   -24215.341    109.63185   0.88510766 
   35900    234.68235   -368.06675       229892   -22538.895    1668.4113   -24207.306    109.90862   0.88510766 
   36000    235.72866   -522.50383       229892   -22600.082    1675.8497   -24275.932    110.10564   0.88510766 
   36100    239.74187   -294.46409       229892   -22601.403    1704.3806   -24305.784     111.0946   0.88510766 
   36200    235.88179   -337.48405       229892   -22641.421    1676.9384    -24318.36    111.80911   0.88510766 
   36300    235.37243   -388.21427       229892   -22669.962    1673.3172   -24343.279    112.27081   0.88510766 
   36400    236.00707   -305.30633       229892   -22626.696     1677.829   -24304.525    112.50667   0.88510766 
   36500    236.76015   -406.52532       229892   -22599.376    1683.1828   -24282.559     112.5223   0.88510766 
   36600    236.05148   -233.57474       229892   -22607.104    1678.1447   -24285.249    112.23107   0.88510766 
   36700    239.77004    -468.1153       229892   -22593.524    1704.5808   -24298.105    112.14396   0.88510766 
   36800    233.61954   -188.01842       229892   -22659.503    1660.8555   -24320.359    111.88831   0.88510766 
   36900    231.90704   -468.50023       229892   -22676.294    1648.6809   -24324.975    112.08436   0.88510766 
   37000    231.41563   -411.42698       229892   -22686.325    1645.1874   -24331.512    111.91215   0.88510766 
   37100    234.81707    -493.4587       229892   -22695.433     1669.369   -24364.802    111.67723   0.88510766 
   37200    232.78874   -168.90906       229892   -22698.496    1654.9492   -24353.445    111.65713   0.88510766 
   37300    231.64254   -287.79439       229892    -22694.49    1646.8006   -24341.291    111.92446   0.88510766 
   37400    233.96746   -370.64126       229892   -22692.879    1663.3289   -24356.208    112.64078   0.88510766 
   37500    238.47649   -194.28342       229892     -22678.4    1695.3847   -24373.785    113.19936   0.88510766 
   37600     231.6799   -331.76448       229892   -22723.628    1647.0661   -24370.694    113.47119   0.88510766 
   37700    228.59412   -477.67177       229892    -22733.03    1625.1287   -24358.159    114.31132   0.88510766 
   37800     232.2412   -145.30361       229892   -22762.775    1651.0566   -24413.832    114.70421   0.88510766 
   37900    232.85189   -383.84066       229892   -22752.813    1655.3981   -24408.211    114.84237   0.88510766 
   38000    237.63444   -369.98853       229892   -22688.031    1689.3984   -24377.429    115.26634   0.88510766 
   38100    234.54832   -427.16222       229892   -22682.116    1667.4584   -24349.574      115.395   0.88510766 
   38200    231.54612   -457.55729       229892   -22663.851    1646.1151   -24309.966    115.54049   0.88510766 
   38300    239.52292   -353.11775       229892   -22626.556     1702.824    -24329.38    115.67167   0.88510766 
   38400    236.58125   -488.07221       229892   -22597.457     1681.911   -24279.368    115.65296   0.88510766 
   38500     234.5556   -292.05032       229892   -22638.666    1667.5102   -24306.176    116.40635   0.88510766 
   38600    232.10409   -377.53764       229892   -22615.324    1650.0818   -24265.406    116.22685   0.88510766 
   38700    240.00664    -413.8316       229892   -22596.033    1706.2628   -24302.296     116.8376   0.88510766 
   38800     240.1018   -394.69375       229892   -22622.147    1706.9394   -24329.087    116.83397   0.88510766 
   38900    238.93948   -509.33486       229892   -22588.547    1698.6762   -24287.223    117.75765   0.88510766 
   39000    239.06663   -240.15295       229892   -22611.212    1699.5801   -24310.792    118.10795   0.88510766 
   39100    235.20776   -296.66553       229892    -22654.01    1672.1466   -24326.157    118.58004   0.88510766 
   39200    230.53885   -329.77215       229892   -22681.224    1638.9542   -24320.178    118.72086   0.88510766 
   39300    230.14828   -302.69068       229892   -22755.228    1636.1775   -24391.405    119.51148   0.88510766 
   39400    236.46245   -413.82691       229892   -22710.468    1681.0664   -24391.535    119.74591   0.88510766 
   39500    234.65278    -287.1915       229892   -22674.494     1668.201   -24342.695    120.54974   0.88510766 
   39600     237.9074   -260.45618       229892   -22653.033    1691.3389   -24344.372    120.99459   0.88510766 
   39700    230.11575   -367.46557       229892   -22651.161    1635.9462   -24287.107    121.19061   0.88510766 
   39800    231.36838   -474.06023       229892   -22656.473    1644.8515   -24301.324    121.76512   0.88510766 
   39900    233.24538   -223.20355       229892   -22651.921    1658.1955   -24310.116    122.04181   0.88510766 
   40000    232.70495   -405.02998       229892   -22653.313    1654.3535   -24307.666    122.00899   0.88510766 
   40100    231.69908    -458.2067       229892   -22635.467    1647.2025   -24282.669    122.12124   0.88510766 
   40200    234.45708   -223.02868       229892   -22635.062    1666.8098   -24301.872    122.54153   0.88510766 
   40300    229.80896   -494.43467       229892   -22663.086    1633.7652   -24296.852    122.96292   0.88510766 
   40400    236.51727   -431.61426       229892   -22664.665    1681.4562   -24346.121    123.11238   0.88510766 
   40500    236.04568   -361.34844       229892    -22630.16    1678.1035   -24308.263    123.16097   0.88510766 
   40600    240.90296   -340.15206       229892   -22586.434     1712.635   -24299.069    123.44581   0.88510766 
   40700    233.38017   -395.98305       229892   -22663.569    1659.1537   -24322.723    123.67135   0.88510766 
   40800    228.97807   -286.79119       229892   -22676.356    1627.8582   -24304.214    123.75067   0.88510766 
   40900    234.60102   -339.97455       229892    -22675.65     1667.833   -24343.483    124.06942   0.88510766 
   41000    233.88409   -292.77106       229892   -22643.592    1662.7363   -24306.329    124.32684   0.88510766 
   41100    230.48929   -389.34855       229892   -22679.187    1638.6018   -24317.789    124.74089   0.88510766 
   41200    238.83821   -178.82922       229892   -22606.274    1697.9562    -24304.23    124.48142   0.88510766 
   41300    240.80507   -421.05841       229892   -22638.951    1711.9391    -24350.89     124.3772   0.88510766 
   41400    234.25417   -409.00572       229892   -22633.121    1665.3672   -24298.488    124.31806   0.88510766 
   41500    239.83601   -350.47221       229892   -22649.504    1705.0498   -24354.554    124.60404   0.88510766 
   41600     236.2768   -310.40437       229892   -22644.416    1679.7465   -24324.162    125.09057   0.88510766 
   41700    234.24954   -430.94771       229892   -22709.153    1665.3343   -24374.487     125.0836   0.88510766 
   41800    229.91983   -164.23307       229892   -22668.333    1634.5534   -24302.887    125.55674   0.88510766 
   41900    234.26863   -394.57301       229892   -22705.586      1665.47   -24371.056    126.20934   0.88510766 
   42000    237.77486   -513.92346       229892   -22692.978    1690.3966   -24383.374    127.19746   0.88510766 
   42100    230.15773   -371.19329       229892   -22741.038    1636.2447   -24377.283    127.62136   0.88510766 
   42200    234.19719   -193.66826       229892   -22721.083    1664.9621   -24386.046    127.80469   0.88510766 
   42300    234.50033   -312.28628       229892   -22681.095    1667.1172   -24348.213    127.76693   0.88510766 
   42400    232.75114   -338.23394       229892   -22665.429    1654.6818   -24320.111    127.90752   0.88510766 
   42500    234.67631   -419.90892       229892   -22677.235    1668.3683   -24345.603     127.7445   0.88510766 
   42600    232.18353   -317.67244       229892   -22695.458    1650.6465   -24346.105    127.66332   0.88510766 
   42700    233.82078   -261.78214       229892   -22692.888    1662.2861   -24355.174    127.52403   0.88510766 
   42800     233.1327   -168.95731       229892   -22658.019    1657.3945   -24315.413    127.96298   0.88510766 
   42900    239.66178   -400.59738       229892   -22674.248    1703.8112   -24378.059    128.42248   0.88510766 
   43000    231.12434   -431.00331       229892    -22666.67    1643.1166   -24309.787    128.21509   0.88510766 
   43100    243.60376   -282.43461       229892   -22640.339    1731.8356   -24372.175    128.08366   0.88510766 
   43200    234.98669    -399.1413       229892   -22668.799    1670.5749   -24339.374    128.08787   0.88510766 
   43300    234.84822   -229.15651       229892   -22693.289    1669.5905    -24362.88    128.85953   0.88510766 
   43400    234.29511   -494.69556       229892   -22655.548    1665.6583   -24321.206    129.12156   0.88510766 
   43500    244.32867   -257.06264       229892   -22600.237    1736.9892   -24337.226    128.79318   0.88510766 
   43600    231.44024   -532.24244       229892   -22672.488    1645.3623    -24317.85    129.11283   0.88510766 
   43700    233.10622   -320.82655       229892    -22718.27    1657.2062   -24375.476    129.68348   0.88510766 
   43800    232.93499   -502.18649       229892   -22710.863    1655.9889   -24366.852    129.81683   0.88510766 
   43900      238.327   -403.36566       229892   -22722.737    1694.3219   -24417.059    130.16924   0.88510766 
   44000    225.97763   -156.26145       229892    -22766.82    1606.5274   -24373.347     130.6236   0.88510766 
   44100    231.82181   -284.70973       229892   -22774.047    1648.0751   -24422.122    131.47576   0.88510766 
   44200    229.97313   -458.04425       229892   -22731.088    1634.9323    -24366.02    132.30187   0.88510766 
   44300    230.13461   -295.71881       229892   -22750.938    1636.0804   -24387.018    132.50842   0.88510766 
   44400    228.01994   -305.48877       229892   -22748.221    1621.0466   -24369.268    132.25447   0.88510766 
   44500    227.45442   -440.02008       229892   -22716.726    1617.0262   -24333.752     132.1025   0.88510766 
   44600    231.32693   -453.01012       229892   -22738.123    1644.5568   -24382.679     132.5515   0.88510766 
   44700    229.11705   -315.75805       229892   -22744.755    1628.8462   -24373.602    132.51943   0.88510766 
   44800    237.91748   -119.10566       229892   -22754.043    1691.4106   -24445.454    132.67666   0.88510766 
   44900    232.53758   -388.13938       229892    -22702.81    1653.1636   -24355.973    133.53348   0.88510766 
   45000    228.21169   -320.82053       229892   -22737.559    1622.4098   -24359.969    133.78341   0.88510766 
   45100    234.83919    -278.9456       229892    -22679.27    1669.5263   -24348.797    133.36913   0.88510766 
   45200    238.27041   -328.29697       229892   -22671.764    1693.9196   -24365.684    133.04272   0.88510766 
   45300    234.34592   -298.55463       229892   -22671.406    1666.0195   -24337.426    133.53547   0.88510766 
   45400    232.52126   -300.87418       229892   -22729.848    1653.0476   -24382.896    133.29016   0.88510766 
   45500    238.99823   -263.38711       229892   -22692.294    1699.0938   -24391.388    132.81787   0.88510766 
   45600    237.51611   -402.79201       229892   -22666.195    1688.5571   -24354.752    132.69138   0.88510766 
   45700    234.89516   -330.06743       229892    -22695.03    1669.9241   -24364.954    132.29228   0.88510766 
   45800    233.81453   -260.30815       229892   -22668.941    1662.2417   -24331.183    131.53162   0.88510766 
   45900    233.35379   -175.87411       229892   -22645.203    1658.9662   -24304.169    132.03376   0.88510766 
   46000    237.27027   -327.61489       229892   -22599.721    1686.8094    -24286.53     131.9836   0.88510766 
   46100    238.44987   -354.24554       229892   -22580.934    1695.1955   -24276.129    132.16808   0.88510766 
   46200    238.07197   -271.30978       229892   -22566.246    1692.5088   -24258.754    132.29391   0.88510766 
   46300    240.98814   -356.67234       229892    -22583.06    1713.2406     -24296.3    132.29994   0.88510766 
   46400    235.05096   -307.89193       229892   -22633.905    1671.0318   -24304.937    132.59537   0.88510766 
   46500     227.8972   -271.19294       229892   -22630.311     1620.174   -24250.485    133.43724   0.88510766 
   46600    234.16154   -521.51817       229892   -22628.605    1664.7087   -24293.314    133.78626   0.88510766 
   46700    232.85921   -275.39943       229892   -22578.796    1655.4501   -24234.246    133.40372   0.88510766 
   46800     241.5586   -300.18118       229892   -22591.177    1717.2961   -24308.473     133.6029   0.88510766 
   46900     231.1869   -377.86617       229892    -22594.13    1643.5613   -24237.691    134.28202   0.88510766 
   47000    237.74133   -319.56027       229892    -22561.74    1690.1583   -24251.898    134.23658   0.88510766 
   47100     237.6156   -314.52661       229892   -22607.962    1689.2644   -24297.227    134.40795   0.88510766 
   47200    238.05596   -438.49767       229892   -22657.258     1692.395   -24349.653    135.11087   0.88510766 
   47300    233.00296   -423.78634       229892   -22605.438    1656.4721    -24261.91    135.39624   0.88510766 
   47400    229.16459   -273.08242       229892    -22603.87    1629.1842   -24233.054    135.75114   0.88510766 
   47500    230.55255   -331.29061       229892   -22605.385    1639.0516   -24244.436    136.36217   0.88510766 
   47600    236.63212    -340.2014       229892   -22598.784    1682.2726   -24281.057    136.90126   0.88510766 
   47700    237.02904    -376.6727       229892   -22594.025    1685.0944   -24279.119    136.84288   0.88510766 
   47800     231.4625   -233.59635       229892   -22585.573    1645.5206   -24231.094    137.42804   0.88510766 
   47900    233.78234   -361.27144       229892   -22592.049    1662.0129   -24254.062    137.68116   0.88510766 
   48000    230.96477   -396.89697       229892   -22584.955    1641.9821   -24226.937     138.1549   0.88510766 
   48100     233.8508   -350.07012       229892   -22614.958    1662.4996   -24277.458    138.02847   0.88510766 
   48200    234.65824   -341.92613       229892   -22595.792    1668.2399   -24264.032    138.57409   0.88510766 
   48300    241.32971   -429.51541       229892   -22610.589    1715.6689   -24326.258    138.97399   0.88510766 
   48400    233.07053   -367.70855       229892   -22610.045    1656.9525   -24266.998    139.16569   0.88510766 
   48500    234.33922   -299.67247       229892    -22640.39    1665.9719   -24306.362    139.40275   0.88510766 
   48600    226.36414   -271.48491       229892   -22659.948    1609.2752   -24269.223    139.02185   0.88510766 
   48700    240.02452   -256.57221       229892   -22597.447      1706.39   -24303.837    139.25867   0.88510766 
   48800    233.49623   -296.05615       229892   -22636.949    1659.9789   -24296.928    139.97061   0.88510766 
   48900    238.52276    -306.5165       229892   -22605.581    1695.7136   -24301.295    140.51601   0.88510766 
   49000    232.68417   -473.94531       229892   -22633.116    1654.2057   -24287.322    140.09498   0.88510766 
   49100    237.24754   -346.81346       229892   -22614.759    1686.6478   -24301.407    140.69884   0.88510766 
   49200    235.96103    -267.1027       229892   -22596.482    1677.5017   -24273.984    141.58089   0.88510766 
   49300    236.81183   -285.18016       229892   -22604.546    1683.5502   -24288.097    142.18859   0.88510766 
   49400    233.20425   -436.17273       229892   -22660.963    1657.9031   -24318.866    142.77034   0.88510766 
   49500     231.1057   -333.74949       229892   -22670.332     1642.984   -24313.316    143.09986   0.88510766 
   49600    229.09884   -310.06954       229892    -22661.89    1628.7168   -24290.607    143.17551   0.88510766 
   49700    228.33563   -527.93126       229892   -22642.949     1623.291    -24266.24    143.15552   0.88510766 
   49800    231.88216   -259.78131       229892   -22659.335    1648.5041   -24307.839    143.31691   0.88510766 
   49900    232.16609    -328.2108       229892   -22631.227    1650.5226    -24281.75     143.3419   0.88510766 
   50000    233.74898   -399.19199       229892   -22669.032    1661.7757   -24330.807    144.16896   0.88510766 
Loop time of 184.962 on 12 procs for 50000 steps with 9010 atoms

Performance: 116.781 ns/day, 0.206 hours/ns, 270.326 timesteps/s
98.0% CPU use with 12 MPI tasks x no OpenMP threads

MPI task timing breakdown:
Section |  min time  |  avg time  |  max time  |%varavg| %total
---------------------------------------------------------------
Pair    | 12.202     | 64.606     | 147.91     | 603.1 | 34.93
Neigh   | 0.40724    | 6.1014     | 13.686     | 193.4 |  3.30
Comm    | 12.521     | 102.55     | 159.36     | 508.3 | 55.44
Output  | 2.2715     | 2.2757     | 2.311      |   0.7 |  1.23
Modify  | 6.0962     | 7.2023     | 8.4042     |  28.3 |  3.89
Other   |            | 2.224      |            |       |  1.20

Nlocal:        750.833 ave        1436 max          48 min
Histogram: 4 0 0 0 2 0 0 1 3 2
Nghost:        1904.67 ave        2381 max        1450 min
Histogram: 3 1 0 0 4 0 0 0 2 2
Neighs:        0.00000 ave           0 max           0 min
Histogram: 12 0 0 0 0 0 0 0 0 0
FullNghs:      74643.7 ave      155302 max        1980 min
Histogram: 4 2 0 0 0 0 0 1 3 2

Total # of neighbors = 895724
Ave neighs/atom = 99.414428
Neighbor list builds = 2865
Dangerous builds = 0

# Create data file for import to other simulations
#
write_data data.${NAME}
write_data data.Ibeam_235K
System init for write_data ...


Total wall time: 0:03:05
