
# Create simulation box
#
region 	     all block 0 ${XDIM} 0 ${YDIM} 0 ${ZDIM} units box
region 	     all block 0 78.752 0 ${YDIM} 0 ${ZDIM} units box
region 	     all block 0 78.752 0 72.97531888075024 0 ${ZDIM} units box
region 	     all block 0 78.752 0 72.97531888075024 0 30.0 units box
create_box          1 all
Created orthogonal box = (0.0000000 0.0000000 0.0000000) to (78.752000 72.975319 30.000000)
  4 by 3 by 1 MPI processor grid

# fill box with randomly distributed atoms of number density 0.0327 N/A**3
#
create_atoms        1 random 5638 63782 all
Created 5638 atoms
  create_atoms CPU = 0.001 seconds
mass                1 18.015

# Define potential
#
pair_style          sw
pair_coeff          * * ML.sw mW
Reading sw potential file ML.sw with DATE: 2019-02-27

# Run minimization
#
minimize            1.0e-8 1.0e-8 10000 1000
WARNING: Using 'neigh_modify every 1 delay 0 check yes' setting during minimization (../min.cpp:187)
Neighbor list info ...
  update every 1 steps, delay 0 steps, check yes
  max neighbors/atom: 2000, page size: 100000
  master list distance cutoff = 6.0032907
  ghost atom cutoff = 6.0032907
  binsize = 3.0016454, bins = 27 25 10
  1 neighbor lists, perpetual/occasional/extra = 1 0 0
  (1) pair sw, perpetual
      attributes: full, newton on
      pair build: full/bin/atomonly
      stencil: full/bin/3d
      bin: standard
Per MPI rank memory allocation (min/avg/max) = 4.212 | 4.215 | 4.222 Mbytes
Step Temp E_pair E_mol TotEng Press 
       0            0    8546915.3            0    8546915.3    4713861.8 
     673            0   -60816.315            0   -60816.315   -724.12486 
Loop time of 1.27065 on 12 procs for 673 steps with 5638 atoms

97.2% CPU use with 12 MPI tasks x no OpenMP threads

Minimization stats:
  Stopping criterion = max force evaluations
  Energy initial, next-to-last, final = 
      8546915.26794844  -60815.5160137182  -60816.3147002562
  Force two-norm initial, final = 1.3610265e+08 9.7899104
  Force max component initial, final = 78084875.0 2.9854584
  Final line search alpha, max atom move = 0.017293344 0.051628557
  Iterations, force evaluations = 673 1001

MPI task timing breakdown:
Section |  min time  |  avg time  |  max time  |%varavg| %total
---------------------------------------------------------------
Pair    | 0.78997    | 0.92968    | 1.1044     |   8.4 | 73.17
Neigh   | 0.020953   | 0.022777   | 0.025398   |   0.7 |  1.79
Comm    | 0.067229   | 0.22607    | 0.38432    |  14.9 | 17.79
Output  | 0          | 0          | 0          |   0.0 |  0.00
Modify  | 0          | 0          | 0          |   0.0 |  0.00
Other   |            | 0.09213    |            |       |  7.25

Nlocal:        469.833 ave         494 max         447 min
Histogram: 1 1 0 2 3 1 2 1 0 1
Nghost:        1117.50 ave        1163 max        1086 min
Histogram: 1 2 2 1 3 0 1 0 1 1
Neighs:        0.00000 ave           0 max           0 min
Histogram: 12 0 0 0 0 0 0 0 0 0
FullNghs:      13225.3 ave       14637 max       12289 min
Histogram: 2 1 1 2 2 2 1 0 0 1

Total # of neighbors = 158704
Ave neighs/atom = 28.148989
Neighbor list builds = 27
Dangerous builds = 0

# Add velocity/set timestep
#
velocity            all create ${TEMP} 120598 rot yes dist gaussian
velocity            all create 235 120598 rot yes dist gaussian
timestep            5.0

# Define output
#
compute	            1 all msd
thermo	            100
thermo_style        custom step temp press vol etotal ke pe c_1[4] density

# Neighbor lists
#
neigh_modify        delay 0 every 1 check yes

# Set fixes
#
fix                 1 all momentum 10 linear 1 1 1 rescale
fix                 2 all nve
fix                 3 all temp/csvr ${TEMP} ${TEMP} 500.0 928347
fix                 3 all temp/csvr 235 ${TEMP} 500.0 928347
fix                 3 all temp/csvr 235 235 500.0 928347
fix                 4 all press/berendsen z ${PRES} ${PRES} 1000.0 modulus 20000
fix                 4 all press/berendsen z 1 ${PRES} 1000.0 modulus 20000
fix                 4 all press/berendsen z 1 1 1000.0 modulus 20000

# Run equilibration
#
dump                1 all custom 1000 whole.${NAME}.dump id type x y z vx vy vz
dump                1 all custom 1000 whole.Ibeam_MLmW_235K.dump id type x y z vx vy vz
run                 25000
Per MPI rank memory allocation (min/avg/max) = 3.463 | 3.465 | 3.472 Mbytes
Step Temp Press Volume TotEng KinEng PotEng c_1[4] Density 
     673          235    322.82095    172408.57   -56867.651    3948.6642   -60816.315 5.6368766e-34   0.97824931 
     700    120.53151   -427.94401     172567.6   -56367.964      2025.27   -58393.234   0.12903912   0.97734777 
     800    170.31213   -118.09679    172365.47   -54998.273    2861.7251   -57859.998   0.49811587   0.97849389 
     900    192.96084   -163.51597    172150.82   -54234.634    3242.2874   -57476.922   0.93571632   0.97971395 
    1000    216.61883   -376.67622    171968.85   -53719.992    3639.8086     -57359.8    1.3547059   0.98075064 
    1100    224.37206   -127.73848    171737.45   -53443.528    3770.0847   -57213.612    1.8024479   0.98207212 
    1200    230.56825   -17.049255     171649.3   -53249.245    3874.1983   -57123.443    2.2197353   0.98257645 
    1300    236.59725   -135.46001    171323.27   -53108.531    3975.5025   -57084.033    2.7543637   0.98444634 
    1400    234.73645    2.4985237    171259.47   -53103.531    3944.2358   -57047.767    3.2422673   0.98481307 
    1500    234.28484    -69.23113     171260.5   -53057.958    3936.6475   -56994.605    3.7046716   0.98480713 
    1600    233.60115   -7.5627768    171255.96    -53092.25    3925.1596   -57017.409    4.1900808   0.98483326 
    1700    235.74945   -208.39265    171054.88   -53169.851     3961.257   -57131.108     4.488924   0.98599095 
    1800    237.03731   -172.50716    171033.64   -53138.613    3982.8968   -57121.509    4.9790265   0.98611337 
    1900    233.73942   -14.565687    171026.04    -53112.41    3927.4828   -57039.893    5.4007902   0.98615723 
    2000    239.64498   -30.846686    170963.42   -53101.893     4026.713   -57128.606    5.7336563   0.98651842 
    2100    234.99501   -457.33007    170651.59   -53209.927    3948.5804   -57158.507    6.0776883   0.98832108 
    2200    235.44849   -8.0193585    170489.98   -53253.217    3956.2001   -57209.418    6.5778922   0.98925792 
    2300    235.98814   -96.102062    170376.72   -53201.869    3965.2678   -57167.136    7.0323355   0.98991554 
    2400      234.653   -44.104549     170325.6   -53234.199    3942.8336   -57177.033    7.4456433   0.99021263 
    2500    235.95706    33.710756    170191.52    -53221.94    3964.7456   -57186.686     7.730741   0.99099278 
    2600    238.51968    35.581117    169979.24   -53092.831    4007.8048   -57100.636    8.1429736   0.99223036 
    2700    239.70626    216.17599    169973.72   -53133.159    4027.7427   -57160.901    8.5784973    0.9922626 
    2800    235.48235    198.15263    170258.51   -53229.899     3956.769   -57186.668    8.9104732   0.99060282 
    2900    236.57473    151.34944    170188.69   -53203.178     3975.124   -57178.302    9.3437868   0.99100922 
    3000    238.12937     164.4974    170226.77    -53194.74    4001.2464   -57195.986    9.8753927   0.99078754 
    3100    241.68991    9.9065031    170252.73   -53214.547    4061.0735    -57275.62    10.349238   0.99063647 
    3200    236.46504    200.23708    170162.67    -53206.77    3973.2811   -57180.051    10.757487   0.99116078 
    3300    235.69796    29.189669    169889.33   -53219.867    3960.3918   -57180.259    11.053607   0.99275547 
    3400    235.18651    217.12867     169947.1   -53191.413    3951.7981   -57143.211     11.36137     0.992418 
    3500    240.23281    123.13269    169952.23   -53177.851    4036.5902   -57214.441     11.84952   0.99238807 
    3600    237.54277   -17.085548    170023.95   -53169.441    3991.3898   -57160.831    12.279146   0.99196946 
    3700    235.86791    183.41826    169944.48   -53158.177    3963.2475   -57121.424     12.67888   0.99243333 
    3800    238.49059    131.65701    169853.22   -53193.531     4007.316   -57200.847    13.074606   0.99296652 
    3900    233.61792    208.43194    169951.36   -53301.451    3925.4413   -57226.892    13.591378   0.99239313 
    4000    233.90055    20.649667    169908.18   -53303.815    3930.1903   -57234.005    14.142688   0.99264536 
    4100    235.39244    222.39035    169986.96   -53276.493    3955.2583   -57231.751    14.621965    0.9921853 
    4200    232.42257     16.36169    169978.14   -53258.686     3905.356   -57164.042    15.167472   0.99223678 
    4300    235.56562   -1.5671661    170107.29   -53168.551    3958.1683    -57126.72    15.388147   0.99148346 
    4400    236.87962     21.47463       170031   -53167.775    3980.2471   -57148.022    15.695385   0.99192832 
    4500     234.7711    124.78631    170068.85   -53151.584    3944.8181   -57096.402    16.084105   0.99170755 
    4600     234.5553    149.12672    170273.11   -53183.993     3941.192   -57125.185    16.497536   0.99051792 
    4700    232.88758   -205.89745    170356.28   -53246.483    3913.1695   -57159.652    16.894245   0.99003432 
    4800     235.8247    19.275208    170510.36   -53234.327    3962.5215   -57196.849    17.194619    0.9891397 
    4900    232.87293     94.91346    170554.81   -53223.492    3912.9234   -57136.415    17.452085   0.98888192 
    5000    234.01127   -63.740159    170553.36   -53295.727    3932.0508   -57227.778    17.968962   0.98889032 
    5100    237.78439    137.40473    170721.33   -53252.117    3995.4498   -57247.567     18.42872   0.98791734 
    5200    233.61547   -222.63891    170634.07   -53294.814    3925.4002   -57220.214    18.822603   0.98842253 
    5300    233.12674    22.521482    170580.51   -53272.317     3917.188   -57189.505    19.335931   0.98873288 
    5400    236.57121    102.62782    170683.32   -53221.633    3975.0649   -57196.697    19.619913   0.98813738 
    5500    237.65964    118.66095    170754.05   -53218.827    3993.3536    -57212.18      19.9763   0.98772806 
    5600    237.77604   -10.390642    170952.74   -53183.173    3995.3096   -57178.482    20.421474   0.98658004 
    5700    235.99739    13.925671    170930.15   -53266.599    3965.4232   -57232.023    20.731486   0.98671045 
    5800    237.06513   -164.04975    170850.61   -53243.695    3983.3641   -57227.059    21.000528    0.9871698 
    5900     234.9053   -33.950344    170822.59   -53347.014     3947.073   -57294.087    21.476653   0.98733172 
    6000    236.03984   -212.74697     170703.1   -53401.938    3966.1363   -57368.075    21.926994   0.98802283 
    6100    233.05111   -204.93462    170690.77    -53393.48    3915.9173   -57309.398    22.344485   0.98809424 
    6200    231.69613    200.47328    170557.01   -53392.051    3893.1498   -57285.201    22.565607   0.98886913 
    6300    235.73852     184.2438    170603.29   -53371.081    3961.0733   -57332.154     23.09276    0.9886009 
    6400    231.75004    27.820757    170585.69    -53401.82    3894.0556   -57295.875    23.520804    0.9887029 
    6500    232.46522    -50.30838    170652.55   -53372.761    3906.0727   -57278.834    23.929042   0.98831551 
    6600    229.94178    95.108962    170667.75   -53410.429    3863.6718   -57274.101    24.324701   0.98822752 
    6700    232.99686    36.383307    170790.15   -53423.175    3915.0058   -57338.181    24.735279   0.98751929 
    6800    228.82195   -79.354388    170715.19   -53480.604    3844.8556   -57325.459    25.201178   0.98795286 
    6900    231.83161    56.125651    170691.71   -53399.877    3895.4262   -57295.303    25.299955   0.98808878 
    7000      237.022   -8.4042167    170818.07   -53286.013    3982.6394   -57268.652    25.569087   0.98735787 
    7100    230.56819      242.305    170979.78   -53397.038    3874.1972   -57271.235    25.942327   0.98642403 
    7200    233.54724    150.99822    171081.48   -53428.914    3924.2537   -57353.167    26.316129   0.98583766 
    7300    233.43364   -194.33481    171145.97   -53406.627    3922.3449   -57328.972    26.779307   0.98546618 
    7400    230.66821   -88.570604    170983.17   -53457.345    3875.8779   -57333.223    27.063013   0.98640445 
    7500    236.34086     169.9582    170922.35   -53398.533    3971.1943   -57369.727    27.405228   0.98675544 
    7600    234.11306    197.86951    171004.56   -53368.492     3933.761   -57302.253    27.680757   0.98628106 
    7700    232.84852    128.45297    171006.81   -53344.597    3912.5133    -57257.11    28.132485   0.98626809 
    7800    236.30746   -60.034805    170706.94   -53354.396    3970.6331   -57325.029    28.356716   0.98800065 
    7900    232.84601    95.612885    170764.68   -53511.631    3912.4711   -57424.102    28.607912   0.98766657 
    8000    229.40227   -60.345026    170771.34   -53482.955    3854.6064   -57337.562    29.029281   0.98762803 
    8100    234.75823   -6.6010309    170776.07   -53372.024    3944.6018   -57316.626    29.278428    0.9876007 
    8200    235.70115   -39.494934    170785.93   -53389.797    3960.4455   -57350.242    29.311476   0.98754365 
    8300    233.38833     39.23572    170822.08    -53344.74    3921.5836   -57266.324     29.70481   0.98733467 
    8400    235.56821     4.783182    170906.85   -53403.332    3958.2117   -57361.544     29.98207   0.98684499 
    8500    231.02997   -76.342237    170973.88   -53430.207    3881.9564   -57312.163    30.361448   0.98645807 
    8600    233.22558   -98.163731     170992.7   -53388.264     3918.849   -57307.113    30.865395   0.98634952 
    8700    236.27175    62.156816    171093.79   -53361.086    3970.0332   -57331.119    31.308051   0.98576673 
    8800    233.03225    111.76785    171118.13   -53331.796    3915.6003   -57247.396    31.946759   0.98562649 
    8900    239.69361    -217.0514    171028.15   -53361.546    4027.5301   -57389.076    32.350102   0.98614507 
    9000    239.42115      99.0759    170835.94   -53247.746    4022.9519   -57270.697    32.943097   0.98725457 
    9100    233.81182   -58.573231    170782.07   -53311.128    3928.6993   -57239.827    33.402644   0.98756596 
    9200     232.7746    145.51155    170758.37   -53336.748    3911.2711   -57248.019    33.783746   0.98770305 
    9300    233.76887   -43.193099    170686.01   -53331.737    3927.9777   -57259.715    34.270699   0.98812177 
    9400    234.98271    149.07564    170754.33   -53304.371    3948.3737   -57252.744     34.72561    0.9877264 
    9500    230.84088   -260.01889    170829.96   -53414.181    3878.7792    -57292.96    34.960611   0.98728916 
    9600    231.20244    106.07757    170970.82   -53432.066    3884.8544    -57316.92    35.096572   0.98647574 
    9700    237.18111   -308.30658    170995.86   -53393.398     3985.313   -57378.711    35.421437   0.98633128 
    9800    235.29024    114.85648    171128.89   -53416.052     3953.541   -57369.593    35.736684   0.98556455 
    9900    236.89978   -59.437767    171183.46   -53344.451    3980.5859   -57325.037     36.06562   0.98525034 
   10000    234.94029   -1.4712318    171225.73   -53500.573    3947.6608   -57448.234    36.461808    0.9850071 
   10100    237.72117     30.24992    171295.99   -53433.432    3994.3875   -57427.819    36.980769   0.98460312 
   10200    233.46455    135.24963    171163.74   -53493.716    3922.8642    -57416.58    37.305298   0.98536388 
   10300    234.21286    -113.2828    171280.08   -53398.349     3935.438   -57333.787    37.682601   0.98469454 
   10400    233.16378   -30.182335    171187.34   -53312.834    3917.8105   -57230.645     38.15303   0.98522803 
   10500    232.01542   -368.46225    171055.88   -53326.904    3898.5147   -57225.419    38.599413   0.98598516 
   10600     235.8276   -355.45472    170922.92   -53307.931    3962.5703   -57270.501     38.79225    0.9867522 
   10700    234.82766     336.8665    171030.17   -53348.831    3945.7684   -57294.599    39.067246   0.98613339 
   10800    236.05623   -76.385975    171237.72   -53332.327    3966.4117   -57298.739    39.605618   0.98493814 
   10900    240.41053   -32.082711    171097.07   -53247.273    4039.5763   -57286.849    39.980505   0.98574784 
   11000     236.3138   -32.788469    171121.91   -53287.064    3970.7397   -57257.804    40.325005   0.98560471 
   11100    234.58928   -186.27291    170931.27   -53349.056    3941.7629   -57290.819    40.542628   0.98670398 
   11200    233.67499    -289.9403    170994.94   -53342.191    3926.4002   -57268.591    40.810113   0.98633657 
   11300    233.75582   -91.943595    170899.72   -53392.255    3927.7584   -57320.013    41.144888   0.98688611 
   11400    237.16829    68.544765    170987.47   -53366.572    3985.0976   -57351.669    41.575354   0.98637969 
   11500    231.76729   -114.26348    171005.65   -53500.447    3894.3456   -57394.793    41.754237   0.98627483 
   11600    231.92863   -66.324534    171005.53   -53526.061    3897.0565   -57423.117    42.216968   0.98627547 
   11700    235.43605    102.59025    171131.39   -53439.065    3955.9911   -57395.056    42.692789   0.98555015 
   11800    234.58855    82.821653    171099.77   -53417.742    3941.7506   -57359.492    43.153445   0.98573224 
   11900    237.16512   -38.648566    171228.51   -53519.928    3985.0443   -57504.973    43.535896   0.98499115 
   12000     238.5033   -79.774026    171237.39    -53510.84    4007.5295   -57518.369    43.764958   0.98494008 
   12100    231.31007   -9.3882823    171309.46    -53525.57     3886.663   -57412.233    44.062142   0.98452569 
   12200    236.61332     42.32855    171450.87   -53381.351    3975.7725   -57357.123    44.519285   0.98371365 
   12300    239.00778    138.91085    171416.19   -53307.024    4016.0062    -57323.03    44.962316   0.98391267 
   12400    238.10993    -171.5856    171537.46   -53278.267    4000.9197   -57279.187    45.356712   0.98321713 
   12500    237.99593   -7.3035412    171511.71   -53281.521    3999.0042   -57280.526    45.624853    0.9833647 
   12600    234.04479   -58.892103    171509.54   -53326.354     3932.614   -57258.968    46.034716   0.98337713 
   12700    233.28383   -18.457018    171559.86   -53271.354    3919.8276   -57191.181    46.555261    0.9830887 
   12800     234.9076   -12.473526    171553.32   -53326.361    3947.1116   -57273.473    47.171269   0.98312621 
   12900    232.90148     71.11266    171564.27   -53329.508    3913.4031   -57242.911    47.816465   0.98306346 
   13000    234.17072   -77.683545    171497.34   -53387.221      3934.73   -57321.951    48.345134   0.98344708 
   13100    236.56788    30.144541    171544.72   -53364.754     3975.009   -57339.763    48.861988   0.98317547 
   13200    235.91213   -210.65969    171500.27   -53353.607    3963.9905   -57317.598    49.306879   0.98343031 
   13300    232.66959    144.57665    171480.91   -53358.497    3909.5067   -57268.004    49.950476   0.98354133 
   13400    232.85226   -26.851096    171430.83   -53399.124    3912.5761     -57311.7    50.691662   0.98382865 
   13500    237.84807    37.604633    171307.71   -53379.219    3996.5198   -57375.739    51.057202   0.98453576 
   13600    238.14606    173.44398    171292.38    -53362.81    4001.5269   -57364.337    51.412629   0.98462383 
   13700     230.8854   -117.85816    171378.26   -53403.137    3879.5273   -57282.665    51.540866   0.98413046 
   13800    237.72695   -8.8745666    171280.38    -53438.67    3994.4847   -57433.155    52.025845   0.98469286 
   13900    234.41886   -24.178929    171200.45   -53457.162    3938.8994   -57396.061    52.400774   0.98515255 
   14000    234.95024   -7.6452667     171002.8   -53528.465     3947.828   -57476.293    52.754617   0.98629124 
   14100    232.63556   -9.1219637    171092.82   -53484.078    3908.9349   -57393.013    52.947969   0.98577228 
   14200    231.29903   -235.81442    171075.24   -53450.214    3886.4774   -57336.692    53.239558   0.98587361 
   14300    233.55209   -59.322972    171122.09   -53491.302    3924.3352   -57415.637    53.578757   0.98560367 
   14400    235.33969    149.35281    171270.64   -53452.022     3954.372   -57406.394      53.8312   0.98474886 
   14500    233.89675    68.549982    171292.08   -53458.601    3930.1265   -57388.728    54.080448    0.9846256 
   14600    234.84566    22.721375    171331.33   -53374.783    3946.0708   -57320.854    54.478051   0.98440001 
   14700    236.23838   -71.138266    171457.09   -53345.486    3969.4725   -57314.958    54.620908   0.98367796 
   14800    237.31348    228.34814    171443.48   -53424.879    3987.5372   -57412.416    55.221086   0.98375609 
   14900    236.97539    10.136737     171483.3   -53381.136    3981.8564   -57362.993    55.495325   0.98352761 
   15000    236.87181    112.10661    171416.39   -53446.374    3980.1158    -57426.49     55.61161   0.98391155 
   15100    233.99048   -160.43443    171358.88   -53488.417    3931.7013   -57420.118     56.01204   0.98424174 
   15200    234.86417   -5.9825361    171238.57   -53541.602    3946.3819   -57487.984    56.498243   0.98493327 
   15300    237.10669    281.78383    171210.42   -53472.676    3984.0626   -57456.739    56.747925   0.98509523 
   15400    237.37547   -72.674836    171248.99   -53412.903    3988.5787   -57401.481    56.933772   0.98487333 
   15500    235.15449   -184.98021    171299.63   -53428.915    3951.2601   -57380.175    57.476093    0.9845822 
   15600    238.37973   -104.60343    171285.26   -53493.205    4005.4532   -57498.658    57.935238   0.98466476 
   15700    235.94283    62.738513    171258.56   -53515.356    3964.5064   -57479.862    58.413505   0.98481832 
   15800      232.082    208.79671    171337.79   -53533.194    3899.6335   -57432.827    58.743375   0.98436291 
   15900    235.79901   -76.422432    171371.51   -53510.511    3962.0898   -57472.601     59.02163   0.98416923 
   16000    231.19224    16.290664    171463.06   -53556.866    3884.6831   -57441.549    59.405717    0.9836437 
   16100    229.44004     121.0655    171601.79   -53535.275    3855.2411   -57390.516    59.859309   0.98284853 
   16200    239.54941    8.4377299    171709.84   -53396.442     4025.107    -57421.55    60.336224   0.98223002 
   16300     234.6576    8.0710214    171595.56   -53396.598    3942.9108   -57339.509    61.048715   0.98288417 
   16400    234.46407   -201.49505     171566.3   -53332.762     3939.659   -57272.421    61.256989   0.98305183 
   16500    239.69266   -149.12231    171511.03   -53349.959    4027.5142   -57377.473    61.714546   0.98336862 
   16600    232.44934   -85.262872    171407.97   -53352.903    3905.8059   -57258.709    62.026949   0.98395988 
   16700    231.19344    -239.9845    171181.92   -53447.442    3884.7032   -57332.146    62.338315   0.98525923 
   16800    234.51872    29.257206    171041.52   -53408.713    3940.5774   -57349.291      62.8166   0.98606794 
   16900    237.59158    120.16872    171142.74   -53387.003    3992.2101   -57379.213    63.440735   0.98548479 
   17000    238.38347    82.074083    171088.88   -53382.736     4005.516   -57388.252    64.154847   0.98579503 
   17100    236.99866    102.70638    171087.43   -53393.466    3982.2474   -57375.714    64.754837   0.98580336 
   17200    234.26501    157.51072    171139.54   -53339.741    3936.3142   -57276.055     65.42966   0.98550322 
   17300    234.97559   -132.83877    171050.14   -53325.303     3948.254   -57273.557     65.90731   0.98601825 
   17400    235.34034    125.85524    171125.66   -53348.976    3954.3828   -57303.359    66.552034   0.98558315 
   17500    236.27798    40.466134     171318.2   -53325.713    3970.1378   -57295.851    67.127257   0.98447548 
   17600    233.29522    12.988252    171289.71   -53420.977     3920.019   -57340.996    67.495036   0.98463919 
   17700    239.88058    188.50446    171337.26    -53382.08    4030.6717   -57412.752     67.69619   0.98436592 
   17800    236.81498    59.473755    171412.54     -53414.9     3979.161   -57394.061    67.975983   0.98393361 
   17900    233.74908    300.77541    171660.71   -53446.492    3927.6452   -57374.138    68.077938   0.98251116 
   18000    233.61593     61.28432    171731.41   -53514.531    3925.4079   -57439.939    68.144877   0.98210669 
   18100    234.75068   -171.37781    171795.32    -53485.07    3944.4749   -57429.545    68.404399   0.98174129 
   18200    234.37567   -6.1046044    171739.62   -53449.372    3938.1737   -57387.546    68.476929    0.9820597 
   18300    232.41415    129.11795    171852.29   -53489.105    3905.2146   -57394.319    68.797177   0.98141586 
   18400     234.0084    98.136023     172024.7   -53555.513    3932.0026   -57487.516    69.443915   0.98043223 
   18500    232.00344   -83.974819    171939.89   -53457.315    3898.3134   -57355.629    69.859788   0.98091583 
   18600    233.08984    17.233626    171724.95   -53460.507    3916.5681   -57377.075    70.093532   0.98214362 
   18700     237.6683    188.95173    171810.15   -53377.202    3993.4992   -57370.701     70.78797   0.98165655 
   18800    237.03566   -20.462439    172031.66   -53430.789     3982.869   -57413.658    71.296666   0.98039257 
   18900     232.9791   -116.33239    172082.01   -53450.685    3914.7073   -57365.393    71.908306   0.98010574 
   19000    233.62748    112.10314    172021.08   -53427.881     3925.602   -57353.483    72.343954   0.98045288 
   19100    231.65813   -172.17402    172018.13   -53501.591    3892.5113   -57394.102    72.697144   0.98046968 
   19200    234.68024    39.414365    172123.93    -53458.45    3943.2913   -57401.742    73.186018   0.97986702 
   19300    234.08361   -21.160775    171847.62   -53450.122    3933.2662   -57383.388    73.397079   0.98144255 
   19400    237.98784    97.827118    171694.49    -53472.22    3998.8684   -57471.088    73.901935   0.98231785 
   19500    236.75432   -231.78373    171647.62   -53425.513    3978.1417   -57403.654    74.027946   0.98258609 
   19600    239.33223    159.54162    171713.25   -53418.164    4021.4579   -57439.622    74.453667   0.98221055 
   19700    239.34089   -6.6324656    171683.82   -53413.231    4021.6034   -57434.834    74.933721   0.98237889 
   19800    236.41705   -129.36587    171608.33   -53417.303    3972.4747   -57389.778     75.32767   0.98281106 
   19900     234.7591   -4.8053554    171762.96   -53411.977    3944.6163   -57356.594    75.929534   0.98192627 
   20000    232.91249   -67.782695     171533.6   -53395.396    3913.5881   -57308.984    76.276671   0.98323925 
   20100    237.59916    212.39362    171532.26   -53393.485    3992.3375   -57385.822    76.848677    0.9832469 
   20200    235.41392    96.388168    171659.92   -53348.983    3955.6192   -57304.602    77.433457   0.98251567 
   20300    237.71867    -157.3144    171660.18   -53314.488    3994.3455   -57308.834    77.903776   0.98251419 
   20400    238.47652   -3.1949965     171498.9   -53345.045    4007.0795   -57352.124    78.145899   0.98343819 
   20500    238.76076    -226.3022    171402.74    -53308.95    4011.8556   -57320.805    78.525577   0.98398987 
   20600    237.05702    229.05573    171493.26   -53405.068    3983.2278   -57388.296    79.021557   0.98347048 
   20700    234.36016    44.466649    171451.77   -53470.317    3937.9131    -57408.23    79.056513    0.9837085 
   20800    238.58919    156.41398    171334.13    -53472.81    4008.9727   -57481.783    79.422694   0.98438392 
   20900    231.83309    9.8263352    171541.06    -53467.36    3895.4511   -57362.811    79.799675   0.98319645 
   21000    236.41661   -92.907233     171602.8   -53359.182    3972.4672    -57331.65    80.258242   0.98284271 
   21100    231.81897    8.4372853    171696.01   -53426.028    3895.2139   -57321.242    80.981665   0.98230915 
   21200    231.07864    137.50956     171777.8   -53512.114    3882.7742   -57394.888    81.156342   0.98184147 
   21300     232.4202     134.4754    171886.72   -53500.453    3905.3162   -57405.769    81.476378   0.98121927 
   21400    234.72141    126.00767    171975.79   -53385.325     3943.983   -57329.308    81.947328   0.98071107 
   21500    236.59255    15.568206     172101.4   -53329.724    3975.4235   -57305.147     82.03399   0.97999532 
   21600    233.96766   -246.04926    171955.65   -53403.418     3931.318   -57334.736    82.163931   0.98082592 
   21700    240.06479    198.03644    171723.99   -53379.698     4033.767   -57413.465    82.521621   0.98214909 
   21800    238.77487    10.181228    171722.29   -53392.078    4012.0926   -57404.171    83.009406   0.98215884 
   21900    238.29262   -31.492099    171745.48   -53350.276    4003.9895   -57354.265    83.447115   0.98202621 
   22000    237.61781   -79.674684     171901.3   -53418.972    3992.6508   -57411.623    83.832592   0.98113605 
   22100    238.14118   -401.94045    171857.12   -53373.491    4001.4448   -57374.935    83.980932    0.9813883 
   22200    239.01758   -112.04285       171674    -53339.29    4016.1708   -57355.461    84.311707   0.98243511 
   22300    236.00557   -108.12009     171810.1   -53402.349    3965.5606    -57367.91    84.673919   0.98165684 
   22400    236.65233   -6.5928568    171956.42   -53502.923     3976.428   -57479.351    85.155406   0.98082157 
   22500     235.1942   -42.844634    171762.09   -53499.457    3951.9272   -57451.384    85.282718   0.98193128 
   22600    232.88985   -71.999419    171774.48   -53453.488    3913.2076   -57366.696    85.781668   0.98186043 
   22700    234.44046   -279.86649    171733.58   -53481.452    3939.2623   -57420.714    86.097136   0.98209424 
   22800    233.56411   -231.65754    171630.07   -53539.436    3924.5372   -57463.973    86.535204   0.98268659 
   22900    233.97381    -51.81455       171660   -53541.742    3931.4213   -57473.164    87.085034   0.98251523 
   23000    235.62287   -119.13375    171846.09   -53433.534    3959.1301   -57392.664    87.750412   0.98145125 
   23100    235.55221    25.246783    171770.38   -53414.875    3957.9429   -57372.818    88.087339   0.98188387 
   23200    237.51104    112.76296    171869.91   -53426.659    3990.8568   -57417.516    88.634318   0.98131525 
   23300    235.65782   -208.11731    171914.43   -53479.097    3959.7174   -57438.814    88.823031   0.98106112 
   23400    236.38846   -30.238614    171929.98   -53503.932    3971.9943   -57475.926    89.101468   0.98097239 
   23500    236.80595   -167.80632    171995.44   -53485.684    3979.0093   -57464.693    89.740897   0.98059905 
   23600    235.48843    159.89908    172090.39   -53557.532    3956.8711   -57514.403    89.607221   0.98005803 
   23700    234.25312    264.05508    172337.85    -53567.92    3936.1145   -57504.034    90.196942   0.97865075 
   23800    232.67537   -79.136734    172314.19   -53564.815    3909.6038   -57474.419    90.703844   0.97878509 
   23900     234.9313   -195.22124    172316.95   -53468.702    3947.5097   -57416.212    90.990922   0.97876944 
   24000     233.1838   -253.92769     172219.9   -53411.582    3918.1469   -57329.729    91.210805     0.979321 
   24100     236.3495   -279.68849    172137.59    -53410.34    3971.3396    -57381.68     91.68349   0.97978926 
   24200    235.02888    -135.0493    171900.47   -53368.502    3949.1494   -57317.652    91.942612   0.98114081 
   24300    234.82207   -161.27369    171653.73   -53409.244    3945.6744   -57354.919     92.07923   0.98255112 
   24400    235.49407    147.53569     171817.4   -53367.732     3956.966   -57324.698    92.361386   0.98161518 
   24500    234.81856     111.7566    171878.98    -53397.11    3945.6155   -57342.725    92.775279   0.98126344 
   24600    234.55707    244.72746    171766.85   -53387.952    3941.2216   -57329.173     93.31216   0.98190404 
   24700    236.70154   -165.88969     171861.3   -53364.274    3977.2549   -57341.529    94.079795   0.98136443 
   24800    236.17403   -18.757542    171719.83   -53346.711    3968.3912   -57315.102    94.499319    0.9821729 
   24900    231.56479    108.97435    171617.32    -53412.96     3890.943   -57303.903    95.089755   0.98275954 
   25000    237.77403    97.466527    171710.16   -53426.912    3995.2757   -57422.188    95.702682   0.98222823 
   25100     233.5668    172.37384    171683.44    -53402.65    3924.5824   -57327.233     96.19367   0.98238108 
   25200    235.20054    250.44948    171830.02   -53428.263    3952.0339   -57380.297     96.86781   0.98154303 
   25300    239.24744    123.10687    171676.36   -53478.549    4020.0332   -57498.582    97.341277   0.98242162 
   25400    236.58782   -39.497067    171829.28   -53423.632     3975.344   -57398.976    97.947019   0.98154731 
   25500    233.43217   -194.81656    171870.19    -53441.95    3922.3201   -57364.271    98.465817   0.98131364 
   25600    233.90362   -48.749019    171820.91   -53496.518    3930.2419    -57426.76    98.561246   0.98159512 
   25673    234.55369   -163.83902    171723.76   -53483.209     3941.165   -57424.374    98.825551   0.98215043 
Loop time of 30.5157 on 12 procs for 25000 steps with 5638 atoms

Performance: 353.916 ns/day, 0.068 hours/ns, 819.250 timesteps/s
97.0% CPU use with 12 MPI tasks x no OpenMP threads

MPI task timing breakdown:
Section |  min time  |  avg time  |  max time  |%varavg| %total
---------------------------------------------------------------
Pair    | 20.036     | 20.83      | 21.781     |  11.6 | 68.26
Neigh   | 1.234      | 1.2734     | 1.3207     |   2.6 |  4.17
Comm    | 4.2015     | 5.4096     | 6.3383     |  24.9 | 17.73
Output  | 0.067259   | 0.068892   | 0.084757   |   1.8 |  0.23
Modify  | 2.1259     | 2.5366     | 3.0144     |  16.2 |  8.31
Other   |            | 0.3976     |            |       |  1.30

Nlocal:        469.833 ave         479 max         459 min
Histogram: 1 0 2 0 2 1 2 1 1 2
Nghost:        1116.92 ave        1131 max        1096 min
Histogram: 1 0 1 0 2 2 1 2 2 1
Neighs:        0.00000 ave           0 max           0 min
Histogram: 12 0 0 0 0 0 0 0 0 0
FullNghs:      13395.5 ave       13764 max       12941 min
Histogram: 1 1 0 3 1 0 1 2 1 2

Total # of neighbors = 160746
Ave neighs/atom = 28.511174
Neighbor list builds = 1514
Dangerous builds = 0

unfix               2
unfix               3
unfix               4

write_data		data.whole_${NAME}
write_data		data.whole_Ibeam_MLmW_235K
System init for write_data ...


# Create the I-beam, width 35A
region beam block 21.876 56.876 0.0 INF 0.0 INF side out
delete_atoms region beam
Deleted 3136 atoms, new total = 2502

fix                 1 all momentum 10 linear 1 1 1 rescale
fix                 2 all nve
fix                 3 all temp/csvr ${TEMP} ${TEMP} 500.0 928347
fix                 3 all temp/csvr 235 ${TEMP} 500.0 928347
fix                 3 all temp/csvr 235 235 500.0 928347

# Run 0.05 ns equilibration
#
dump                2 all custom 1000 eq.${NAME}.dump id type x y z vx vy vz
dump                2 all custom 1000 eq.Ibeam_MLmW_235K.dump id type x y z vx vy vz
run                 10000
Per MPI rank memory allocation (min/avg/max) = 4.743 | 4.745 | 4.752 Mbytes
Step Temp Press Volume TotEng KinEng PotEng c_1[4] Density 
   25673    233.86898   -522.39231    171723.76   -22884.207    1743.4946   -24627.702    103.25095    0.4358532 
   25700    240.91087   -30.538427    171723.76   -22891.511     1795.992   -24687.503    103.41886    0.4358532 
   25800    243.19788    199.62375    171723.76   -22985.771    1813.0416   -24798.813    104.15741    0.4358532 
   25900    238.55454   -110.32858    171723.76   -23016.042    1778.4255   -24794.467     104.7845    0.4358532 
   26000    237.46165    195.88891    171723.76   -23033.687     1770.278   -24803.965    104.52041    0.4358532 
   26100    235.52769    248.53604    171723.76   -23052.186    1755.8603   -24808.046     104.9325    0.4358532 
   26200    244.28863   -244.38022    171723.76   -23041.897    1821.1732    -24863.07    105.77642    0.4358532 
   26300    243.27305   -384.54231    171723.76   -22999.702     1813.602   -24813.304    105.81512    0.4358532 
   26400    243.57127    207.01686    171723.76   -23058.402    1815.8253   -24874.227     106.3152    0.4358532 
   26500    240.57786   -112.93053    171723.76    -23080.47    1793.5094   -24873.979    106.58927    0.4358532 
   26600    232.73586   -156.22287    171723.76   -23127.624    1735.0472   -24862.671    107.00132    0.4358532 
   26700     238.6827   -130.49446    171723.76   -23157.316    1779.3809   -24936.697    107.56401    0.4358532 
   26800    232.08455    2.3829239    171723.76   -23122.678    1730.1917    -24852.87    107.85077    0.4358532 
   26900    235.89242   -1.1341712    171723.76   -23105.762    1758.5794   -24864.341    107.89484    0.4358532 
   27000    234.62893   -219.34018    171723.76   -23092.653    1749.1601   -24841.813    107.77123    0.4358532 
   27100    239.22828   -69.884681    171723.76   -23126.277    1783.4482   -24909.725    108.08787    0.4358532 
   27200    240.49929   -8.1779084    171723.76   -23155.584    1792.9236   -24948.508    108.12405    0.4358532 
   27300    234.16582   -97.531859    171723.76   -23135.325    1745.7075   -24881.033     108.1777    0.4358532 
   27400    228.03959   -226.65472    171723.76   -23137.986    1700.0365   -24838.022    108.49297    0.4358532 
   27500    240.79404    144.81234    171723.76   -23119.253     1795.121   -24914.374    109.11723    0.4358532 
   27600    242.73514   -60.731039    171723.76   -23076.278    1809.5919    -24885.87    110.12033    0.4358532 
   27700    234.20612    -84.32545    171723.76   -23085.928     1746.008   -24831.936    110.62111    0.4358532 
   27800    240.47856   -107.93805    171723.76   -23172.992    1792.7691   -24965.761    111.06845    0.4358532 
   27900    233.25332   -36.326893    171723.76   -23162.555    1738.9049    -24901.46    111.85527    0.4358532 
   28000     237.8153   -89.606721    171723.76   -23143.256    1772.9144    -24916.17    112.43387    0.4358532 
   28100    236.90933    35.695385    171723.76   -23168.394    1766.1605   -24934.554    112.96888    0.4358532 
   28200    237.40751   -48.806804    171723.76   -23148.186    1769.8744    -24918.06    113.66407    0.4358532 
   28300    237.18932   -18.549704    171723.76   -23172.572    1768.2478    -24940.82    113.96321    0.4358532 
   28400     238.0017    44.768081    171723.76   -23160.802    1774.3041   -24935.106    114.58677    0.4358532 
   28500    235.53286   -69.245846    171723.76    -23125.03    1755.8989   -24880.929    114.96975    0.4358532 
   28600    238.72474    -91.85329    171723.76   -23119.822    1779.6944   -24899.516    115.43465    0.4358532 
   28700    235.90889   -108.94507    171723.76   -23099.245    1758.7022   -24857.948    115.71496    0.4358532 
   28800    241.02383     97.83063    171723.76    -23124.84    1796.8341   -24921.674    116.37742    0.4358532 
   28900    230.93531   -30.744842    171723.76   -23206.414    1721.6241   -24928.038    117.41892    0.4358532 
   29000    230.55996   -197.64706    171723.76   -23226.574    1718.8259     -24945.4     117.7729    0.4358532 
   29100    230.25892   -357.21354    171723.76   -23191.346    1716.5816   -24907.928    118.52378    0.4358532 
   29200    237.85994    80.415365    171723.76   -23183.948    1773.2472   -24957.196    118.98165    0.4358532 
   29300    235.81456   -156.18686    171723.76   -23156.018    1757.9989   -24914.017     119.3392    0.4358532 
   29400    233.70017   -130.80717    171723.76    -23155.07    1742.2362   -24897.306     119.2387    0.4358532 
   29500    233.81118   -19.488089    171723.76   -23143.159    1743.0637   -24886.223    119.33736    0.4358532 
   29600    238.79189    -79.19012    171723.76   -23153.935     1780.195    -24934.13     119.9262    0.4358532 
   29700    233.19658    -202.7547    171723.76   -23173.855    1738.4819   -24912.337    120.21789    0.4358532 
   29800     234.0985   -289.87265    171723.76    -23147.74    1745.2057   -24892.945    120.97276    0.4358532 
   29900    238.29878    41.996537    171723.76   -23129.365    1776.5188   -24905.884    121.41853    0.4358532 
   30000    233.80202      84.0525    171723.76   -23183.209    1742.9955   -24926.205    122.20509    0.4358532 
   30100    233.88761   -100.23035    171723.76   -23133.058    1743.6335   -24876.691    122.70567    0.4358532 
   30200    235.97185   -135.15293    171723.76   -23163.488    1759.1715   -24922.659    123.43498    0.4358532 
   30300     233.3754     169.7279    171723.76   -23161.006     1739.815   -24900.821    123.56063    0.4358532 
   30400    234.49016   -102.08754    171723.76   -23105.401    1748.1255   -24853.526    123.48954    0.4358532 
   30500    235.57875   -208.17249    171723.76   -23092.355     1756.241   -24848.596    123.94474    0.4358532 
   30600    243.83758    -86.87938    171723.76   -23054.643    1817.8106   -24872.453    124.27813    0.4358532 
   30700    231.81852   -389.64722    171723.76   -23140.765    1728.2084   -24868.973    124.89337    0.4358532 
   30800    238.13441   -97.391543    171723.76   -23098.726    1775.2935   -24874.019    124.80356    0.4358532 
   30900    239.80618   -93.852155    171723.76   -23158.526    1787.7565   -24946.282    125.31629    0.4358532 
   31000    239.64099   -241.98452    171723.76    -23204.48     1786.525   -24991.005    125.93398    0.4358532 
   31100    231.03562    6.2527899    171723.76   -23222.354    1722.3719   -24944.726    126.07336    0.4358532 
   31200    232.58929   -32.930826    171723.76   -23205.912    1733.9546   -24939.866    126.78428    0.4358532 
   31300    232.86733   -144.41465    171723.76   -23205.645    1736.0273   -24941.672    127.01223    0.4358532 
   31400    233.55357   -134.40441    171723.76   -23181.336    1741.1432   -24922.479    127.22655    0.4358532 
   31500    237.29445   -75.046875    171723.76   -23148.108    1769.0315   -24917.139    127.63816    0.4358532 
   31600    237.31792   -148.28289    171723.76   -23203.676    1769.2065   -24972.883    128.49224    0.4358532 
   31700    229.38303   -36.031991    171723.76   -23202.571    1710.0519   -24912.623     129.3855    0.4358532 
   31800    229.71356    -123.2831    171723.76   -23265.625     1712.516   -24978.141    130.01194    0.4358532 
   31900    228.30075   -226.19147    171723.76   -23231.126    1701.9835   -24933.109    130.61214    0.4358532 
   32000    238.67532    17.898391    171723.76   -23158.523     1779.326   -24937.849    131.19514    0.4358532 
   32100    230.87662    -26.78132    171723.76   -23231.934    1721.1866    -24953.12    130.92305    0.4358532 
   32200    235.66037   -332.58404    171723.76   -23241.376    1756.8495   -24998.225    131.03157    0.4358532 
   32300    236.66378   -88.937731    171723.76    -23270.63    1764.3299    -25034.96    132.47852    0.4358532 
   32400    231.56207   -204.10972    171723.76   -23296.467    1726.2966   -25022.764    132.82916    0.4358532 
   32500    236.77462   -95.534113    171723.76   -23253.805    1765.1562   -25018.961    133.39928    0.4358532 
   32600    231.80745   -36.337465    171723.76   -23236.686    1728.1259   -24964.812    132.94794    0.4358532 
   32700    234.26296    -20.19339    171723.76   -23190.105    1746.4318   -24936.536     133.0136    0.4358532 
   32800    233.45381   -67.560801    171723.76   -23223.589    1740.3995   -24963.989    133.37313    0.4358532 
   32900    232.27456   -163.81672    171723.76    -23285.44    1731.6082   -25017.048    132.81191    0.4358532 
   33000    232.71253   -68.498438    171723.76   -23281.401    1734.8733   -25016.274    132.94571    0.4358532 
   33100    234.52004   -168.00897    171723.76   -23240.118    1748.3483   -24988.466    132.90303    0.4358532 
   33200    234.80313   -297.59326    171723.76    -23243.95    1750.4587   -24994.409     133.3537    0.4358532 
   33300    233.62331   -125.30338    171723.76   -23219.127    1741.6631    -24960.79    133.72137    0.4358532 
   33400    234.17318   -163.26192    171723.76   -23223.444    1745.7624   -24969.206    134.40581    0.4358532 
   33500    236.28054   -47.192099    171723.76   -23254.538    1761.4728   -25016.011    134.57259    0.4358532 
   33600    229.02395   -96.192381    171723.76   -23211.378    1707.3749   -24918.753    134.61078    0.4358532 
   33700    236.74969   -102.99294    171723.76    -23189.08    1764.9704   -24954.051    135.12458    0.4358532 
   33800    238.80271   -174.78938    171723.76   -23138.036    1780.2756   -24918.311    135.15274    0.4358532 
   33900    233.75144    121.90076    171723.76   -23169.926    1742.6184   -24912.544    135.56045    0.4358532 
   34000    243.27527   -262.10579    171723.76   -23149.686    1813.6186   -24963.305    135.69333    0.4358532 
   34100    236.50939   -62.038785    171723.76   -23137.707    1763.1789   -24900.886    136.24541    0.4358532 
   34200    237.25922    94.426886    171723.76   -23181.833    1768.7689   -24950.602     136.8664    0.4358532 
   34300    236.49526    23.777574    171723.76   -23208.773    1763.0736   -24971.847       137.11    0.4358532 
   34400    235.89807   -165.16255    171723.76   -23207.486    1758.6215   -24966.107     138.1442    0.4358532 
   34500    233.58426   -125.16497    171723.76   -23233.082    1741.3721   -24974.455    138.68915    0.4358532 
   34600     238.1423    148.85572    171723.76   -23258.377    1775.3523   -25033.729    139.35561    0.4358532 
   34700    239.24104    56.820165    171723.76   -23222.319    1783.5434   -25005.862    139.99065    0.4358532 
   34800    238.02912    -42.26811    171723.76   -23270.958    1774.5085   -25045.467    139.82919    0.4358532 
   34900    238.07447   -90.255988    171723.76   -23195.058    1774.8466   -24969.904    140.04155    0.4358532 
   35000    237.90978   -163.10604    171723.76   -23307.391    1773.6188    -25081.01    140.31179    0.4358532 
   35100    237.12093   -166.89968    171723.76    -23264.96    1767.7379   -25032.698    140.65042    0.4358532 
   35200    230.72363   -72.761155    171723.76   -23272.059    1720.0461   -24992.105    140.66562    0.4358532 
   35300    228.49634   -178.78434    171723.76   -23238.552    1703.4416   -24941.993    141.29452    0.4358532 
   35400    231.00888   -40.079597    171723.76   -23176.539    1722.1726   -24898.711    142.11487    0.4358532 
   35500    235.39578    69.663875    171723.76   -23183.029    1754.8769   -24937.906    142.12391    0.4358532 
   35600    237.16898    -223.2318    171723.76    -23186.53    1768.0962   -24954.626    142.53051    0.4358532 
   35673    241.55951   -110.72498    171723.76   -23204.009    1800.8276   -25004.836    142.82744    0.4358532 
Loop time of 8.81542 on 12 procs for 10000 steps with 2502 atoms

Performance: 490.050 ns/day, 0.049 hours/ns, 1134.376 timesteps/s
97.8% CPU use with 12 MPI tasks x no OpenMP threads

MPI task timing breakdown:
Section |  min time  |  avg time  |  max time  |%varavg| %total
---------------------------------------------------------------
Pair    | 0.00097066 | 3.2254     | 6.8985     | 180.2 | 36.59
Neigh   | 0.0026697  | 0.19611    | 0.41273    |  43.7 |  2.22
Comm    | 0.78744    | 3.4594     | 7.2226     | 128.7 | 39.24
Output  | 0.034038   | 0.034557   | 0.039035   |   0.7 |  0.39
Modify  | 0.41658    | 1.6532     | 4.9112     | 115.1 | 18.75
Other   |            | 0.2468     |            |       |  2.80

Nlocal:        208.500 ave         446 max           0 min
Histogram: 6 0 0 0 0 0 0 0 2 4
Nghost:        468.917 ave         773 max         125 min
Histogram: 3 3 0 0 0 0 0 0 0 6
Neighs:        0.00000 ave           0 max           0 min
Histogram: 12 0 0 0 0 0 0 0 0 0
FullNghs:      5550.83 ave       11957 max           0 min
Histogram: 6 0 0 0 0 0 0 0 3 3

Total # of neighbors = 66610
Ave neighs/atom = 26.622702
Neighbor list builds = 574
Dangerous builds = 0


write_data		data.${NAME}
write_data		data.Ibeam_MLmW_235K
System init for write_data ...
Total wall time: 0:00:40
