
### Dimensions ###


### IMPORT ATOMS ###
read_data ../Box_Setup/data.Ibeam_240K
Reading data file ...
  orthogonal box = (0.0000000 0.0000000 0.0000000) to (68.908000 85.848302 27.975384)
  8 by 8 by 2 MPI processor grid
  reading atoms ...
  8493 atoms
  reading velocities ...
  8493 velocities
  read_data CPU = 0.020 seconds
group water type 2
1689 atoms in group water
group graphite type 1
6804 atoms in group graphite


# Define potential
#
pair_style          sw
pair_coeff * * MLC_e.sw C mW

# Add velocity/set timestep
#

fix		1 graphite setforce 0.0 0.0 0.0
velocity 	graphite set 0.0 0.0 0.0
velocity            water create ${START_TEMP} ${SEED} rot yes dist gaussian
velocity            water create 240 ${SEED} rot yes dist gaussian
velocity            water create 240 17049 rot yes dist gaussian
timestep            5.0

# Define output
#
compute 1 water msd
compute 2 water temp


thermo	            100
thermo_style custom step c_2 press vol etotal ke pe c_1[4] density

# Neighbor lists
#
neigh_modify        delay 0 every 1 check yes


# Set fixes
#
fix                 2 water momentum 10 linear 1 1 1 rescale
fix		3 water nvt temp ${START_TEMP} ${START_TEMP} $(100.0*dt)
fix		3 water nvt temp 240 ${START_TEMP} $(100.0*dt)
fix		3 water nvt temp 240 240 $(100.0*dt)
fix		3 water nvt temp 240 240 500

# Run 0.05 ns equilibration
#
dump                1 all custom 100 ${DIR}/eq.${NAME}.dump id type x y z vx vy vz
dump                1 all custom 100 run_6/eq.${NAME}.dump id type x y z vx vy vz
dump                1 all custom 100 run_6/eq.ibeam_cooling_6.dump id type x y z vx vy vz
run                 10000
Neighbor list info ...
  update every 1 steps, delay 0 steps, check yes
  max neighbors/atom: 2000, page size: 100000
  master list distance cutoff = 6.6747184
  ghost atom cutoff = 6.6747184
  binsize = 3.3373592, bins = 21 26 9
  1 neighbor lists, perpetual/occasional/extra = 1 0 0
  (1) pair sw, perpetual
      attributes: full, newton on
      pair build: full/bin/atomonly
      stencil: full/bin/3d
      bin: standard
Per MPI rank memory allocation (min/avg/max) = 3.603 | 4.507 | 4.728 Mbytes
Step c_2 Press Volume TotEng KinEng PotEng c_1[4] Density 
       0          240   -298.97748    165492.15   -16025.669    1207.5858   -17233.255            0    1.1252403 
     100    234.81632   -396.24963    165492.15   -16043.883    1181.5035   -17225.386   0.85139865    1.1252403 
     200    234.64273   -532.16394    165492.15   -16100.483    1180.6301   -17281.113    1.3205759    1.1252403 
     300    235.60001   -497.43825    165492.15   -16122.797    1185.4467   -17308.243    1.8696659    1.1252403 
     400    240.84673   -362.55337    165492.15   -16104.362    1211.8462   -17316.208    2.1706378    1.1252403 
     500    239.68227   -546.44288    165492.15   -16082.166    1205.9871   -17288.153    2.7765853    1.1252403 
     600    239.36522   -579.23845    165492.15   -16054.276    1204.3918   -17258.668     3.170496    1.1252403 
     700    246.81293   -371.25311    165492.15   -16020.684    1241.8658    -17262.55     3.765011    1.1252403 
     800    240.63984    -477.4199    165492.15   -16023.161    1210.8052   -17233.967    4.1311991    1.1252403 
     900     233.8547   -695.46466    165492.15    -16097.76     1176.665   -17274.425    4.6345444    1.1252403 
    1000    235.51855   -460.89896    165492.15   -16100.069    1185.0368   -17285.106    4.9224034    1.1252403 
    1100    237.59923   -706.73089    165492.15   -16066.095     1195.506   -17261.601    5.4149689    1.1252403 
    1200    246.93244   -513.52549    165492.15   -16029.509    1242.4671   -17271.976    5.9740753    1.1252403 
    1300    245.64632   -468.90159    165492.15   -16026.889    1235.9959   -17262.885    6.5479925    1.1252403 
    1400    241.58796   -561.49494    165492.15   -16081.036    1215.5757   -17296.611    6.9717705    1.1252403 
    1500    234.88398   -417.57254    165492.15   -16124.506     1181.844    -17306.35    7.2920522    1.1252403 
    1600    236.71274   -473.62656    165492.15   -16096.447    1191.0456   -17287.492    7.6332942    1.1252403 
    1700     245.6832   -642.63809    165492.15   -16057.768    1236.1814   -17293.949    7.9335349    1.1252403 
    1800    244.03847   -509.40758    165492.15   -16036.856    1227.9058   -17264.761    8.3353301    1.1252403 
    1900    245.22064   -405.65716    165492.15   -16046.738     1233.854   -17280.592    8.7651341    1.1252403 
    2000    240.43098   -559.05778    165492.15    -16117.74    1209.7543   -17327.494    9.2808428    1.1252403 
    2100    241.78141   -521.88857    165492.15   -16134.717    1216.5491   -17351.266    9.6418857    1.1252403 
    2200    236.40275   -383.88931    165492.15   -16106.914    1189.4858     -17296.4     10.00643    1.1252403 
    2300     239.0665   -572.86319    165492.15   -16062.494    1202.8888   -17265.382    10.372541    1.1252403 
    2400    249.26569   -543.76431    165492.15   -16039.371    1254.2071   -17293.578    10.460093    1.1252403 
    2500    246.59452   -495.14124    165492.15   -16056.994    1240.7668   -17297.761    10.581252    1.1252403 
    2600    235.95774   -441.70351    165492.15   -16110.803    1187.2467    -17298.05    10.807755    1.1252403 
    2700    235.80742   -516.56264    165492.15   -16112.057    1186.4904   -17298.547    11.061605    1.1252403 
    2800    240.21968   -427.42939    165492.15   -16083.367    1208.6911   -17292.058    11.273464    1.1252403 
    2900     244.7414    -435.1087    165492.15   -16055.364    1231.4426   -17286.806    11.619188    1.1252403 
    3000    241.56378    -491.8983    165492.15   -16068.492    1215.4541   -17283.946    11.963351    1.1252403 
    3100    238.43871   -446.81653    165492.15   -16131.036      1199.73   -17330.766    12.396347    1.1252403 
    3200    244.08092   -360.55597    165492.15   -16137.112    1228.1194   -17365.231    12.626883    1.1252403 
    3300    234.26395   -546.30533    165492.15   -16115.466    1178.7242    -17294.19    13.009259    1.1252403 
    3400    244.08689   -357.32968    165492.15   -16077.251    1228.1494   -17305.401    13.466358    1.1252403 
    3500    240.10297   -489.52347    165492.15   -16064.461    1208.1039   -17272.565    13.873607    1.1252403 
    3600    231.92671   -603.89278    165492.15   -16081.772    1166.9642   -17248.736     14.27647    1.1252403 
    3700    232.71727   -622.55996    165492.15   -16135.981    1170.9419   -17306.923    14.691611    1.1252403 
    3800    240.62372   -445.73248    165492.15   -16152.164    1210.7241   -17362.888     15.08499    1.1252403 
    3900    239.23962   -595.85823    165492.15   -16129.487    1203.7598   -17333.247    15.168631    1.1252403 
    4000    236.21459   -501.82306    165492.15    -16093.89    1188.5391   -17282.429     15.68162    1.1252403 
    4100      247.083   -247.89644    165492.15   -16062.176    1243.2246   -17305.401    16.036182    1.1252403 
    4200    244.53389   -484.50223    165492.15   -16072.214    1230.3985   -17302.612    16.597336    1.1252403 
    4300    235.89722   -565.08979    165492.15   -16093.873    1186.9422   -17280.815    16.824252    1.1252403 
    4400    235.92701   -748.82663    165492.15   -16157.341    1187.0921   -17344.433    16.989313    1.1252403 
    4500    227.56904   -402.03095    165492.15   -16151.557    1145.0381   -17296.595    17.416551    1.1252403 
    4600    241.07101    -551.0252    165492.15   -16102.952    1212.9747   -17315.926    17.604082    1.1252403 
    4700    245.57895   -435.14901    165492.15   -16071.899    1235.6569   -17307.556    17.919901    1.1252403 
    4800    241.18764   -409.43603    165492.15   -16058.538    1213.5615     -17272.1    18.141749    1.1252403 
    4900    240.30332   -529.23691    165492.15   -16045.944    1209.1119   -17255.056    18.794575    1.1252403 
    5000     246.7463   -428.93446    165492.15   -16004.662    1241.5305   -17246.193     19.32785    1.1252403 
    5100    246.35932   -618.71574    165492.15   -15964.165    1239.5833   -17203.749    19.908046    1.1252403 
    5200    246.44231   -718.60709    165492.15   -15995.382    1240.0009   -17235.383    20.350699    1.1252403 
    5300    246.87666   -444.68515    165492.15   -16044.697    1242.1864   -17286.883    20.832965    1.1252403 
    5400    240.89041   -323.06146    165492.15   -16070.367     1212.066   -17282.433    21.196906    1.1252403 
    5500    242.70148   -440.31326    165492.15   -16096.494    1221.1785   -17317.672    21.329698    1.1252403 
    5600     239.4164   -508.83736    165492.15   -16129.913    1204.6493   -17334.563    21.355377    1.1252403 
    5700    241.80436   -340.34042    165492.15    -16139.05    1216.6646   -17355.714    21.397507    1.1252403 
    5800    242.31201   -452.19019    165492.15   -16105.884    1219.2189   -17325.103    21.748175    1.1252403 
    5900    245.19954   -313.89506    165492.15   -16059.587    1233.7478   -17293.335    21.790794    1.1252403 
    6000    244.17899   -524.31453    165492.15   -16087.732    1228.6128   -17316.345    22.077073    1.1252403 
    6100    241.68184   -536.31758    165492.15   -16129.777    1216.0482   -17345.825    22.317919    1.1252403 
    6200    234.76774   -524.05088    165492.15    -16148.16    1181.2591   -17329.419     22.66459    1.1252403 
    6300    242.33114   -343.29333    165492.15   -16139.665    1219.3151    -17358.98    22.853023    1.1252403 
    6400    237.06875   -435.76393    165492.15   -16119.068    1192.8369   -17311.905    23.368246    1.1252403 
    6500     236.0906   -596.19606    165492.15   -16069.288    1187.9152   -17257.203    23.958318    1.1252403 
    6600    237.25191   -399.78083    165492.15   -16031.878    1193.7584   -17225.636    24.532571    1.1252403 
    6700    243.22411   -506.07559    165492.15   -16045.873    1223.8082   -17269.681     24.88381    1.1252403 
    6800    234.21976   -642.18953    165492.15   -16073.467    1178.5019   -17251.969    24.941136    1.1252403 
    6900    243.33934   -577.00678    165492.15   -16080.729     1224.388   -17305.117    25.079472    1.1252403 
    7000    238.54678   -542.53066    165492.15   -16076.293    1200.2737   -17276.567    25.285708    1.1252403 
    7100    235.65839   -602.84506    165492.15   -16076.986    1185.7405   -17262.726    25.463219    1.1252403 
    7200    241.79001   -532.54422    165492.15   -16070.294    1216.5924   -17286.887    25.524761    1.1252403 
    7300    237.70172   -285.71435    165492.15   -16051.835    1196.0217   -17247.857    25.543773    1.1252403 
    7400     239.5232   -561.80525    165492.15   -16037.697    1205.1867   -17242.884    25.669221    1.1252403 
    7500    249.12673   -438.17084    165492.15   -16030.604    1253.5079   -17284.112    26.275763    1.1252403 
    7600    236.49519   -398.75625    165492.15   -16060.187     1189.951   -17250.138    26.745762    1.1252403 
    7700    232.86625    -411.8573    165492.15   -16095.581    1171.6916   -17267.272    27.217355    1.1252403 
    7800    240.64636   -406.53986    165492.15   -16085.217     1210.838   -17296.055     27.90066    1.1252403 
    7900    241.75931   -398.55431    165492.15   -16021.831    1216.4379   -17238.269     28.49309    1.1252403 
    8000    249.41243   -543.31734    165492.15   -16005.737    1254.9454   -17260.682    29.170095    1.1252403 
    8100    251.67635   -450.88826    165492.15   -16032.473    1266.3366    -17298.81       29.492    1.1252403 
    8200    238.78169   -352.93994    165492.15   -16064.644    1201.4557     -17266.1    29.768128    1.1252403 
    8300    241.22306   -546.66548    165492.15   -16076.034    1213.7397   -17289.774    30.139637    1.1252403 
    8400    241.47993   -566.76757    165492.15   -16060.363    1215.0322   -17275.395    30.580993    1.1252403 
    8500    243.16957   -273.37168    165492.15   -15988.638    1223.5338   -17212.172    31.052354    1.1252403 
    8600    245.85232   -536.43286    165492.15    -15969.32    1237.0324   -17206.353    31.224594    1.1252403 
    8700    245.53517   -704.65491    165492.15   -15993.504    1235.4366    -17228.94    31.646598    1.1252403 
    8800    245.37823   -364.43577    165492.15    -16030.58    1234.6469   -17265.227      31.9475    1.1252403 
    8900    233.06802   -327.76812    165492.15   -16053.307    1172.7068   -17226.014    32.314561    1.1252403 
    9000    234.97039   -493.02814    165492.15   -16054.214    1182.2787   -17236.493     32.99013    1.1252403 
    9100    240.50989   -468.74915    165492.15   -16022.944    1210.1514   -17233.095    33.765214    1.1252403 
    9200    251.32647   -439.18835    165492.15   -15969.507    1264.5761   -17234.083    34.130055    1.1252403 
    9300    246.38763   -509.39675    165492.15   -15985.154    1239.7258    -17224.88    34.554979    1.1252403 
    9400      239.335   -492.03556    165492.15   -16049.647    1204.2397   -17253.886    34.989005    1.1252403 
    9500    241.04562   -528.34279    165492.15   -16067.401    1212.8469   -17280.248    35.327765    1.1252403 
    9600    237.96946   -460.25601    165492.15   -16073.539    1197.3689   -17270.908    35.442964    1.1252403 
    9700    237.38559   -474.08988    165492.15   -16083.922    1194.4311   -17278.353    35.706186    1.1252403 
    9800    236.27279   -389.79207    165492.15   -16077.395    1188.8319   -17266.226     36.16006    1.1252403 
    9900    239.77265   -417.06088    165492.15   -16032.705    1206.4419   -17239.147    36.736079    1.1252403 
   10000    242.49188   -465.37464    165492.15   -16006.137    1220.1239   -17226.261    37.315424    1.1252403 
Loop time of 6.0085 on 128 procs for 10000 steps with 8493 atoms

Performance: 718.982 ns/day, 0.033 hours/ns, 1664.310 timesteps/s
96.7% CPU use with 128 MPI tasks x no OpenMP threads

MPI task timing breakdown:
Section |  min time  |  avg time  |  max time  |%varavg| %total
---------------------------------------------------------------
Pair    | 0.00076199 | 1.8286     | 4.5682     | 116.4 | 30.43
Neigh   | 0.0043714  | 0.13236    | 0.31173    |  27.8 |  2.20
Comm    | 0.19757    | 1.7033     | 3.9054     |  80.6 | 28.35
Output  | 0.15562    | 0.15569    | 0.15655    |   0.0 |  2.59
Modify  | 0.1756     | 2.1062     | 5.5661     | 133.6 | 35.05
Other   |            | 0.08227    |            |       |  1.37

Nlocal:        66.3516 ave         141 max           0 min
Histogram: 32 5 14 13 0 0 2 31 22 9
Nghost:        698.375 ave         922 max         491 min
Histogram: 16 4 18 13 19 10 12 20 1 15
Neighs:         0.00000 ave           0 max           0 min
Histogram: 128 0 0 0 0 0 0 0 0 0
FullNghs:      6954.86 ave       16740 max           0 min
Histogram: 44 20 0 0 0 0 14 29 12 9

Total # of neighbors = 890222
Ave neighs/atom = 104.81832
Neighbor list builds = 568
Dangerous builds = 0
write_data 	    ${DIR}/data.${NAME}_eq
write_data 	    run_6/data.${NAME}_eq
write_data 	    run_6/data.ibeam_cooling_6_eq
System init for write_data ...

undump              1
unfix 		3



################################################
#######         Run Simulation         #########
################################################

reset_timestep      0
timestep	    10.0
log                 ${DIR}/log.run_${NAME}
log                 run_6/log.run_${NAME}
log                 run_6/log.run_ibeam_cooling_6
