
# Set production fixes - Nose/Hoover
#
fix                 4 water temp/csvr ${START_TEMP} ${END_TEMP} 500.0 928347
fix                 4 water temp/csvr 240 ${END_TEMP} 500.0 928347
fix                 4 water temp/csvr 240 227 500.0 928347


## divide "droplet" into core and surface
#region		core_reg cylinder z 135 135 44.6 20 INF units box
#region		surface_reg cylinder z 135 135 44.6 20 INF units box side out
#group		core dynamic all region core_reg
#group		surface dynamic all region surface_reg

## compute pressure core
#compute        peratom_core core stress/atom NULL
#compute        p_core core reduce sum c_peratom_core[1] c_peratom_core[2] c_peratom_core[3]
#variable       press_core equal -(c_p_core[1]+c_p_core[2]+c_p_core[3])/(3*1249982.5)


## compute pressure surface
#compute        peratom_surf surface stress/atom NULL
#compute        p_surf surface reduce sum c_peratom_surf[1] c_peratom_surf[2] #c_peratom_surf[3]
#variable       press_surf equal -(c_p_surf[1]+c_p_surf[2]+c_p_surf[3])/(3*42395)

## compute total pressure of drop
compute        peratom water stress/atom NULL
compute        p water reduce sum c_peratom[1] c_peratom[2] c_peratom[3]
variable       press equal -(c_p[1]+c_p[2]+c_p[3])/(3*58301)


# compute order parameter
compute        3 all orientorder/atom nnn NULL cutoff 3.5

# compute center of mass of bridge
compute 	4 water com

# Run simulation
thermo_style        custom step c_2 press vol etotal ke pe v_press c_1[4] c_4[*]
thermo              200
dump		     1 water custom 400 ${DIR}/prod.${NAME}.dump id type x y z vx vy vz c_3[*] c_peratom[*]
dump		     1 water custom 400 run_12/prod.${NAME}.dump id type x y z vx vy vz c_3[*] c_peratom[*]
dump		     1 water custom 400 run_12/prod.ibeam_cooling_12.dump id type x y z vx vy vz c_3[*] c_peratom[*]
run                 ${STEPS}
run                 5200000
Neighbor list info ...
  update every 1 steps, delay 0 steps, check yes
  max neighbors/atom: 2000, page size: 100000
  master list distance cutoff = 6.67472
  ghost atom cutoff = 6.67472
  binsize = 3.33736, bins = 57 9 12
  2 neighbor lists, perpetual/occasional/extra = 1 1 0
  (1) pair sw, perpetual
      attributes: full, newton on
      pair build: full/bin/atomonly
      stencil: full/bin/3d
      bin: standard
  (2) compute orientorder/atom, occasional, copy from (1)
      attributes: full, newton on
      pair build: copy
      stencil: none
      bin: none
Per MPI rank memory allocation (min/avg/max) = 0.8513 | 6.037 | 7.259 Mbytes
Step c_2 Press Volume TotEng KinEng PotEng v_press c_1[4] c_4[1] c_4[2] c_4[3] 
       0    235.06866   -451.93693    204420.41   -23242.051    1706.1924   -24948.244    -1054.823    38.312839    95.093818    14.533279    27.845266 
     200    233.40798   -400.65564    204420.41   -23259.439    1694.1387   -24953.577   -882.64821    40.121465    95.093005    14.531137    27.854416 
     400    237.33973   -410.56962    204420.41   -23220.722    1722.6764   -24943.399   -946.82997    41.769164    95.091333    14.528456    27.849576 
     600    247.94998   -203.94404    204420.41   -23149.269    1799.6885   -24948.957   -188.11546    43.834926    95.091348    14.526278    27.845674 
     800    240.95746   -270.00352    204420.41   -23185.693    1748.9349   -24934.628   -372.71873    46.494719    95.091846    14.525585    27.840075 
    1000    240.62762   -460.51337    204420.41     -23229.1    1746.5409   -24975.641   -1091.4296    47.520849    95.091859    14.523691     27.85831 
    1200    239.34348   -382.66603    204420.41   -23244.821    1737.2202   -24982.041   -795.18482     48.37066    95.093066    14.521527    27.848226 
    1400    242.56747   -410.70106    204420.41    -23244.03    1760.6208   -25004.651   -885.48623    50.765871    95.094388    14.520711    27.863294 
    1600    240.00543    -201.0412    204420.41   -23244.323    1742.0248   -24986.348     -161.157    52.080126    95.095751     14.52286    27.866861 
    1800    235.31738   -347.49531    204420.41   -23232.819    1707.9977   -24940.816   -690.74895    54.256536    95.095562    14.523244    27.861692 
    2000    242.55978   -466.06548    204420.41   -23165.017     1760.565   -24925.582   -1131.5652    56.506651    95.094505    14.521492    27.873485 
    2200     235.0287   -335.55169    204420.41   -23262.261    1705.9023   -24968.164   -666.44532    57.325904    95.094407    14.521371    27.879896 
    2400     244.8368   -303.12525    204420.41    -23214.11    1777.0922   -24991.202   -597.57618     57.71485    95.093425    14.520414    27.899476 
    2600     232.9351   -541.87122    204420.41    -23244.07    1690.7064   -24934.776   -1361.2651    59.088874    95.094164    14.520527    27.887686 
    2800    242.22638   -256.71646    204420.41   -23141.678     1758.145   -24899.823   -376.53126    61.984089    95.093455    14.521282    27.890333 
    3000    239.13634   -408.94015    204420.41   -23141.767    1735.7167   -24877.484   -875.71347    63.796031    95.092845    14.522472    27.890301 
    3200    244.76838    -297.0025    204420.41    -23216.32    1776.5956   -24992.916   -483.13356    64.999087     95.09286    14.520558    27.886385 
    3400    240.89696   -327.55329    204420.41   -23219.188    1748.4958   -24967.684   -621.33483    66.000005    95.094618    14.519675    27.899505 
    3600    248.45917   -462.52566    204420.41    -23218.62    1803.3844   -25022.004   -1085.4187     65.81677    95.094377    14.518465    27.891334 
    3800    242.70569   -246.74185    204420.41    -23178.74    1761.6241   -24940.364   -383.09085    67.951238    95.095292    14.518649    27.867918 
    4000     238.3536   -374.10655    204420.41   -23228.245    1730.0353    -24958.28   -783.61231    69.915856    95.094956    14.517157    27.828296 
    4200    238.13472   -379.67932    204420.41   -23175.064    1728.4467   -24903.511    -810.4652    71.063455    95.094233    14.516769    27.823853 
    4400    243.44194   -259.18803    204420.41   -23214.899     1766.968   -24981.867   -392.75142    71.141636    95.094718    14.517572    27.832411 
    4600    234.41489   -203.52328    204420.41   -23260.863    1701.4472   -24962.311   -208.12914    73.679965    95.094329    14.515975     27.85235 
    4800    242.19638   -316.79815    204420.41   -23128.343    1757.9273    -24886.27   -590.01461    74.722806     95.09411    14.517575    27.846705 
    5000    246.77913   -192.35144    204420.41     -23203.8    1791.1902    -24994.99   -181.26205    76.905137    95.094091    14.519969    27.822573 
    5200    238.54557    -347.5377    204420.41   -23213.699    1731.4288   -24945.128      -698.27    78.722461    95.092973    14.521463    27.821939 
    5400    235.94151   -186.13928    204420.41   -23226.946    1712.5278   -24939.473   -125.60219    80.694483    95.094048    14.522084    27.819789 
    5600    237.37029   -399.99825    204420.41   -23227.573    1722.8983   -24950.472   -874.29271    82.388958     95.09365    14.522359     27.84085 
    5800    243.39927   -134.52046    204420.41   -23208.658    1766.6583   -24975.317    82.038975    84.832777    95.093095    14.523719    27.847565 
    6000    238.31198   -328.80893    204420.41   -23259.058    1729.7333   -24988.791   -656.84275    86.674274    95.093106    14.525519    27.844509 
    6200    241.11029   -315.41515    204420.41   -23304.404    1750.0442   -25054.449   -571.66112    86.447813    95.092294    14.523612    27.829787 
    6400    242.47592   -334.91166    204420.41   -23258.631    1759.9563   -25018.587   -685.66403     88.33632     95.09409    14.521367    27.821715 
    6600    236.55402   -241.57244    204420.41   -23288.747    1716.9735   -25005.721    -333.0537    88.812634    95.095422     14.52097    27.805908 
    6800    239.33441   -424.75124    204420.41   -23250.522    1737.1543   -24987.676   -922.70877    89.745156    95.095576    14.520768    27.807183 
    7000    242.72138   -206.67633    204420.41   -23235.652    1761.7379    -24997.39   -160.62155    90.839557    95.094918    14.519687    27.797953 
    7200    231.59728   -283.31192    204420.41   -23347.296    1680.9961   -25028.293   -484.84001     92.11763    95.095757    14.519088    27.795341 
    7400    241.97773   -276.55559    204420.41   -23307.865    1756.3403   -25064.205   -421.23669     93.80854    95.094913    14.520246    27.799649 
    7600    248.12908   -230.77658    204420.41   -23210.492    1800.9885    -25011.48   -281.09561    96.149583    95.098396    14.520884    27.795058 
    7800    235.19174   -501.66193    204420.41   -23318.593    1707.0857   -25025.679   -1218.3363    96.820406     95.10011    14.518979    27.800017 
    8000    244.64225   -355.44357    204420.41   -23198.272    1775.6801   -24973.952   -716.49472    97.532953    95.101418    14.516868    27.804453 
    8200    241.60236   -281.53037    204420.41   -23239.174    1753.6158    -24992.79   -464.29571    98.053191    95.101258     14.51863    27.811879 
    8400    244.87225   -310.77999    204420.41    -23197.02    1777.3495    -24974.37   -548.88287    100.72775    95.102337    14.518479    27.807478 
    8600    237.91028   -267.55023    204420.41   -23220.271    1726.8176   -24947.088   -404.89448    101.33915    95.103457    14.518866    27.787277 
    8800    237.36887   -370.35558    204420.41   -23222.207    1722.8879   -24945.095   -761.54791    102.75613    95.103195    14.517719    27.774656 
    9000    244.66795   -323.48237    204420.41    -23208.33    1775.8666   -24984.196   -618.95309     104.1066    95.102257    14.516563    27.816779 
    9200    244.29082   -417.92972    204420.41   -23178.373    1773.1293   -24951.503   -936.29002     105.7231    95.103223    14.515858    27.830594 
    9400    243.41999   -338.64801    204420.41   -23240.535    1766.8086   -25007.344   -639.02258    106.80572     95.10242    14.515169    27.824461 
    9600    238.32789   -383.80968    204420.41   -23281.166    1729.8488   -25011.015   -787.49279    110.10698    95.103192    14.513076    27.829145 
    9800    242.97425   -411.39452    204420.41   -23195.372    1763.5733   -24958.946   -909.84282    112.14115       95.101     14.51308    27.834771 
   10000    236.95451   -493.55797    204420.41   -23253.984    1719.8804   -24973.865   -1175.1715    113.12176    95.100806    14.508987    27.829743 
   10200    250.16632   -193.47996    204420.41   -23167.591    1815.7753   -24983.366   -149.87023    114.36294    95.100393      14.5079    27.807001 
   10400    240.92865   -450.16706    204420.41   -23162.645    1748.7258    -24911.37   -1041.9997    115.29474    95.100129    14.508917    27.817967 
   10600    241.17216   -450.56201    204420.41   -23220.033    1750.4933   -24970.526   -1050.1364    116.59069    95.098338    14.510193     27.82465 
   10800    235.81826   -519.32393    204420.41   -23253.248    1711.6332   -24964.881   -1300.5904    118.30588    95.099108    14.509021    27.811021 
   11000    243.38265   -411.61648    204420.41   -23279.567    1766.5376   -25046.105   -907.44722    120.60584    95.100334    14.509773    27.800122 
   11200    240.97775   -386.41778    204420.41   -23286.324    1749.0821   -25035.406   -807.17711     125.0074    95.101786    14.509216    27.811213 
   11400    236.71149   -444.37455    204420.41   -23239.972    1718.1165   -24958.089   -1052.8662    126.84762    95.101872    14.508006    27.799489 
   11600    241.41352   -478.51346    204420.41   -23176.991    1752.2451   -24929.236   -1141.5319    128.32559     95.10035    14.507687    27.796638 
   11800    243.05644   -365.51015    204420.41   -23198.266    1764.1699   -24962.436   -776.74557    128.89268    95.101571    14.509297    27.809649 
   12000    240.95202   -196.92973    204420.41    -23180.71    1748.8954   -24929.606   -176.46315    129.24122     95.10252    14.511457    27.809433 
   12200    244.37435   -335.69896    204420.41   -23190.531    1773.7356   -24964.267   -666.86854    132.24938     95.10168    14.512884    27.827094 
   12400     240.6668   -319.10413    204420.41   -23221.991    1746.8252   -24968.816   -591.33122    134.48769     95.10173    14.513494    27.820301 
   12600    243.62004   -382.56564    204420.41   -23155.128    1768.2606   -24923.389   -842.06403    135.86719    95.101957    14.511893    27.821527 
   12800    236.35078   -281.19618    204420.41   -23200.766    1715.4983   -24916.264   -427.93198    136.63019    95.100367    14.513894    27.790616 
   13000    232.16604   -273.52163    204420.41   -23214.798    1685.1244   -24899.922   -436.43872    138.19962    95.101019    14.513737    27.794137 
   13200     241.3321   -333.55624    204420.41    -23243.34    1751.6541   -24994.994   -617.15536    139.67922     95.10136    14.512139    27.806094 
   13400    235.05902   -450.26162    204420.41   -23316.838    1706.1224    -25022.96   -1030.4852    139.53039    95.101111    14.512903    27.797558 
   13600    237.46974   -325.47693    204420.41   -23275.223    1723.6201   -24998.843   -649.00023    139.68587    95.100206     14.51295    27.784852 
   13800    243.96057   -295.46303    204420.41   -23220.914    1770.7323   -24991.647   -512.24378      142.161    95.099305    14.509965    27.771742 
   14000    247.78075   -466.84934    204420.41   -23099.036    1798.4602   -24897.496   -1099.6539    144.20448    95.097596    14.507396    27.776733 
   14200    240.67443   -371.77136    204420.41    -23227.44    1746.8806    -24974.32   -770.61469    144.92397    95.097162    14.503295     27.77332 
   14400    231.00865   -275.71669    204420.41   -23301.143    1676.7237   -24977.867   -460.63049    147.05758    95.094242    14.500643    27.768159 
   14600    247.22805   -353.98811    204420.41   -23266.978    1794.4485   -25061.427   -735.55573    149.18304    95.093183    14.499652    27.769886 
   14800    244.21681   -345.08879    204420.41   -23238.059    1772.5922   -25010.651   -656.02019    151.91737    95.093986    14.499252    27.762781 
   15000    237.09354     -374.757    204420.41   -23253.374    1720.8895   -24974.264   -767.88398    152.43017      95.0943    14.501038    27.750795 
   15200    235.72633   -357.36024    204420.41   -23245.921    1710.9659   -24956.887   -721.64849    154.02937    95.094093    14.503954    27.747823 
   15400    235.94716    -333.8937    204420.41   -23319.861    1712.5688    -25032.43   -618.25166    156.03493    95.090799    14.505552    27.760572 
   15600    249.65942   -258.26659    204420.41   -23137.711    1812.0961   -24949.807   -369.81875    159.01847     95.09003    14.506448     27.76015 
   15800    242.80336   -402.82107    204420.41   -23165.385    1762.3329   -24927.718   -888.77967    163.07227    95.089088    14.506105    27.795629 
   16000    240.01065   -243.02619    204420.41    -23210.92    1742.0627   -24952.983   -314.20612    164.57906     95.08799    14.504154    27.803954 
   16200    241.99018   -476.24464    204420.41    -23182.22    1756.4306    -24938.65   -1165.6744    166.70479    95.087617    14.504497    27.805316 
   16400    242.30091   -238.92266    204420.41   -23226.516     1758.686   -24985.202   -313.47819    166.85399    95.087345    14.507375    27.794156 
   16600    242.72176   -441.12276    204420.41   -23106.503    1761.7407   -24868.244   -1052.8572    166.39224    95.086372    14.505301    27.787678 
   16800    242.05965   -244.24483    204420.41   -23166.048    1756.9349   -24922.983   -336.24931    168.62887    95.086898    14.507259    27.761552 
   17000    230.76626   -271.25484    204420.41   -23212.207    1674.9644   -24887.171     -418.863    170.61145    95.088262    14.506845    27.738994 
   17200    237.98701   -305.85815    204420.41   -23200.265    1727.3745    -24927.64   -574.12396    172.49024    95.089199    14.505893    27.757386 
   17400    235.71559   -325.44204    204420.41   -23292.186     1710.888   -25003.074   -590.58919    174.15374    95.090491    14.507642    27.764309 
   17600    242.85022   -429.26323    204420.41   -23222.552    1762.6731   -24985.225   -976.53311    177.85534    95.091907    14.507308    27.785334 
   17800    242.32976   -300.75477    204420.41   -23221.496    1758.8954   -24980.392   -526.18451    178.70534    95.091739    14.506983    27.805325 
   18000    241.31568   -204.93849    204420.41     -23181.5    1751.5349   -24933.035   -171.27035    179.94871    95.092046    14.509003     27.81314 
   18200     237.4147   -479.33166    204420.41   -23267.949    1723.2206   -24991.169   -1136.3728    183.67815    95.092913    14.509533    27.815644 
   18400    244.13637    -376.8226    204420.41    -23224.61    1772.0083   -24996.618   -827.06365    183.46519    95.095586    14.510594    27.810506 
   18600    239.51865   -357.57573    204420.41   -23221.279    1738.4916   -24959.771   -735.06043    185.17124    95.096838    14.513962     27.79732 
   18800     236.7945   -149.75517    204420.41   -23270.159     1718.719   -24988.878    3.9688405     186.8886    95.095878    14.516837     27.78482 
   19000     243.9021   -259.51755    204420.41   -23206.545    1770.3079   -24976.853    -374.4467    186.69947    95.095994    14.518205    27.797671 
   19200    242.76417    -398.6174    204420.41   -23223.504    1762.0485   -24985.553   -904.39842    188.82131     95.09527    14.518126    27.810981 
   19400    246.18067   -169.74953    204420.41    -23154.74    1786.8464   -24941.587   -100.90021    190.05588    95.095112    14.517118    27.836786 
   19600     239.7599   -410.78092    204420.41   -23194.767    1740.2427    -24935.01   -907.22833    192.30277    95.094134    14.514729    27.843697 
   19800    242.29087   -356.95389    204420.41   -23194.561    1758.6131   -24953.174   -774.16996    194.56378    95.094532    14.515556    27.827635 
   20000    235.23733   -141.52573    204420.41   -23190.557    1707.4166   -24897.973    12.142174    197.73288    95.095551    14.516426    27.835183 
   20200    240.40894   -204.72947    204420.41   -23286.206    1744.9536    -25031.16    -204.0925    200.26988    95.095922    14.513596    27.842509 
   20400    245.97878   -239.22075    204420.41   -23193.187     1785.381   -24978.568    -315.0544    201.67489    95.096025    14.511442    27.863615 
   20600    237.56414   -408.87319    204420.41   -23297.919    1724.3053   -25022.224   -888.42512    202.54194    95.094736    14.509785    27.864444 
   20800    240.15483   -381.14566    204420.41    -23184.71    1743.1092   -24927.819   -795.18545    202.65283    95.095494     14.50912    27.868163 
   21000      239.749    -441.1653    204420.41   -23160.202    1740.1635   -24900.366   -1022.8047    203.42957    95.096062     14.50941     27.86534 
   21200    239.82653   -413.95654    204420.41   -23157.659    1740.7263   -24898.385   -906.20642    203.03937    95.098593    14.508653     27.84702 
   21400    245.72653   -336.59331    204420.41   -23168.812    1783.5501   -24952.362   -646.20633    202.17707    95.098689    14.510341    27.828354 
   21600    244.70336   -146.31701    204420.41   -23094.726    1776.1236    -24870.85    1.9382857    203.42341    95.099286    14.509761    27.844969 
   21800    238.41608   -332.73247    204420.41   -23203.591    1730.4889    -24934.08   -655.65749    207.22724    95.098693    14.508277    27.827489 
   22000    231.42535   -441.44175    204420.41   -23212.841    1679.7483   -24892.589   -1016.3717    208.89976    95.097172    14.507166    27.819431 
   22200    234.07247   -544.03977    204420.41   -23308.844    1698.9617   -25007.805   -1392.6289    211.92388    95.097315    14.503643    27.816447 
   22400    238.68435   -416.84852    204420.41   -23167.493     1732.436   -24899.929   -932.08186    215.03237    95.097514    14.499721    27.829784 
   22600    240.00833   -217.81514    204420.41   -23215.763    1742.0459   -24957.808   -261.31209    214.77815    95.098745    14.496505    27.829581 
   22800    239.35164   -397.17188    204420.41   -23173.111    1737.2794   -24910.391   -864.55317    216.21181    95.098442    14.496084    27.855503 
   23000    239.90712   -189.41133    204420.41   -23262.739    1741.3112    -25004.05   -158.15182    217.62049    95.098896    14.495116    27.886114 
   23200    235.76065   -370.00627    204420.41   -23182.376     1711.215   -24893.591   -763.84675    220.78787    95.099334    14.497166    27.868365 
   23400    242.61291   -473.12418    204420.41    -23192.49    1760.9506    -24953.44   -1155.1279     221.8185      95.1007    14.496512    27.852733 
   23600    250.33563   -450.01999    204420.41   -23146.356    1817.0042   -24963.361   -1088.9717    221.22444    95.101173    14.493326    27.850255 
   23800    250.87876   -275.78318    204420.41   -23150.995    1820.9464   -24971.941   -435.92644    222.36963    95.100425    14.492968    27.823963 
   24000    237.67844   -458.80255    204420.41   -23253.254    1725.1349   -24978.388   -1036.5033    225.65027    95.100772    14.493822    27.851579 
   24200    236.36189   -291.19519    204420.41   -23286.058     1715.579   -25001.637   -489.16711    224.38065    95.101772    14.491029    27.859213 
   24400    239.34165   -473.66909    204420.41   -23289.524    1737.2069   -25026.731   -1123.1276    223.16893    95.100876    14.487073    27.843636 
   24600     231.3453    -228.4958    204420.41   -23291.926    1679.1672   -24971.093   -326.56729    224.37235    95.099807    14.489005    27.855012 
   24800    239.65146   -228.22346    204420.41   -23241.258    1739.4556   -24980.714   -262.54155    224.75248    95.100577    14.486805     27.84697 
   25000    236.73819   -336.72286    204420.41    -23219.01    1718.3103   -24937.321   -707.37992    226.90224    95.098734    14.485668     27.82853 
   25200     230.0496   -457.50658    204420.41   -23350.914    1669.7627   -25020.676   -1087.8981    230.64085    95.097318    14.486196    27.805246 
   25400    236.53108   -450.87743    204420.41   -23228.848     1716.807   -24945.655    -1043.479    230.57549    95.096859    14.486722    27.806175 
   25600    245.02638   -488.00201    204420.41   -23092.852    1778.4682    -24871.32   -1207.1572    231.33906    95.095681    14.488166    27.819171 
   25800    241.37186   -355.28679    204420.41   -23128.492    1751.9427   -24880.434   -696.62808    232.23025    95.096373    14.488736    27.835925 
   26000     237.7554   -191.72971    204420.41   -23154.253    1725.6935   -24879.947    -165.7974    233.37198    95.096036    14.487488    27.849419 
   26200    241.24284   -237.08916    204420.41   -23153.127    1751.0062   -24904.134   -303.79931    234.69682    95.096072     14.48774    27.850201 
   26400    242.27187   -458.61972    204420.41   -23202.902    1758.4753   -24961.377   -1088.3469    236.98323    95.094497    14.486185    27.865899 
   26600    244.90061   -300.36333    204420.41   -23142.683    1777.5554   -24920.238    -521.7372    239.46739    95.093713    14.482707    27.873823 
   26800    243.61939   -411.94929    204420.41   -23175.712    1768.2559   -24943.968   -932.44333    242.36623    95.094856    14.483308    27.887939 
   27000    244.18209   -332.52618    204420.41   -23162.938    1772.3402   -24935.278   -662.53626    243.77165    95.094109    14.481151    27.894358 
   27200    243.11584   -242.45675    204420.41   -23201.713     1764.601   -24966.314   -311.27079    245.32336    95.091073    14.478107    27.902508 
   27400    238.87328   -246.42475    204420.41   -23139.839    1733.8074   -24873.647   -364.98892    248.03121    95.091308     14.47968    27.886005 
   27600    232.36855   -270.61422    204420.41   -23238.834    1686.5943   -24925.429   -403.09559    248.29808    95.093049    14.478004    27.896897 
   27800    235.82339   -338.08418    204420.41   -23136.369    1711.6704   -24848.039   -681.65774    248.78915    95.093544    14.477735    27.892367 
   28000    234.68212   -396.30161    204420.41   -23225.036    1703.3868   -24928.423   -876.74421    251.13899    95.092531    14.477804    27.894617 
   28200     243.3899   -268.08438    204420.41   -23188.037    1766.5902   -24954.627   -418.93077    253.52726    95.092726    14.476217     27.90048 
   28400    241.16662   -316.97968    204420.41   -23195.609     1750.453   -24946.062   -593.70016    254.48964    95.093522      14.4761    27.893838 
   28600    240.57579   -312.71214    204420.41   -23215.665    1746.1646    -24961.83   -588.22145    258.04919    95.093549    14.477701    27.883353 
   28800    238.30293   -285.84016    204420.41   -23217.097    1729.6676   -24946.764   -451.57602    259.53888    95.093237    14.476248     27.89309 
   29000     245.2299   -403.12699    204420.41    -23205.02    1779.9454   -24984.965   -888.73457    260.53248    95.093523    14.474201    27.913099 
   29200    243.87648   -325.18729    204420.41   -23150.555    1770.1219   -24920.677   -608.65345    261.74506    95.093824     14.47319    27.917161 
   29400    243.33404   -181.31665    204420.41   -23193.344    1766.1848   -24959.529   -99.523953    264.42281    95.092835    14.472166    27.920865 
   29600    241.50496   -337.53452    204420.41   -23201.433    1752.9088   -24954.342   -612.18197     265.0182    95.092029    14.474266    27.907968 
   29800    243.86086   -194.34746    204420.41   -23291.176    1770.0085   -25061.184   -175.11201    264.89273    95.091976    14.476325    27.901285 
   30000    233.79269   -473.18065    204420.41   -23386.586    1696.9311   -25083.517   -1131.2258    266.86669    95.093183    14.475072    27.870449 
   30200    239.77449   -380.28927    204420.41   -23266.415    1740.3486   -25006.764   -815.32994    269.54976    95.095216    14.475142    27.875633 
   30400    236.69946   -427.64432    204420.41   -23230.395    1718.0292   -24948.424   -950.93156    271.50607    95.097939    14.478571    27.872801 
   30600    231.81529   -32.921607    204420.41    -23252.45    1682.5785   -24935.028     398.3615    272.72681    95.098314    14.478164    27.864678 
   30800    234.50606   -292.39479    204420.41   -23205.327    1702.1089   -24907.435   -512.21888    274.83133    95.097738    14.479708     27.86041 
   31000    237.80907   -532.29625    204420.41     -23177.4     1726.083   -24903.483   -1330.9569    276.60641    95.093719    14.483592     27.86619 
   31200    242.52457   -291.12097    204420.41   -23166.723    1760.3094   -24927.032   -529.25829    276.29744    95.093943    14.487326    27.860621 
   31400    243.24885   -349.00842    204420.41   -23166.485    1765.5664   -24932.051   -710.36853    277.75089    95.093981    14.486583    27.855126 
   31600    234.72501   -345.62281    204420.41   -23211.169    1703.6981   -24914.867   -692.55576    281.12486    95.092793    14.486021     27.83031 
   31800    247.20732   -326.81764    204420.41   -23148.616    1794.2981   -24942.914    -613.2502    283.01415    95.092914    14.483579    27.830592 
   32000     242.2643   -352.92814    204420.41    -23217.84    1758.4203    -24976.26   -757.28091    286.74472    95.093664    14.482375    27.822142 
   32200    238.15829   -436.99003    204420.41   -23253.715    1728.6177   -24982.333   -1057.3201    288.38439     95.09312    14.483052    27.805321 
   32400    235.53623   -338.16628    204420.41   -23267.527    1709.5861   -24977.113   -717.14685    290.95006    95.093264    14.482198    27.788752 
   32600    242.35655    -218.8146    204420.41   -23197.942    1759.0898   -24957.032   -233.19774    293.59091     95.09306    14.483343    27.783483 
   32800    241.68474   -432.42457    204420.41   -23169.082    1754.2137   -24923.295   -999.21961    294.38038    95.092743    14.482261    27.772413 
   33000    244.57651   -199.25506    204420.41   -23154.972    1775.2029   -24930.175   -200.26574    296.60271    95.092921    14.481622    27.765348 
   33200    241.32965   -417.21438    204420.41   -23209.269    1751.6364   -24960.905   -902.29004    299.10309    95.091915    14.482098    27.758623 
   33400     238.4428   -63.009486    204420.41   -23242.373    1730.6828   -24973.056      314.164    298.44163    95.091942    14.480795    27.733324 
   33600    235.24304   -275.23217    204420.41   -23274.877    1707.4581   -24982.335   -460.09424    299.84026    95.090896    14.479427    27.705852 
   33800    245.85434   -288.49161    204420.41   -23134.313    1784.4778   -24918.791   -498.02079    300.52918    95.091036    14.478374    27.711676 
   34000    237.64213   -479.60319    204420.41   -23270.856    1724.8713   -24995.728   -1182.1013    302.25861    95.090975    14.477096    27.741129 
   34200    242.00831   -332.97659    204420.41   -23263.557    1756.5623   -25020.119   -661.53908    303.48481    95.090203    14.478627     27.73051 
   34400    237.53065   -345.22708    204420.41   -23324.762    1724.0622   -25048.824    -704.5428    304.03292    95.092021    14.478381    27.725067 
   34600    240.53528   -372.63232    204420.41   -23196.246    1745.8706   -24942.116   -759.07644    307.01684    95.091533    14.477003    27.729879 
   34800    242.90075   -368.95953    204420.41   -23289.274    1763.0399   -25052.314   -810.50005    308.14916    95.091275    14.478693    27.718134 
   35000    235.76471   -141.39501    204420.41   -23320.574    1711.2445   -25031.819    30.242751    310.15509    95.088923    14.478334    27.734078 
   35200     243.3774   -658.44255    204420.41   -23277.223    1766.4995   -25043.722   -1818.6176    311.44736     95.08777    14.480418    27.737963 
   35400    244.65963   -214.68337    204420.41   -23283.542    1775.8063   -25059.348   -233.48509    312.53658    95.088339    14.479928    27.752051 
   35600    236.19658   -295.40219    204420.41   -23281.959    1714.3792   -24996.339   -496.89199    311.99712    95.088662    14.479821    27.756738 
   35800    245.73738   -396.90294    204420.41   -23184.458    1783.6289   -24968.087   -871.08596    313.00271    95.089874    14.474972    27.761178 
   36000    235.25822   -235.88476    204420.41   -23322.171    1707.5683   -25029.739   -335.27707    316.49367    95.090348    14.474304    27.761679 
   36200    234.16967   -431.39125    204420.41   -23320.458    1699.6673   -25020.126   -992.81945    319.06712    95.090186    14.472497    27.752705 
   36400    244.84519   -384.71264    204420.41   -23279.956    1777.1531   -25057.109   -815.92534    323.24077    95.091114    14.471796    27.727592 
   36600    239.52357   -297.92619    204420.41    -23251.46    1738.5274   -24989.988   -579.54847    324.90608    95.087558    14.471361    27.713369 
   36800    231.32128   -335.57162    204420.41   -23355.957    1678.9929    -25034.95    -697.1252    327.55755    95.085911    14.471721    27.694928 
   37000    239.41025   -391.83562    204420.41   -23329.671    1737.7048   -25067.375   -847.00366     326.7708    95.086425    14.470332    27.715908 
   37200     234.9806   -280.48681    204420.41   -23338.417    1705.5532    -25043.97   -443.55546    326.93361    95.085945    14.466506    27.691854 
   37400    239.11731    -360.5154    204420.41   -23327.429    1735.5786   -25063.008    -722.7479    328.58159    95.085823    14.467448    27.699425 
   37600    238.17651   -341.57466    204420.41   -23340.717      1728.75   -25069.467   -685.48775    331.01295     95.08527    14.468703    27.691978 
   37800    232.39223   -416.36532    204420.41   -23362.434    1686.7661     -25049.2   -932.99042    330.78936    95.085068     14.47284     27.71042 
   38000    239.07911   -261.89336    204420.41   -23251.658    1735.3013   -24986.959   -378.50026    332.08798    95.082679    14.474617    27.705468 
   38200    232.77362   -396.10532    204420.41   -23274.551    1689.5344   -24964.086   -859.05463    334.42368    95.081334    14.476972    27.700659 
   38400    241.53041   -472.43872    204420.41    -23211.62    1753.0935   -24964.714     -1107.84    337.08099    95.079298    14.477012    27.700652 
   38600    235.05857   -331.93223    204420.41   -23272.343    1706.1192   -24978.463   -599.44491    337.70278    95.079229    14.476737    27.705641 
   38800    240.80755   -293.43152    204420.41   -23257.077    1747.8468   -25004.924   -501.02752    337.57219    95.078034    14.477493    27.685558 
   39000    244.45017   -225.30443    204420.41   -23225.198     1774.286   -24999.484   -264.86682    340.08908    95.077253     14.47905    27.685434 
   39200    238.95377   -530.44875    204420.41   -23309.592    1734.3916   -25043.984   -1321.3855    342.57337    95.076956    14.476765    27.664475 
   39400    230.89661   -360.51104    204420.41   -23255.177    1675.9105   -24931.087   -709.18458    344.54877    95.080228     14.47675    27.663751 
   39600    245.05865   -210.98726    204420.41   -23184.697    1778.7024     -24963.4   -213.97245    343.60584    95.080416    14.479334     27.65185 
   39800    236.10833   -420.23206    204420.41   -23237.544    1713.7386   -24951.282   -919.10704    348.96258    95.079436    14.483635    27.657733 
   40000     242.3033   -99.354384    204420.41   -23213.659    1758.7034   -24972.363     155.2207    347.51836    95.077983    14.485109    27.648587 
   40200    238.98661   -281.57157    204420.41   -23191.921    1734.6299   -24926.551   -471.92828     347.6309    95.078293    14.486228    27.650766 
   40400    238.24157   -484.71936    204420.41   -23244.846    1729.2222   -24974.068   -1146.2518    349.61142    95.078331    14.489642    27.667915 
   40600    241.94147   -496.55136    204420.41   -23177.064    1756.0771   -24933.141   -1235.3234    353.14409    95.077988    14.494161     27.65831 
   40800    240.87334    -307.7232    204420.41   -23281.695    1748.3244   -25030.019   -536.03117    354.38059    95.076936     14.49553    27.665972 
   41000    242.47872   -195.73023    204420.41    -23273.43    1759.9766   -25033.407   -165.82603    355.71542    95.075422    14.496847    27.675252 
   41200    240.49172    -344.0025    204420.41   -23191.231    1745.5544   -24936.786   -650.76613    354.57906    95.074456    14.497588    27.670908 
   41400    242.95985   -214.78934    204420.41   -23261.031    1763.4688     -25024.5   -209.11854    355.26503    95.074055    14.498138    27.667531 
   41600    244.83441   -377.14543    204420.41   -23222.938    1777.0749   -25000.013   -811.65403    360.33157    95.072859    14.497632     27.67168 
   41800    243.49303   -427.50889    204420.41    -23204.37    1767.3388   -24971.709   -1001.1251    362.86888    95.072384    14.496469    27.655204 
   42000    239.03486   -218.14029    204420.41   -23237.363    1734.9802   -24972.344   -264.41545     363.6786     95.07106    14.496927    27.658536 
   42200    235.41227   -401.48715    204420.41   -23279.619    1708.6864   -24988.305    -873.9066    363.73997    95.069328    14.492683    27.665343 
   42400    240.60787   -374.09486    204420.41   -23224.153    1746.3975   -24970.551   -746.43523     367.3725    95.070195    14.491244    27.661786 
   42600    238.54808   -487.44184    204420.41   -23224.479    1731.4469   -24955.926   -1173.4527    367.93097     95.07341    14.488684    27.650029 
   42800    241.97696   -292.17833    204420.41   -23193.864    1756.3347   -24950.199   -481.70241    368.17693     95.07438     14.48759    27.661791 
   43000    239.47782   -431.80914    204420.41   -23223.179    1738.1953   -24961.374   -1046.9008    371.17398      95.0747    14.485666    27.656934 
   43200     242.0052   -281.34457    204420.41   -23252.022    1756.5397   -25008.562   -451.85646    375.43903    95.074212    14.487904    27.653049 
   43400    244.06481   -241.88512    204420.41    -23256.65    1771.4889   -25028.138   -319.41358    376.29389    95.073892    14.489432     27.65869 
   43600    241.73561   -278.22565    204420.41   -23255.536     1754.583   -25010.119   -444.01728    377.55643    95.074351    14.487889    27.684065 
   43800    232.08681   -333.04154    204420.41   -23307.416    1684.5493   -24991.965   -647.98119    377.28632    95.075592    14.489135    27.677925 
   44000    235.70745   -468.09069    204420.41    -23319.49    1710.8289   -25030.319    -1086.763    379.35482    95.075882    14.492136    27.676787 
   44200    232.03144   -520.27095    204420.41   -23253.593    1684.1474   -24937.741   -1269.6847    380.26633    95.076215     14.49356    27.663867 
   44400    237.88992   -120.46748    204420.41   -23253.219    1726.6698   -24979.889     108.7327    377.42177     95.07786    14.493403    27.684109 
   44600    234.09862   -388.15513    204420.41    -23254.13    1699.1516   -24953.282   -839.61211    379.94432    95.079212    14.493065    27.703277 
   44800    235.18131   -439.89804    204420.41   -23238.782      1707.01   -24945.792   -978.59869     379.7973    95.078243    14.491117    27.718371 
   45000    243.05064   -217.43858    204420.41   -23229.762    1764.1278   -24993.889    -224.0717    383.59457     95.07832    14.491466    27.714597 
   45200    234.82282   -201.76892    204420.41   -23219.874     1704.408   -24924.282     -145.424    383.46671     95.07806    14.491758    27.738553 
   45400    232.20938   -420.92966    204420.41   -23276.116     1685.439   -24961.555   -925.53324    384.39885    95.078273    14.491115    27.735575 
   45600    235.13249   -104.07083    204420.41   -23164.736    1706.6557   -24871.391    148.62458    386.04078    95.078576    14.488959    27.728185 
   45800    240.08996   -381.05919    204420.41   -23182.511    1742.6383   -24925.149   -803.58128    385.22428    95.078288    14.486505    27.713838 
   46000    243.36651   -210.01564    204420.41   -23138.625    1766.4204   -24905.045   -237.06005    382.84425    95.078573    14.486722    27.725354 
   46200    238.83734   -355.01964    204420.41   -23118.704    1733.5465    -24852.25   -725.72421    386.95659    95.078972    14.484923    27.741203 
   46400    240.90698   -400.47854    204420.41   -23204.055    1748.5685   -24952.623   -898.76836    391.52076    95.080048    14.484688    27.735136 
   46600    240.41113   -506.98875    204420.41   -23246.651    1744.9695    -24991.62   -1231.7611    393.72024    95.079582    14.482667    27.746616 
   46800    238.81683    -504.5538    204420.41   -23199.029    1733.3976   -24932.427   -1224.7098    392.45975     95.08088    14.481671    27.766092 
   47000    243.19124   -316.60121    204420.41   -23195.055    1765.1483   -24960.203   -583.66592    391.15773     95.08157    14.481073     27.76115 
   47200    233.03557   -390.38031    204420.41    -23299.04    1691.4356   -24990.476   -834.83912     391.8838    95.079591    14.480722    27.755822 
   47400    243.42901   -315.95901    204420.41   -23188.855    1766.8741   -24955.729   -548.45134    391.92172    95.078099    14.479844    27.751606 
   47600    240.28913    -289.5775    204420.41   -23186.752     1744.084   -24930.836   -470.64575    393.71372     95.07762    14.478641    27.750833 
   47800    233.91853   -302.67861    204420.41   -23206.918    1697.8444   -24904.762   -556.22394    396.89308    95.077628    14.474693    27.752439 
   48000    236.97105      -546.61    204420.41   -23228.584    1720.0005   -24948.584   -1377.2299     399.0137    95.079041    14.469285    27.751599 
   48200    240.97768   -318.34186    204420.41   -23192.351    1749.0817   -24941.432   -564.59116    401.67544    95.080985    14.467049    27.751509 
   48400    241.06399   -321.57977    204420.41   -23179.844    1749.7081   -24929.552     -594.786    401.05073    95.082067    14.462264    27.763271 
   48600    233.73053    -280.4857    204420.41   -23269.686    1696.4799   -24966.166   -447.28694     400.7175    95.085991    14.461679    27.773847 
   48800    235.74234   -371.01327    204420.41    -23224.96    1711.0821   -24936.042   -794.65686    404.72201    95.086415    14.461181    27.776019 
   49000    235.21499    -172.1996    204420.41    -23257.79    1707.2545   -24965.045    -71.87859    406.13839    95.087237    14.461744    27.777314 
   49200    237.79714   -124.75243    204420.41   -23213.958    1725.9964   -24939.955    58.803727    405.53693    95.087672    14.460422    27.789818 
   49400    234.39883    -370.7401    204420.41   -23276.318    1701.3306   -24977.648   -773.96596    406.18373    95.089486    14.460922    27.803727 
   49600     240.6612    -172.4831    204420.41   -23268.625    1746.7846    -25015.41   -58.406662    409.00644    95.090403    14.456655    27.792323 
   49800    236.51714    -428.2635    204420.41    -23254.64    1716.7059   -24971.346   -956.93669     411.1877    95.090458    14.455472     27.78331 
   50000    244.40687   -310.39985    204420.41   -23248.163    1773.9717   -25022.135   -537.64004     412.3185    95.092689    14.451565     27.76987 
   50200    244.02147   -378.70636    204420.41   -23154.834    1771.1743   -24926.008   -817.79849     415.1089    95.092992    14.451034    27.815824 
   50400    235.76766   -272.85219    204420.41   -23163.728    1711.2659   -24874.994   -419.22825    416.88701     95.09085    14.451589    27.818247 
   50600    248.28071   -269.68707    204420.41   -23076.137     1802.089   -24878.226   -420.84213    418.11201    95.090424    14.452367    27.810929 
   50800    237.73856   -469.02598    204420.41   -23252.323    1725.5713   -24977.895   -1129.5296    420.30292     95.08891    14.449178    27.807919 
   51000    238.84682   -258.05423    204420.41   -23181.356    1733.6153   -24914.971   -394.89784    423.41855    95.089201    14.447309    27.807635 
   51200    245.13799   -572.15535    204420.41   -23192.847    1779.2783   -24972.125   -1470.8758    424.39962    95.088831    14.445246    27.817536 
   51400    242.93477   -324.34598    204420.41   -23230.237    1763.2867   -24993.524   -626.79199    423.00718    95.089269    14.444639    27.809254 
   51600    234.24571   -342.92149    204420.41   -23232.572    1700.2192   -24932.791   -660.11205    425.44944    95.088871    14.439777    27.794632 
   51800    243.26775   -289.56416    204420.41   -23208.662    1765.7036   -24974.365   -526.63394    426.84481    95.089654     14.44009    27.788165 
   52000    235.64152   -305.29573    204420.41   -23280.574    1710.3504   -24990.925   -538.47631    427.43418     95.09226    14.440989    27.785603 
   52200    234.66603   -370.36358    204420.41   -23293.503      1703.27   -24996.773   -747.14496     429.5123    95.093101     14.44252    27.781449 
   52400    228.16961   -157.48796    204420.41   -23360.369    1656.1172   -25016.486   -26.970716    429.07208    95.093823    14.443292    27.772111 
   52600    237.94877    -195.7686    204420.41   -23223.733     1727.097    -24950.83   -169.01333    426.24133    95.092508    14.442692    27.762627 
   52800     239.8131   -321.25611    204420.41   -23144.906    1740.6289   -24885.535   -614.73981    427.90275    95.090718    14.442046    27.774632 
   53000    240.00074   -481.29776    204420.41   -23152.379    1741.9908    -24894.37   -1174.3431    427.77296    95.090148    14.442696      27.7594 
   53200    229.74253     -212.104    204420.41   -23259.728    1667.5339   -24927.262   -268.19642    431.25933     95.09022    14.446728    27.742392 
   53400    239.90654   -497.88692    204420.41   -23200.155    1741.3071   -24941.463   -1217.7219    433.53935    95.089502     14.44717    27.772354 
   53600    230.68231   -212.76646    204420.41   -23272.685    1674.3551    -24947.04   -263.52103    435.42647    95.091794    14.448016    27.778304 
   53800    237.85777   -440.45613    204420.41   -23220.233    1726.4365   -24946.669   -1055.2266    437.93559     95.09338    14.444984    27.783629 
   54000    243.17892   -324.44405    204420.41   -23155.917    1765.0589   -24920.976    -604.1505    439.40521    95.095437    14.441591    27.768994 
   54200    239.06424   -279.62283    204420.41   -23102.885    1735.1934   -24838.078    -414.0582    440.75241    95.096408    14.440109    27.766237 
   54400    241.24879   -46.587389    204420.41   -23047.771    1751.0495   -24798.821    346.12754    443.11764    95.095909     14.43978    27.775984 
   54600    238.55032   -406.49103    204420.41   -23097.141    1731.4632   -24828.604     -855.191    444.80674    95.095231    14.439362    27.781312 
   54800    239.96746   -157.76997    204420.41   -23120.574    1741.7492   -24862.323   -37.731064    447.70824    95.096044    14.439352    27.798429 
   55000    240.18221    -285.9525    204420.41   -23091.509    1743.3079   -24834.817   -493.81918    452.79541    95.097039    14.438413    27.819289 
   55200     231.2345   -407.92062    204420.41   -23260.867     1678.363    -24939.23   -872.41267    456.60505    95.096831    14.440961    27.804861 
   55400    238.66652     -350.326    204420.41   -23211.356    1732.3067   -24943.663   -715.05964    457.35986    95.094459    14.444051    27.792468 
   55600    241.85373   -232.63464    204420.41   -23210.538    1755.4403   -24965.978   -277.89535    461.94686    95.092647    14.444383    27.776451 
   55800     245.1314   -184.30233    204420.41   -23120.879    1779.2305    -24900.11   -154.69037    464.06623    95.092339    14.443785    27.753615 
   56000    236.61016   -356.63374    204420.41   -23156.706     1717.381   -24874.087   -728.52296    465.61386    95.091079    14.438811    27.762611 
   56200    247.02992   -317.73946    204420.41   -23167.988    1793.0104   -24960.998   -596.69996    467.90743    95.091348    14.436018    27.784645 
   56400    237.11734   -318.98193    204420.41   -23274.027    1721.0622   -24995.089   -594.31622    469.12882    95.090194    14.433078    27.775223 
   56600    235.68911   -489.02475    204420.41   -23391.646    1710.6958   -25102.341   -1168.9532    470.73698    95.088854    14.432996    27.770265 
   56800     242.2095   -404.28077    204420.41    -23274.39    1758.0225   -25032.413   -909.68895    470.42015     95.08885    14.432806    27.764077 
   57000    238.10892   -355.13099    204420.41   -23357.057    1728.2594   -25085.316   -719.49462    472.65128    95.087588    14.432516    27.778003 
   57200    245.68712   -297.17977    204420.41   -23243.856    1783.2641    -25027.12   -566.03773    475.16701    95.087355    14.432441    27.766026 
   57400    233.09544   -266.64873    204420.41   -23268.459    1691.8702    -24960.33   -394.92473    473.77727    95.087457    14.433869    27.780112 
   57600    236.83412   -384.37855    204420.41   -23310.022    1719.0066   -25029.029   -824.10213    475.61039    95.086517    14.435428    27.777075 
   57800    242.34968   -347.40601    204420.41   -23231.387      1759.04   -24990.427   -670.78115    477.07841    95.085321    14.433642    27.794638 
   58000    240.84167   -315.12431    204420.41   -23257.852    1748.0944   -25005.947   -525.25254    477.92333    95.084343    14.434491    27.803211 
   58200    245.55393   -402.52937    204420.41   -23234.495    1782.2973   -25016.793   -862.02415    478.40714    95.084731    14.433004    27.812668 
   58400     234.4323   -450.02898    204420.41   -23264.372    1701.5735   -24965.945   -1034.4449    477.48907    95.084026    14.435381    27.813338 
   58600    234.67598   -374.95065    204420.41   -23270.193    1703.3422   -24973.535   -797.52221    479.82012     95.08198    14.435109    27.809872 
   58800    244.31513   -258.88202    204420.41   -23209.652    1773.3058   -24982.957   -341.94813    481.40919    95.083257    14.434734    27.787389 
   59000    241.25313   -233.83383    204420.41    -23132.28    1751.0809   -24883.361   -293.14949    481.99205    95.084384    14.433142    27.776098 
   59200    231.73685   -120.05378    204420.41   -23223.546    1682.0092   -24905.556    98.434104    484.38517    95.083122    14.432006    27.753477 
   59400    242.65548   -343.65509    204420.41    -23251.59    1761.2596   -25012.849   -685.54231    485.84122    95.082721    14.428972    27.761903 
   59600    235.92125   -305.84302    204420.41   -23301.613    1712.3807   -25013.994   -553.47418    487.14902    95.080266     14.42933    27.762465 
   59800    236.60049   -293.25046    204420.41   -23224.991    1717.3109   -24942.302   -518.73465    487.17318    95.079494    14.431321     27.77476 
   60000    242.13636    -209.7659    204420.41    -23218.67    1757.4917   -24976.162   -256.99947    488.52574    95.080507    14.431631    27.771505 
   60200    238.28048   -718.25093    204420.41   -23259.235    1729.5046   -24988.739   -1981.8476    493.95385    95.082013    14.429671     27.75632 
   60400    246.86855   -132.70441    204420.41   -23224.336    1791.8392   -25016.175    61.995217    493.90883    95.082462    14.431366    27.755155 
   60600    239.40935   -372.98867    204420.41   -23241.499    1737.6983   -24979.197   -782.80765    494.77464    95.083449    14.432861    27.738444 
   60800     245.9425   -271.26436    204420.41   -23136.922    1785.1176    -24922.04   -441.54277    495.64894    95.085056    14.432745    27.746413 
   61000    238.42473   -128.38896    204420.41    -23211.01    1730.5517   -24941.562    55.026841    497.93768    95.084686    14.435248    27.755355 
   61200    243.35229   -278.73353    204420.41   -23203.733    1766.3172    -24970.05   -452.65041    499.31458    95.083367    14.435068    27.748526 
   61400    236.97024   -374.53799    204420.41   -23211.724    1719.9946   -24931.718   -745.08322    500.04827    95.082706    14.432917    27.742182 
   61600    239.89865   -338.88509    204420.41   -23211.091    1741.2498   -24952.341   -662.04357    499.12312    95.085125    14.432297    27.759625 
   61800    239.68992   -224.23737    204420.41   -23276.134    1739.7347   -25015.869   -249.72523    499.62614    95.085262    14.429291    27.759576 
   62000    238.28236   -436.36409    204420.41   -23221.325    1729.5183   -24950.843   -1024.8412    502.35123     95.08672     14.42592    27.763016 
   62200    241.17523   -241.91465    204420.41   -23253.831    1750.5155   -25004.346   -318.30298    504.02757    95.087203    14.427825     27.77816 
   62400    242.92737   -373.17172    204420.41   -23287.851     1763.233   -25051.084   -769.40353    503.29642    95.088564    14.429012    27.776724 
   62600    241.97245   -503.78981    204420.41    -23253.31    1756.3019   -25009.612     -1245.16    504.36668    95.089286    14.430964    27.795331 
   62800    232.80485   -374.72295    204420.41   -23332.342     1689.761   -25022.103   -834.64225    506.57901    95.089118    14.430506     27.78702 
   63000    237.85385    -172.3032    204420.41   -23217.727     1726.408   -24944.135   -82.871367    509.18612    95.089149    14.432348     27.78505 
   63200    236.06431   -250.95296    204420.41    -23267.42    1713.4191   -24980.839    -359.5982    509.90539    95.089548    14.429925    27.788132 
   63400    237.41878    -414.4503    204420.41    -23299.71    1723.2502    -25022.96   -919.40242    512.21351    95.088737    14.429245    27.778527 
   63600    234.44853   -341.41997    204420.41   -23306.987    1701.6913   -25008.678   -669.21041    513.14097    95.087729    14.430463    27.776645 
   63800    232.84888    -406.1442    204420.41   -23311.683    1690.0806   -25001.764   -860.03688    514.53976    95.086432    14.430652    27.766878 
   64000    243.84356   -482.81808    204420.41   -23192.822     1769.883   -24962.705   -1164.0485    514.22861    95.087201    14.430768    27.781983 
   64200    240.12592   -79.556785    204420.41   -23191.923    1742.8993   -24934.823    250.55185    515.09538     95.08707    14.431799    27.779591 
   64400    238.34554   -424.63592    204420.41   -23241.124    1729.9769   -24971.101     -994.125    517.18583    95.085919    14.431624    27.788471 
   64600    236.92956   -247.27182    204420.41   -23252.214    1719.6993   -24971.914   -402.82825    518.59159    95.084601    14.429945    27.788447 
   64800    237.25671    -379.4863    204420.41   -23239.878    1722.0738   -24961.952   -824.54632    522.02146    95.085624    14.430683    27.788917 
   65000    242.58576   -251.21118    204420.41   -23130.833    1760.7535   -24891.586    -333.0142    524.70431    95.087002    14.430211    27.778842 
   65200    236.34307   -417.97513    204420.41   -23209.993    1715.4424   -24925.435   -944.67421     527.2319    95.086803    14.425347    27.772916 
   65400    236.54939   -439.44246    204420.41   -23260.629    1716.9399   -24977.568   -994.38878    529.19221    95.086523    14.425329    27.779437 
   65600    243.75365   -250.19758    204420.41   -23191.492    1769.2304   -24960.722   -336.52243    527.02636    95.087513     14.42923    27.786148 
   65800    235.81303   -489.35631    204420.41   -23211.649    1711.5953   -24923.244   -1177.1074    529.14695    95.085609    14.430925    27.767812 
   66000    240.39051     -175.534    204420.41   -23202.181    1744.8198   -24947.001   -87.927028    529.55846    95.084423    14.432906    27.756247 
   66200    239.30562   -386.49075    204420.41    -23259.74    1736.9454   -24996.686   -811.47424    530.62696    95.084371    14.433702    27.753022 
   66400    237.92812   -369.75161    204420.41   -23232.917    1726.9471   -24959.864   -766.02003    533.21418    95.083478    14.432353    27.760173 
   66600    236.60371   -314.34313    204420.41   -23256.593    1717.3342   -24973.927   -614.57952    534.02617     95.08363    14.433392    27.764127 
   66800    240.50414   -123.74471    204420.41   -23252.732    1745.6446   -24998.377    106.80613    532.26251    95.084055     14.43749    27.780035 
   67000    230.68921   -469.12804    204420.41   -23339.684    1674.4052    -25014.09   -1088.0994    533.05404     95.08431    14.438874    27.792809 
   67200    237.12437   -286.67286    204420.41   -23265.147    1721.1133    -24986.26   -507.71706     535.6978    95.082761    14.436698     27.80624 
   67400    238.28547   -392.75885    204420.41   -23247.435    1729.5409   -24976.976   -863.65651    537.49167    95.082722    14.439151    27.797882 
   67600    238.83497    -61.46768    204420.41   -23210.943    1733.5293   -24944.472    294.44649    533.00461    95.083665    14.439816    27.806185 
   67800    240.54933   -414.08044    204420.41   -23227.395    1745.9726   -24973.367   -870.26327    532.80039    95.083892    14.439551    27.811217 
   68000    239.05342   -368.24407    204420.41   -23320.859    1735.1148   -25055.973   -805.62386    530.95522    95.082049    14.437056    27.818621 
   68200     241.3468    -241.1651    204420.41   -23294.046    1751.7608   -25045.807   -310.30574    529.50497    95.080764    14.433789    27.817619 
   68400    237.56462   -442.69792    204420.41   -23230.049    1724.3087   -24954.357    -1044.252    529.11948    95.079137    14.430425      27.8116 
   68600    230.33652   -442.35127    204420.41   -23270.268    1671.8453   -24942.114   -1015.2814    530.92671    95.078544    14.429098    27.807163 
   68800    249.40405   -259.45501    204420.41   -23218.436    1810.2425   -25028.679   -377.76538    534.62428    95.077841    14.428209    27.832195 
   69000    243.18815    -431.1929    204420.41   -23236.153    1765.1258   -25001.279   -987.46301    536.47872    95.076649     14.42407    27.843329 
   69200    241.13143   -397.17771    204420.41   -23340.868    1750.1976   -25091.065   -837.69146    534.89521    95.077496    14.420644    27.851781 
   69400    237.35222   -299.34034    204420.41   -23374.962    1722.7671   -25097.729   -532.68194    533.70636     95.07552      14.4196    27.871733 
   69600    240.28107    -394.3753    204420.41    -23237.68    1744.0255   -24981.706   -880.22986    535.61658    95.074998    14.420447    27.880724 
   69800    237.19886   -480.80863    204420.41   -23265.843     1721.654   -24987.497   -1124.2854    538.38409    95.076477    14.422097    27.875165 
   70000    239.58451    -250.2372    204420.41   -23322.337    1738.9696   -25061.307   -343.33281     537.8385    95.076741    14.421996    27.881588 
   70200    242.97797   -323.37958    204420.41   -23216.055    1763.6003   -24979.655   -601.11202    540.55151    95.078812    14.421015    27.873952 
   70400    237.59116   -483.42455    204420.41   -23201.319    1724.5014   -24925.821   -1184.8696    542.77031    95.079335    14.422457    27.870011 
   70600    236.77538   -351.54062    204420.41   -23217.818    1718.5802   -24936.398    -713.2837    542.08278    95.080286     14.42928    27.848598 
   70800    240.30178   -336.15575    204420.41   -23181.223    1744.1758   -24925.398   -692.61635    543.62227    95.079657    14.429637    27.861537 
   71000    238.40314    -381.1496    204420.41   -23222.382    1730.3949   -24952.777   -800.25875    548.59912    95.079607      14.4289     27.88338 
   71200    238.62295   -301.20765    204420.41   -23209.551    1731.9904   -24941.542   -548.20461    552.57651    95.080228    14.429914    27.868658 
   71400    243.00053   -300.39967    204420.41   -23238.731    1763.7641   -25002.495   -534.41764    554.28668    95.078805    14.430105    27.869696 
   71600    241.24011   -311.70073    204420.41   -23177.836    1750.9865   -24928.822   -543.24682    553.91613    95.079017    14.429138    27.851742 
   71800    240.33371   -621.14632    204420.41   -23258.927    1744.4075   -25003.335   -1661.6141    554.08409    95.078683    14.430724    27.829711 
   72000    239.49917   -532.02412    204420.41   -23289.842    1738.3502   -25028.192   -1342.9237    552.86374    95.079395    14.430119    27.832898 
   72200    244.13885    -239.9538    204420.41   -23126.199    1772.0263   -24898.225   -328.73532    549.83359    95.079909    14.432102    27.837535 
   72400    242.41036   -337.23756    204420.41   -23215.492    1759.4804   -24974.973   -648.08624     551.6815    95.078414    14.433425     27.84112 
   72600    239.49423   -368.25196    204420.41   -23228.124    1738.3144   -24966.439   -750.26028    551.40754    95.078876    14.434727    27.827245 
   72800    239.52524   -409.68477    204420.41   -23278.617    1738.5395   -25017.156   -897.22828    554.51717     95.07971    14.436256    27.822135 
   73000    237.37339   -321.61443    204420.41   -23312.992    1722.9208   -25035.913   -593.76757    555.89426    95.079623    14.436347    27.824294 
   73200     234.6988   -381.13612    204420.41    -23255.94    1703.5079   -24959.448   -796.58383    557.38057    95.080008    14.436125    27.816519 
   73400    242.39632   -313.35028    204420.41   -23253.184    1759.3786   -25012.563   -532.35259    560.54349    95.077992     14.43752    27.813226 
   73600    242.27348   -412.78789    204420.41    -23275.44     1758.487   -25033.927   -904.85773     564.9055    95.076971    14.435136    27.806439 
   73800    233.40908   -298.73534    204420.41   -23353.888    1694.1467   -25048.035   -497.91719    567.86988    95.075036    14.433291    27.812263 
   74000    239.93073   -420.00963    204420.41   -23360.018    1741.4826     -25101.5   -947.67052    566.91614    95.072763    14.434051    27.803955 
   74200    240.67156   -243.66321    204420.41   -23227.351    1746.8598    -24974.21   -311.30028    568.23642    95.072119    14.431989    27.796494 
   74400    243.03577   -432.16508    204420.41   -23272.265    1764.0198   -25036.285   -995.36893    568.80245    95.073246    14.431533    27.822745 
   74600    243.70028   -440.71833    204420.41   -23267.607    1768.8431   -25036.451   -1003.4482    566.63034    95.073535    14.432243    27.828816 
   74800    239.83542   -268.24787    204420.41    -23292.05    1740.7908   -25032.841   -417.45471    566.75188    95.073929    14.433994    27.828861 
   75000    239.02427   -594.35066    204420.41   -23253.927    1734.9033    -24988.83   -1512.4828    568.38918    95.073105    14.432852    27.834726 
   75200    243.99406   -470.90994    204420.41   -23191.584    1770.9753   -24962.559    -1152.966    570.17736    95.072561    14.432071    27.852238 
   75400    229.94819   -267.50114    204420.41   -23290.193    1669.0266    -24959.22   -432.30397    569.87729    95.072537    14.433011    27.849851 
   75600    244.06946   -316.85104    204420.41   -23237.288    1771.5227   -25008.811   -588.54849    571.15159    95.071669    14.430483    27.853656 
   75800    243.73255   -328.61665    204420.41    -23153.73    1769.0772   -24922.807   -621.84274    570.24138    95.071477    14.429864    27.847347 
   76000    246.48243    -442.5619    204420.41   -23143.895    1789.0367   -24932.931    -1005.468    570.76491    95.072523    14.431016    27.834933 
   76200    236.98613   -363.08642    204420.41    -23265.61    1720.1099    -24985.72   -748.51232    572.75576    95.073711    14.430798    27.826767 
   76400    235.10756    -242.5558    204420.41   -23260.537    1706.4748   -24967.012   -367.75115    572.03712    95.075407    14.432506    27.823994 
   76600    240.54909   -554.14283    204420.41     -23233.9    1745.9708   -24979.871   -1399.3074     575.9781    95.075422    14.433402    27.837139 
   76800    237.98323   -204.23145    204420.41   -23237.189    1727.3471   -24964.536   -194.56105     578.8193    95.075802    14.437074    27.839272 
   77000    237.74991   -300.32599    204420.41   -23255.202    1725.6536   -24980.856   -535.25772    582.01638    95.075853    14.436722    27.838373 
   77200     244.0165   -244.94368    204420.41   -23253.083    1771.1382   -25024.222   -320.75133    586.11735    95.074836     14.43547    27.841376 
   77400     240.1008   -353.02612    204420.41   -23245.211     1742.717   -24987.928   -660.96797    586.82284      95.0751    14.433466    27.849218 
   77600    234.19026   -150.30587    204420.41    -23273.75    1699.8167   -24973.567   -15.563744    586.10618    95.075875    14.431898    27.849225 
   77800    236.33906   -178.46493    204420.41   -23306.955    1715.4133   -25022.368    -97.19298    585.47749    95.076093    14.432759    27.853158 
   78000    239.48477   -402.09596    204420.41   -23272.492    1738.2457   -25010.738   -898.49906     583.9585    95.076791    14.431082    27.857064 
   78200    239.68949   -515.31499    204420.41   -23273.472    1739.7316   -25013.204   -1306.3053    585.86822    95.076493    14.429646     27.87774 
   78400    249.85712   -393.18395    204420.41   -23216.959    1813.5311    -25030.49   -884.19262    586.64865    95.075547    14.429356     27.88533 
   78600    240.21135   -260.30743    204420.41   -23235.608    1743.5194   -24979.128   -383.65402    586.60429     95.07608    14.427382    27.882964 
   78800    241.86926   -294.24719    204420.41    -23213.77     1755.553   -24969.323   -545.40049    586.95913    95.077347    14.428663    27.879903 
   79000    244.55333   -342.60312    204420.41   -23233.408    1775.0347   -25008.442   -631.76451    586.69198    95.078474    14.428742    27.890529 
   79200    242.38822   -182.62859    204420.41   -23188.112    1759.3197   -24947.432   -79.321238    586.30614    95.077999     14.42894    27.887887 
   79400    240.85545   -335.88767    204420.41   -23172.487    1748.1945   -24920.681   -626.20709    591.46875    95.077428    14.428948    27.885706 
   79600    230.86772   -276.76876    204420.41   -23282.046    1675.7008   -24957.747   -478.46898     593.2672    95.078413    14.429353    27.895863 
   79800    238.97702   -290.71033    204420.41   -23254.326    1734.5603   -24988.886   -478.96169    594.69522    95.077043    14.427319    27.888296 
   80000    238.48238   -354.98393    204420.41   -23281.303    1730.9701   -25012.274   -696.43519    597.73683    95.078238    14.426562    27.887485 
   80200    239.74805   -252.41998    204420.41   -23292.421    1740.1567   -25032.577    -359.7356    599.21366    95.077496    14.427825     27.89756 
   80400    235.29609   -412.04659    204420.41   -23308.292    1707.8431   -25016.135   -914.84104    601.66523    95.076162    14.429161    27.894315 
   80600    236.39737   -402.11124    204420.41    -23279.07    1715.8365   -24994.906   -872.14797    603.88375    95.075619    14.433401    27.896898 
   80800    244.46833   -322.76862    204420.41   -23249.913    1774.4178   -25024.331   -592.61265    601.94234    95.075871    14.433431    27.904052 
   81000     241.3992   -523.08021    204420.41   -23304.562    1752.1411   -25056.703   -1314.8692    604.09504    95.074146    14.434319    27.909485 
   81200    240.76032   -100.45774    204420.41   -23304.145     1747.504   -25051.649    172.59848    603.49894    95.072782    14.435145    27.896126 
   81400    241.64247   -486.44024    204420.41   -23251.131    1753.9069   -25005.038    -1186.197    604.51258    95.072835    14.435534    27.900879 
   81600    234.71915   -439.43571    204420.41   -23327.686    1703.6555   -25031.342    -994.1518    603.88262    95.073174    14.434235    27.915734 
   81800    235.51292    -419.6951    204420.41   -23361.491     1709.417   -25070.908   -940.51079    604.61792    95.074156    14.435278    27.921978 
   82000    241.40948   -206.71202    204420.41   -23288.991    1752.2158   -25041.207   -179.37536    606.84845    95.071485    14.435195    27.942558 
   82200     241.8233   -281.30246    204420.41   -23205.436    1755.2194   -24960.655   -466.17345    607.75448    95.069606    14.437612    27.945172 
   82400    239.66346   -397.38064    204420.41   -23244.092    1739.5427   -24983.635   -875.86433    609.99318    95.068671     14.43932    27.950634 
   82600    241.44658   -356.84755    204420.41   -23155.141    1752.4851   -24907.626   -707.41872    609.36304    95.067562     14.44435    27.934971 
   82800    238.21887   -369.25885    204420.41   -23298.554    1729.0575   -25027.612   -787.95045     609.3918    95.065798    14.444056    27.915072 
   83000    243.64897   -364.74027    204420.41   -23199.451    1768.4706   -24967.922   -734.83886    611.65246    95.065115    14.441904    27.904341 
   83200    238.77224    -438.6576    204420.41   -23233.861     1733.074   -24966.935   -981.38244    613.90598    95.066318    14.442991    27.921975 
   83400    240.79519   -382.64165    204420.41   -23245.315    1747.7571   -24993.072   -784.17669    614.55013     95.06554    14.441732     27.93813 
   83600    233.02961   -290.62094    204420.41   -23338.844    1691.3924   -25030.236   -459.45657    612.11837    95.065446    14.441104    27.950123 
   83800    241.04012   -447.38725    204420.41   -23290.332    1749.5348   -25039.866   -1007.6049    610.84184    95.064692    14.441146    27.937558 
   84000    238.56218   -227.97518    204420.41   -23249.486    1731.5493   -24981.035   -260.72212    613.25306    95.064123    14.437391    27.915674 
   84200     241.7746   -156.33734    204420.41   -23178.912    1754.8659   -24933.778   -47.420958    611.77775    95.064122    14.435343    27.917374 
   84400    238.37797   -509.84735    204420.41    -23274.91    1730.2123   -25005.122   -1259.0083    612.67251    95.063333    14.434369    27.904662 
   84600    239.85842   -329.05818    204420.41   -23213.216    1740.9578   -24954.174   -600.40548    613.70898    95.062042    14.428848    27.930861 
   84800    239.49386   -359.83667    204420.41   -23211.164    1738.3117   -24949.476   -736.14224    610.25434    95.062463    14.425646    27.918157 
   85000    246.20602   -330.36883    204420.41    -23177.08    1787.0304   -24964.111   -604.20531    608.46298    95.062467    14.424577     27.90537 
   85200    245.38535   -385.25383    204420.41   -23175.086    1781.0738    -24956.16   -815.68578    607.90314    95.062666    14.426465     27.91119 
   85400    239.77651   -417.59295    204420.41   -23282.076    1740.3633    -25022.44   -934.13645    609.21418    95.061072    14.427484    27.902476 
   85600    239.71908   -224.94832    204420.41   -23252.822    1739.9464   -24992.769   -263.59675    609.70596    95.060095    14.431081    27.882342 
   85800    234.86877   -339.16544    204420.41   -23270.217    1704.7415   -24974.959    -636.2387    609.37958    95.063661    14.432426    27.903282 
   86000    236.85922   -312.62635    204420.41   -23196.983    1719.1887   -24916.172   -558.39879    609.51436    95.063014    14.433358    27.900825 
   86200    248.13203    -530.8329    204420.41    -23160.44    1801.0099    -24961.45    -1335.505    607.39825    95.060205    14.433861    27.890174 
   86400    231.51754   -414.37383    204420.41   -23225.305    1680.4174   -24905.722   -917.29218    609.47856    95.059512    14.436604    27.846145 
   86600    241.32408   -226.95942    204420.41   -23182.581    1751.5959   -24934.177   -269.65029    610.55594    95.058906    14.437686    27.849678 
   86800    235.20019   -389.57979    204420.41    -23242.76    1707.1471   -24949.907   -788.36876    612.42573    95.060363    14.437156    27.848611 
   87000    241.71568   -124.96318    204420.41    -23181.46    1754.4382   -24935.899    84.645611     614.4412    95.060703    14.435727     27.84842 
   87200    238.43871   -318.51475    204420.41   -23129.982    1730.6531   -24860.636   -628.27883    615.81734    95.059839    14.435514    27.853649 
   87400    237.58643   -342.77147    204420.41   -23287.327     1724.467   -25011.794   -676.73633    617.76827    95.060258    14.434555    27.864603 
   87600    241.73869    -166.8981    204420.41   -23197.761    1754.6053   -24952.366   -120.64221    617.99977     95.06121    14.433528    27.870713 
   87800    241.72356    -424.1493    204420.41   -23229.631    1754.4955   -24984.126   -966.66269    621.88189    95.062687    14.434294    27.869456 
   88000    240.99302   -324.20785    204420.41   -23254.058     1749.193   -25003.251   -596.98577    625.48714    95.063755    14.433919    27.878249 
   88200    235.20172   -439.16157    204420.41   -23269.388    1707.1582   -24976.547   -1016.6079    625.18366    95.063427    14.436934    27.889373 
   88400    245.32349    -219.9008    204420.41   -23242.219    1780.6247   -25022.843   -249.01774    626.72267    95.063471    14.440714    27.911618 
   88600    230.12848   -504.86203    204420.41   -23269.994    1670.3352   -24940.329   -1216.9048    628.38733    95.062519    14.440739    27.928939 
   88800    241.22611   -339.58292    204420.41    -23288.42    1750.8848   -25039.305    -657.6406     627.8379    95.061149    14.441889      27.9365 
   89000    242.11757   -312.95588    204420.41   -23270.171    1757.3553   -25027.526   -565.89908    628.77497    95.062628    14.444399    27.946302 
   89200    242.14526   -429.78123    204420.41   -23279.605    1757.5563   -25037.161    -992.2385    629.44507    95.063193    14.444767    27.944363 
   89400    238.03659   -529.87949    204420.41   -23262.187    1727.7344   -24989.921    -1342.661    630.10839    95.063896    14.443433    27.957018 
   89600    233.60451   -340.84128    204420.41   -23376.102    1695.5652   -25071.668   -706.19031    631.53989    95.061761    14.443381    27.955105 
   89800    241.57735   -211.06495    204420.41   -23254.238    1753.4342   -25007.672   -182.60565    632.27776    95.063257    14.443002    27.954184 
   90000    236.36144   -438.24044    204420.41   -23231.714    1715.5757    -24947.29   -980.01997    633.05959      95.0658    14.445466    27.947101 
   90200    238.84071   -432.28309    204420.41   -23271.625    1733.5709   -25005.196   -983.31902    635.60506     95.06598    14.445598    27.948628 
   90400    237.60351   -287.30668    204420.41   -23232.723     1724.591   -24957.314   -462.90895    636.58621    95.065781    14.446575    27.931655 
   90600    236.27164    -148.4918    204420.41   -23232.328     1714.924   -24947.252  -0.96166446    636.02025    95.065398    14.448336    27.938136 
   90800    234.55415    -475.3474    204420.41   -23213.584    1702.4579   -24916.042   -1124.5177    638.23127    95.064857    14.449299    27.946476 
   91000    235.34973    -345.6463    204420.41   -23256.589    1708.2324   -24964.821   -674.23287    639.61021    95.065671    14.447998    27.951131 
   91200    238.35255   -301.75583    204420.41   -23327.368    1730.0277   -25057.395   -552.99538    641.48807    95.067222    14.449546    27.967994 
   91400    231.20189   -510.36468    204420.41   -23282.927    1678.1263   -24961.054   -1255.9047    645.57362     95.06575    14.448698    27.947973 
   91600    243.91267   -111.44455    204420.41   -23191.212    1770.3847   -24961.597    128.19711    648.05202    95.064681    14.448796    27.921114 
   91800    243.74054   -172.34124    204420.41   -23223.745    1769.1352    -24992.88   -79.804969    648.32681    95.064018    14.448053    27.916219 
   92000     244.2873   -419.68352    204420.41   -23240.247    1773.1038   -25013.351   -974.65193     650.6506    95.063283    14.448175    27.929321 
   92200    242.77454   -126.59624    204420.41   -23256.765    1762.1238   -25018.889    92.303346    651.75863    95.062203    14.447186    27.928864 
   92400    240.27006   -310.65102    204420.41   -23236.201    1743.9456   -24980.147   -523.25059    651.58412    95.063987     14.44939      27.9256 
   92600    246.89735   -234.89557    204420.41   -23192.832    1792.0483    -24984.88   -298.63865    651.84763    95.065727    14.449761    27.917426 
   92800    238.62932   -407.08443    204420.41   -23278.901    1732.0366   -25010.938   -895.94937    654.69687    95.066357    14.451893    27.904127 
   93000    237.82351   -481.04404    204420.41    -23274.61    1726.1878   -25000.797   -1128.0099    655.90216    95.065543    14.456694    27.895078 
   93200    237.05672   -283.18882    204420.41   -23240.025    1720.6222   -24960.648   -467.63006    653.38736    95.064566    14.459188    27.888727 
   93400    235.08102   -499.44513    204420.41    -23298.88    1706.2821   -25005.162   -1208.8067    657.01907    95.065431    14.460772     27.89327 
   93600    240.77767   -212.50795    204420.41   -23305.257    1747.6299   -25052.887   -184.35433    657.55072    95.066318     14.46178      27.8988 
   93800    231.81945   -290.43763    204420.41   -23337.583    1682.6088   -25020.192   -516.18824    659.49035    95.067137    14.463578    27.909059 
   94000    244.94436   -442.21781    204420.41   -23323.699    1777.8729   -25101.572   -964.00462    660.01378    95.066228    14.462801    27.881982 
   94200    239.11904   -170.43051    204420.41   -23194.205    1735.5912   -24929.796   -55.737762    658.61509    95.066293    14.459225    27.879635 
   94400    241.58713   -493.83794    204420.41   -23239.928    1753.5052   -24993.433   -1230.9235    661.37682    95.067941    14.459525    27.902185 
   94600    240.13522   -140.65295    204420.41   -23232.581    1742.9669   -24975.548    29.844217    662.38505    95.069007    14.459608    27.913664 
   94800    240.87407   -375.74892    204420.41   -23180.744    1748.3296   -24929.074   -809.49304    664.79037     95.07044    14.462466     27.92186 
   95000     235.3232   -364.98082    204420.41   -23233.076    1708.0399   -24941.116   -742.27752    667.79334     95.06949    14.462389    27.913335 
   95200    241.89046   -262.06336    204420.41   -23222.722    1755.7069   -24978.429   -349.07624    666.56328    95.068981    14.463561    27.901165 
   95400    239.87465   -385.88232    204420.41   -23199.596    1741.0756   -24940.672   -851.62016    668.46181    95.068947    14.465155    27.891867 
   95600    245.96429   -447.91986    204420.41   -23198.035    1785.2758    -24983.31    -1028.617    672.71254    95.069006    14.465802    27.898171 
   95800    239.77328   -383.82971    204420.41   -23212.288    1740.3398   -24952.627    -832.4216    676.25892    95.067822    14.467841    27.910527 
   96000    242.06518   -209.56057    204420.41   -23189.974     1756.975   -24946.949   -162.36646    675.57764    95.068535    14.465398    27.920625 
   96200    246.88089   -397.57381    204420.41   -23112.713    1791.9288   -24904.642   -829.11792    676.04623    95.067896     14.46606    27.924373 
   96400    243.78663   -298.13757    204420.41   -23219.891    1769.4698   -24989.361   -505.83322     675.1362    95.067027    14.464707    27.917203 
   96600    237.90423   -332.98331    204420.41   -23239.887    1726.7737    -24966.66   -660.08988    679.29534    95.066501    14.462589     27.92551 
   96800    238.04261   -471.19351    204420.41   -23178.614    1727.7781   -24906.392   -1087.4314    677.67249    95.067951    14.461243    27.933579 
   97000    236.72567   -175.84671    204420.41   -23215.452    1718.2194   -24933.671   -76.460481    678.71241     95.06827    14.460029    27.936636 
   97200    241.56302   -341.45077    204420.41   -23203.246    1753.3302   -24956.576   -658.23359    682.30238    95.067725    14.461314     27.91382 
   97400    239.21684   -262.56097    204420.41   -23202.757     1736.301   -24939.058   -426.38204    678.56904    95.067101    14.459107    27.893955 
   97600    244.50972   -412.61707    204420.41   -23164.479    1774.7182   -24939.197   -906.46321     682.4736    95.065268    14.458224    27.894672 
   97800    242.26477   -432.20477    204420.41   -23221.273    1758.4237   -24979.697   -959.95734    683.32214    95.063693    14.458301    27.907995 
   98000     241.4546   -317.22672    204420.41   -23270.762    1752.5433   -25023.305   -609.36251     683.7083    95.064472    14.458251    27.897274 
   98200    240.82615   -323.66292    204420.41   -23278.196    1747.9818   -25026.177   -599.07613    683.98974    95.064078    14.458174    27.918158 
   98400    245.30582   -407.57131    204420.41   -23226.566    1780.4964   -25007.063   -885.36789    686.55226    95.063937    14.458864     27.92733 
   98600    238.83653   -376.02418    204420.41   -23269.548    1733.5406   -25003.089   -785.30308    686.60737    95.066225    14.460994    27.914546 
   98800    238.49727   -408.52294    204420.41   -23231.284    1731.0781   -24962.362   -916.76654    685.56507    95.064462    14.459777    27.926059 
   99000    236.55952   -393.93015    204420.41   -23273.105    1717.0135   -24990.119   -845.88037    686.06558    95.063428    14.458201    27.936387 
   99200    236.82351   -468.01976    204420.41   -23187.772    1718.9295   -24906.702   -1123.0538    684.93575    95.062245    14.455724    27.957133 
   99400    244.19358   -153.04273    204420.41   -23174.723    1772.4235   -24947.147   -4.6586325    681.60917    95.063551    14.458553    27.942059 
   99600    242.66347   -269.32477    204420.41   -23170.297    1761.3176   -24931.614   -375.86468    682.49463    95.063915    14.457925    27.936467 
   99800    245.44426    -270.9715    204420.41   -23172.587    1781.5013   -24954.088   -430.58301    686.28392    95.063811     14.45863    27.930534 
  100000    238.56737   -289.09972    204420.41   -23208.029     1731.587   -24939.616   -443.26736     686.5634    95.063814    14.459908    27.945646 
  100200    236.48988   -403.03667    204420.41   -23245.013     1716.508   -24961.521   -867.24183    687.45633    95.063279    14.456898    27.940106 
  100400    239.56245   -417.14892    204420.41    -23167.74    1738.8095   -24906.549   -926.69701     689.5508    95.065711     14.45627    27.940825 
  100600    244.47907   -276.60699    204420.41   -23191.427    1774.4957   -24965.923   -409.04818    693.13135    95.066787    14.457224    27.953259 
  100800    233.97294   -212.22638    204420.41   -23236.509    1698.2394   -24934.748   -250.68037    695.37034    95.066803    14.459141    27.951626 
[...]
 5175800    222.70018   -145.34349    204420.41   -25759.592    1616.4186    -27376.01    55.665125    7441.6886    95.391984    14.552188    26.576125 
 5176000    226.41666    -146.9852    204420.41   -25773.774    1643.3938   -27417.168    -11.98116    7435.5118    95.392588    14.550781    26.579269 
 5176200    222.69103      17.1615    204420.41    -25793.69    1616.3522   -27410.042    635.14792    7434.8583    95.392783     14.55199    26.579348 
 5176400    225.54025   -264.41295    204420.41   -25725.951    1637.0326   -27362.984   -379.73606    7444.0693    95.391751    14.552778    26.576147 
 5176600    232.28957    44.021506    204420.41   -25666.478     1686.021   -27352.499    715.32802    7435.9967    95.391206    14.553213    26.581676 
 5176800    225.18699   -102.86263    204420.41   -25716.607    1634.4685   -27351.076    185.57909    7438.9567    95.390952    14.553707    26.582385 
 5177000    230.49332   -52.456332    204420.41   -25700.072    1672.9833   -27373.055    356.50611    7445.0556    95.391585    14.553997    26.574009 
 5177200      230.246   -141.53117    204420.41   -25667.906    1671.1882   -27339.095    54.718779    7446.4401    95.391105    14.553495     26.58228 
 5177400    237.21365   -76.145586    204420.41   -25634.038    1721.7613   -27355.799    300.16824    7438.8555     95.39082    14.553815    26.578719 
 5177600    228.04779   -95.671606    204420.41   -25727.398     1655.233   -27382.631    214.76586    7432.8657    95.390994    14.554563    26.576928 
 5177800    224.86787   -84.395196    204420.41   -25756.722    1632.1523   -27388.875    293.30654    7434.1383    95.390475    14.554009    26.577555 
 5178000    222.47897   -105.24759    204420.41   -25747.546    1614.8129   -27362.359    206.83867    7437.3116    95.391027    14.554139    26.579655 
 5178200    226.54192   -85.009733    204420.41   -25743.039     1644.303   -27387.342    251.67611    7438.8121    95.390323    14.555604     26.57613 
 5178400    222.40398   -107.01964    204420.41   -25748.896    1614.2687   -27363.165    159.64654    7438.2686    95.390648    14.554789    26.571223 
 5178600    228.31384   -135.00184    204420.41   -25720.135    1657.1641   -27377.299    90.003893     7436.515     95.39037    14.555184    26.576584 
 5178800    231.77785   -134.15665    204420.41    -25725.32    1682.3068   -27407.627    110.50557    7443.0138    95.390314    14.556247    26.582016 
 5179000    225.95551   -74.840344    204420.41    -25744.11    1640.0466   -27384.157    333.51226    7436.9635    95.390043    14.557789    26.577984 
 5179200    217.80336   -94.541709    204420.41   -25761.034    1580.8761   -27341.911    224.85072    7432.6424    95.389756    14.558596    26.577591 
 5179400    229.08942   -8.1305822    204420.41   -25690.318    1662.7934   -27353.111    525.13179     7431.519    95.390781    14.558775    26.572596 
 5179600    226.97248    -90.72537    204420.41   -25759.762    1647.4281    -27407.19    218.77084    7440.4788    95.390299    14.559416    26.573764 
 5179800    230.86507   -190.01568    204420.41   -25746.116    1675.6816   -27421.797     -113.568    7449.7496    95.389331    14.559514     26.57714 
 5180000    219.41193   -87.628384    204420.41   -25827.076    1592.5516   -27419.628    263.50694    7436.6121    95.389283    14.561051    26.577339 
 5180200    222.91504    34.466836    204420.41   -25803.292    1617.9781    -27421.27    691.20065    7432.8275    95.389894    14.560848    26.576455 
 5180400    230.96795   -227.03185    204420.41   -25732.232    1676.4283    -27408.66   -223.22149    7444.0129    95.389963    14.562351     26.57694 
 5180600     226.0639    1.8614588    204420.41   -25736.935    1640.8334   -27377.768    606.21222    7433.4808    95.390175    14.563486    26.575005 
 5180800     218.8078   -322.27351    204420.41   -25767.068    1588.1666   -27355.234   -571.32149    7439.8459    95.390441    14.563193    26.573238 
 5181000    222.63793   -106.57772    204420.41    -25798.81    1615.9667   -27414.776    196.01937    7438.2703    95.390026    14.563138    26.567051 
 5181200    220.42216   -225.24539    204420.41   -25776.441    1599.8841   -27376.325   -249.54174    7441.5398    95.390422     14.56298    26.572198 
 5181400    232.15185   -51.467547    204420.41   -25691.214    1685.0214   -27376.236    375.65497    7438.0048    95.391269     14.56286    26.576662 
 5181600    222.33692   -183.11792    204420.41   -25811.237     1613.782   -27425.018   -45.242423    7436.7643    95.390688    14.561359    26.576384 
 5181800    234.28512     8.837161    204420.41   -25701.682    1700.5052   -27402.187    571.52151    7434.5086    95.390563    14.562909    26.572723 
 5182000    222.03731   -135.38083    204420.41   -25728.677    1611.6073   -27340.284    102.68943    7445.7773    95.391719    14.564699    26.576886 
 5182200    226.18594   -163.04743    204420.41   -25696.661    1641.7192    -27338.38    13.451064    7444.8813    95.392269    14.564263    26.573251 
 5182400    224.74731    -74.25216    204420.41   -25778.315    1631.2772   -27409.592    272.87373    7438.8094    95.392424    14.564497    26.574809 
 5182600    223.79687   -88.878903    204420.41   -25736.753    1624.3787   -27361.132    233.91659    7437.4099    95.392764    14.564642    26.572138 
 5182800    226.53786   -101.93754    204420.41   -25708.822    1644.2735   -27353.095    186.93894     7438.203    95.392909    14.564883    26.573702 
 5183000    232.41803   -182.87528    204420.41   -25687.751    1686.9534   -27374.704   -100.66554    7439.6896    95.393956    14.564211    26.571572 
 5183200    235.87523   -100.07954    204420.41   -25700.744    1712.0467   -27412.791     217.5731    7439.2633    95.393352    14.564007    26.575884 
 5183400    219.67109   -128.63504    204420.41   -25827.987    1594.4327   -27422.419    128.85085    7438.2933    95.393336    14.564236     26.57042 
 5183600    220.73278   -108.83355    204420.41   -25809.065    1602.1386   -27411.204    186.16601    7441.3834    95.392717    14.564316     26.57113 
 5183800    227.37814   -203.90777    204420.41   -25783.691    1650.3725   -27434.064   -138.13022    7443.7854    95.392384    14.564815    26.570965 
 5184000    231.75025   -43.566525    204420.41   -25712.234    1682.1064    -27394.34    393.46271    7433.3115      95.3931    14.564747    26.571285 
 5184200     226.4468    -109.8408    204420.41   -25720.612    1643.6126   -27364.224    174.45132    7438.0965    95.393469     14.56372    26.575383 
 5184400     231.0884   -55.374701    204420.41   -25700.991    1677.3026   -27378.294    365.02347    7436.8697    95.393435     14.56398    26.570899 
 5184600    227.46401   -85.065219    204420.41   -25747.343    1650.9958   -27398.339    283.24376    7433.5068    95.394104    14.562798    26.575846 
 5184800    231.66872   -115.18583    204420.41   -25717.171    1681.5147   -27398.685    161.99639    7433.1039    95.395104    14.562451    26.570568 
 5185000    228.30084   -145.23719    204420.41   -25717.445    1657.0697   -27374.515     35.91938    7437.2666    95.395569    14.562569    26.569529 
 5185200    224.57021   -143.11539    204420.41   -25787.286    1629.9918   -27417.278    64.407356    7440.5903    95.396485    14.562112    26.569474 
 5185400    227.57436   -101.19972    204420.41   -25723.351    1651.7967   -27375.148    227.43691    7435.7866     95.39651     14.56155    26.568169 
 5185600    226.33296   -78.752671    204420.41   -25726.637    1642.7863   -27369.424    268.64462    7430.6044    95.397755    14.560715    26.574974 
 5185800    228.09946   -165.03619    204420.41   -25703.743     1655.608   -27359.351   -22.147182    7436.2208    95.397948    14.560651    26.570683 
 5186000    228.12163   -60.394553    204420.41   -25708.091    1655.7689    -27363.86    351.84215    7434.1974    95.398839    14.561288    26.569923 
 5186200    229.09579   -135.06698    204420.41   -25691.733    1662.8396   -27354.573    77.997064    7435.1361    95.399449    14.561216    26.570472 
 5186400    228.62967   -143.06939    204420.41   -25729.215    1659.4564   -27388.671    48.922557    7438.0663    95.399429    14.561289    26.572126 
 5186600    226.34829    -88.59525    204420.41    -25720.12    1642.8976   -27363.018    250.67957    7443.0208    95.399665    14.560039     26.57061 
 5186800    227.96524   -60.067827    204420.41   -25721.351    1654.6338   -27375.985    352.97634    7445.7051    95.400267    14.559288    26.577532 
 5187000    233.31382    -137.9831    204420.41   -25704.555    1693.4553    -27398.01    78.323535    7439.5427    95.399943     14.55923    26.572948 
 5187200    228.47229   -100.25226    204420.41   -25747.109    1658.3142   -27405.423    201.46351     7424.622    95.400844    14.559323    26.577089 
 5187400    223.36982   -185.46051    204420.41   -25777.465     1621.279   -27398.744   -42.860807    7429.6279     95.40165    14.558887    26.571796 
 5187600    232.22682   -111.13671    204420.41   -25686.591    1685.5656   -27372.157    143.55688    7436.5052     95.40198    14.558779    26.573235 
 5187800    226.35391   -82.981381    204420.41   -25745.735    1642.9384   -27388.673    311.29667    7432.6955    95.402769    14.558874    26.573798 
 5188000    229.36082   -89.349927    204420.41   -25678.363    1664.7633   -27343.126      231.623    7436.4601    95.402933    14.558792    26.577776 
 5188200    228.15418    -82.01434    204420.41   -25725.083    1656.0052   -27381.088     287.3933    7447.2529    95.402939    14.558518    26.578579 
 5188400    228.49276   -14.207855    204420.41   -25715.512    1658.4627   -27373.974    512.54453    7446.7392    95.403118     14.55655    26.570664 
 5188600    228.27498   -94.329184    204420.41   -25746.823     1656.882   -27403.705      233.404    7439.6732    95.402906    14.555778    26.574053 
 5188800    221.94173   -98.822689    204420.41   -25784.744    1610.9136   -27395.658    218.50248    7433.3598    95.402206    14.556076    26.573778 
 5189000    226.81854   -145.94398    204420.41   -25747.561    1646.3107   -27393.872    40.736194    7435.8293    95.402109    14.556029    26.580499 
 5189200    215.87593   -66.656639    204420.41   -25849.917    1566.8863   -27416.804    348.36265    7427.2754    95.402089    14.556596    26.575858 
 5189400    222.18475   -111.92967    204420.41   -25795.652    1612.6774    -27408.33    152.16103    7429.1819    95.402424    14.557794    26.572901 
 5189600    225.60107   -113.14403    204420.41   -25721.637     1637.474   -27359.111    190.72124    7432.3356     95.40221     14.55804    26.569455 
 5189800    221.48359   -123.21783    204420.41   -25752.743    1607.5883   -27360.332    115.58768    7447.8432    95.401222    14.557819    26.572212 
 5190000    227.21225   -114.48195    204420.41   -25748.215    1649.1684   -27397.384    182.10336    7456.4016    95.400672    14.557078    26.575576 
 5190200    223.37103   -56.319884    204420.41   -25767.678    1621.2878   -27388.966     358.7673    7441.4453    95.401725     14.55723    26.579234 
 5190400    230.95064   -39.876441    204420.41   -25673.653    1676.3027   -27349.956    406.85609    7432.2766    95.402921    14.556791    26.581886 
 5190600    226.73748   -130.76834    204420.41   -25747.863    1645.7224   -27393.586    119.33415    7432.0129    95.403199    14.556758    26.582095 
 5190800    227.04438   -91.467929    204420.41    -25720.38      1647.95    -27368.33    246.16303    7431.7919    95.403349    14.557449    26.575249 
 5191000    222.18973   -148.95793    204420.41   -25743.501    1612.7136   -27356.215    40.759358    7434.7333    95.403529    14.558284    26.576447 
 5191200    227.57932    -90.64259    204420.41   -25749.326    1651.8327   -27401.159    265.98562    7433.6597    95.404153     14.55847    26.576802 
 5191400    227.07529   -80.435481    204420.41    -25736.39    1648.1743   -27384.564    285.51414    7449.4199    95.403688     14.55804    26.576818 
 5191600    226.19046   -159.85716    204420.41   -25755.016     1641.752   -27396.768    38.683572    7453.8934     95.40344    14.557773    26.572696 
 5191800    224.61503   -82.132098    204420.41   -25700.445    1630.3171   -27330.762    288.43177    7441.7822    95.403359    14.558095    26.567319 
 5192000    229.56762   -65.597748    204420.41   -25684.592    1666.2643   -27350.857    361.87762      7429.84    95.404312    14.558666    26.580871 
 5192200    231.58001   -118.29262    204420.41    -25743.24    1680.8708    -27424.11    163.51669    7429.1554    95.404454    14.558332    26.574793 
 5192400    223.26798   -122.99655    204420.41   -25739.275    1620.5398   -27359.814    144.01404    7442.1712    95.404622      14.5603    26.575205 
 5192600    223.95393   -160.29813    204420.41   -25779.505    1625.5187   -27405.023   -19.183704    7439.5195    95.405844    14.560424    26.573568 
 5192800    226.47302   -29.969701    204420.41   -25726.657    1643.8029    -27370.46     513.2659    7439.0222    95.406668    14.560723    26.569176 
 5193000    224.90034   -76.895675    204420.41   -25799.426    1632.3879   -27431.814     326.5102    7443.3781    95.407331    14.561256    26.575282 
 5193200      234.956   -101.04801    204420.41    -25734.91    1705.3747   -27440.285    220.36081    7443.9347    95.407382    14.561481     26.57037 
 5193400    228.71317   -40.046494    204420.41   -25732.525    1660.0625   -27392.587    413.25885    7428.7063    95.407559    14.563087    26.570499 
 5193600     225.5702    -62.99465    204420.41   -25709.864      1637.25   -27347.114    336.99168    7427.3367    95.407694    14.563958    26.577186 
 5193800    229.54713   -157.03897    204420.41   -25730.565    1666.1156   -27396.681    40.176613      7433.95     95.40776     14.56537    26.566863 
 5194000    218.04237   -74.915106    204420.41   -25835.371    1582.6109   -27417.982    300.71535    7430.1122    95.408342    14.567339     26.57247 
 5194200    228.34374    6.8381412    204420.41   -25788.798    1657.3811   -27446.179    595.35791    7435.7428    95.408688    14.567989    26.575154 
 5194400    230.23859   -216.53501    204420.41   -25726.103    1671.1344   -27397.237   -211.43914    7449.0921    95.408639    14.567094     26.57376 
 5194600    230.32565   -59.213591    204420.41   -25700.811    1671.7663   -27372.577    335.71598    7445.3717    95.408645    14.566797    26.567889 
 5194800    230.11289   -174.77371    204420.41   -25730.185     1670.222   -27400.407   -59.874997      7442.59    95.409998    14.566561    26.569662 
 5195000     230.2077   -2.9099884    204420.41   -25741.749    1670.9102   -27412.659    556.68979    7436.3529    95.410053    14.566214     26.56801 
 5195200    231.99808   -192.16033    204420.41   -25731.695    1683.9053     -27415.6   -79.378208    7447.0526    95.410189     14.56685    26.568332 
 5195400    226.93486   -43.162837    204420.41   -25729.975    1647.1551    -27377.13    398.04922    7440.8126    95.410023    14.567359    26.564512 
 5195600    225.52706   -87.369207    204420.41   -25777.831    1636.9368   -27414.768    255.11562    7434.3348    95.410538    14.567937    26.574461 
 5195800    230.67609   -144.73976    204420.41   -25663.408    1674.3099   -27337.718    87.800131    7430.9786    95.410915    14.567666    26.575172 
 5196000    230.38224   -110.10814    204420.41   -25747.223    1672.1771     -27419.4     160.1439    7433.8053    95.410926    14.567333    26.573524 
 5196200      229.372   -167.08351    204420.41   -25755.499    1664.8445   -27420.343   -9.1795734     7445.132    95.411351    14.567534    26.567855 
 5196400    226.97945   -112.83309    204420.41   -25735.346    1647.4787   -27382.824    167.95964    7440.0658    95.411147    14.567904    26.566168 
 5196600    227.18647   -128.16345    204420.41   -25723.104    1648.9813   -27372.086    109.91545    7431.2362    95.411351    14.568926    26.575314 
 5196800    226.19376   -12.251637    204420.41   -25715.288    1641.7759   -27357.064    539.37955    7434.8118    95.411729    14.569134    26.571697 
 5197000    234.85126   -114.41499    204420.41   -25676.977    1704.6145   -27381.592    168.13171    7442.5779    95.412662    14.568619    26.575333 
 5197200    224.83237   -178.99262    204420.41   -25762.038    1631.8946   -27393.932   -108.18177    7438.4263     95.41344    14.569041    26.566823 
 5197400    220.57571   -108.71847    204420.41   -25760.651    1600.9986    -27361.65    155.76227    7432.9173    95.414135    14.568684    26.574716 
 5197600    223.36559   -116.87552    204420.41   -25791.244    1621.2483   -27412.493    146.30789    7433.1004    95.413759    14.568195    26.583016 
 5197800    218.62137   -131.85491    204420.41   -25825.549    1586.8135   -27412.362    102.23593    7440.6957    95.414651    14.566762    26.575254 
 5198000    231.60276   -75.146988    204420.41   -25699.276    1681.0359   -27380.312     268.4467    7446.8772    95.414973    14.565509    26.572824 
 5198200    232.78582    -199.9894    204420.41   -25713.933    1689.6229   -27403.556   -126.44198    7449.3171    95.414095    14.565505    26.571913 
 5198400    224.12397   -102.24872    204420.41   -25768.195    1626.7528   -27394.948     241.3328    7438.0572    95.414672    14.565129    26.575373 
 5198600    223.20372    -95.24084    204420.41   -25813.919    1620.0734   -27433.992     226.7296    7436.7927    95.414995    14.564706    26.576844 
 5198800    225.86319   -210.48736    204420.41    -25742.47    1639.3766   -27381.847   -164.68418    7441.8815    95.415153    14.564364     26.56965 
 5199000    229.55984    -68.66241    204420.41   -25692.743    1666.2079   -27358.951    251.79582     7439.909    95.415119    14.564851    26.571139 
 5199200    230.33075   -246.45305    204420.41   -25749.657    1671.8033   -27421.461   -263.47427    7447.3429    95.414752    14.565234    26.563783 
 5199400    226.02277   -49.263822    204420.41   -25730.587    1640.5348   -27371.122    405.42094     7440.759    95.415769    14.564645    26.563421 
 5199600     225.9009   -131.71954    204420.41   -25717.079    1639.6503    -27356.73    92.047279    7435.7406    95.415616    14.564426    26.571781 
 5199800    231.99754   -76.939751    204420.41   -25742.954    1683.9014   -27426.856    301.08229    7441.6914    95.416074    14.565093    26.567419 
 5200000    224.36376    -169.1029    204420.41   -25697.154    1628.4933   -27325.647   -43.215609    7446.0572    95.415999    14.563664    26.573159 
Loop time of 6413.76 on 160 procs for 5200000 steps with 8482 atoms

Performance: 700.494 ns/day, 0.034 hours/ns, 810.757 timesteps/s
98.1% CPU use with 160 MPI tasks x no OpenMP threads

MPI task timing breakdown:
Section |  min time  |  avg time  |  max time  |%varavg| %total
---------------------------------------------------------------
Pair    | 0.25144    | 1688.6     | 5066       |4390.6 | 26.33
Neigh   | 0.3304     | 88.166     | 315.35     |1103.8 |  1.37
Comm    | 8.6851     | 1738       | 5082.3     |4164.5 | 27.10
Output  | 81.38      | 81.45      | 83.323     |   1.7 |  1.27
Modify  | 362.12     | 2736.5     | 6250.6     |4607.5 | 42.67
Other   |            | 81.12      |            |       |  1.26

Nlocal:    53.0125 ave 164 max 0 min
Histogram: 58 13 48 1 0 0 0 5 5 30
Nghost:    544.263 ave 889 max 0 min
Histogram: 20 2 2 2 10 34 23 18 31 18
Neighs:    0 ave 0 max 0 min
Histogram: 160 0 0 0 0 0 0 0 0 0
FullNghs:  5356.54 ave 20638 max 0 min
Histogram: 93 27 0 0 0 0 0 6 14 20

Total # of neighbors = 857046
Ave neighs/atom = 101.043
Neighbor list builds = 547797
Dangerous builds = 0
write_data 		${DIR}/data.${NAME}_run
write_data 		run_12/data.${NAME}_run
write_data 		run_12/data.ibeam_cooling_12_run
Total wall time: 1:47:08
