LAMMPS data file via write_data, version 29 Oct 2020, timestep = 60630

1459 atoms
1 atom types

0.0 68.908 xlo xhi
0.0 68.92587069519459 ylo yhi
0.1092386988365579 17.890761301163884 zlo zhi

Masses

1 18.015

Atoms # atomic

211 1 17.34195633719253 2.227232649431539 1.2316535051532378 0 1 0
9 1 18.22048004000283 5.8660468253653 3.790003140272651 0 0 0
17 1 18.20711563959972 2.837443136193568 4.024011329798836 0 1 1
16 1 20.403564914620706 1.636748942583851 2.608833543442633 1 0 0
241 1 17.009820565015776 0.7184450882849389 10.86004705283968 0 0 0
7 1 16.245254150413764 7.041513232244858 0.3225083492021989 0 0 1
434 1 21.08246760670631 6.861203743962631 1.3466662139839356 0 1 1
393 1 22.17439413789379 15.448833352896937 5.024683123290446 0 0 0
14 1 15.881894921210245 9.866088576334151 0.19666253810672266 0 0 1
11 1 19.70931651074134 10.46147884052808 4.205260867809446 0 0 0
342 1 16.64408018578736 11.327548150296272 2.6285315101545996 0 0 1
2 1 14.978624625010685 13.420246233375565 3.7343569507060677 0 0 0
4 1 19.551468904563187 12.440411205986692 2.3645611504345894 0 0 0
288 1 21.814313504077912 13.3109845177553 3.024891270936298 0 0 1
32 1 16.102700424870285 15.33435261028466 2.065010733020612 0 0 1
410 1 19.659230414107668 8.323755333470324 15.54374722532241 0 0 0
451 1 18.740504185912656 15.346448933934665 2.611729395902041 0 0 0
56 1 21.45472113131695 16.716373016045086 2.5387830835727185 0 0 1
217 1 18.65481384739575 1.0943039312992688 6.09812370507315 0 1 -1
417 1 18.81873158210665 8.67556924042563 0.5201778257349022 0 0 0
5 1 21.18880998034918 6.2415677932435925 4.124499502835446 0 0 1
27 1 17.734917674224366 8.788684421365636 3.651258198729109 0 0 1
31 1 20.11847284108977 5.8827638650909355 7.085981194915631 0 1 0
387 1 22.869655601929605 3.684741355908388 11.996164645037142 0 0 0
256 1 22.03631873408479 9.101267728477273 4.655667791791942 0 0 1
450 1 16.191670514655694 13.418676724457656 6.424296684224225 0 0 0
326 1 18.68486127080914 12.040078472464685 6.238165880945016 0 0 1
268 1 20.189167663516457 14.236174261573733 6.871016163460395 0 1 0
104 1 18.83074413284615 16.71526801332362 17.420269462805916 0 0 -1
289 1 18.00902484746178 15.533443853126045 5.4680490771362225 0 0 1
20 1 17.03046400397587 14.882994021793019 16.96607463356863 0 0 0
212 1 19.89344095895295 3.5754909206099317 8.863199421057233 0 0 -1
54 1 17.325740600995527 2.394522434842595 8.395227409550849 0 0 1
42 1 19.520057322682526 11.424202035169357 17.665320681826252 0 0 0
1133 1 21.92316469592233 1.778047806175934 8.647618952314563 0 1 1
114 1 21.544164943200272 15.510981747798194 0.20756378903739758 0 0 2
8 1 22.532407162089086 0.5173298232826637 16.980443030705942 0 0 -1
46 1 18.30041218630128 7.718391926770273 8.298122588374948 0 0 0
309 1 19.343111482771423 10.283689446771936 8.482536053962573 0 0 0
36 1 22.25586192285128 10.069822260196656 9.147994269588686 0 0 1
35 1 16.212069407788828 13.20752195030029 9.105881488340199 0 0 0
23 1 18.599074977310266 12.068441909584054 10.515693865378966 0 0 0
34 1 16.257532090651402 15.82386975829426 10.689385998236867 0 0 0
402 1 18.589457769142797 16.793284732335934 9.628510203193352 0 0 1
44 1 15.40612603483434 10.89567973551666 15.265486094497557 0 0 0
52 1 19.988578539887573 14.582740662199946 9.83570882726523 0 0 0
25 1 16.73710936314154 2.997761990140842 12.487205624189532 0 0 0
29 1 21.917270433202177 11.230007807614575 16.661461664226795 0 0 0
351 1 15.280284979939422 3.9759365084451246 14.62208894654535 1 0 0
57 1 18.703032521103236 4.3652127859745695 11.253319002063437 0 0 0
352 1 20.307166005720468 3.7493167538202776 13.37933444005368 0 0 0
58 1 18.91822995838594 7.170428740243113 10.957447957793585 1 0 1
22 1 18.305443452173762 9.202933594989712 13.049261723277649 0 0 0
359 1 21.53086744929169 8.213984284519185 11.004409333558746 0 0 0
392 1 19.4658125781165 5.537407769925615 15.21289463762899 0 0 0
24 1 17.76806506724166 12.256990000067079 15.659655481804968 0 0 1
45 1 18.997642719031457 11.96988500338266 13.347636126316806 0 0 1
343 1 21.70742471777906 12.24491043550189 14.067699261639499 0 0 1
18 1 15.95861622048213 15.792443905604214 14.471916678392892 0 0 0
30 1 17.888590739880414 14.753729922102275 12.664979703730781 0 0 0
391 1 20.07408089081278 16.290579790383994 13.198112943085555 0 0 -1
38 1 21.99350550101551 14.871569553283189 13.983428018986157 1 1 0
43 1 15.774989266602354 2.1664343490681253 16.580582068786622 0 0 1
39 1 18.316960717507353 2.0415105706146375 14.958041674757531 0 0 1
12 1 20.155192386881385 1.8281107128521468 17.688793883540303 0 0 1
26 1 16.60217632459791 6.166440298675426 15.221724936243684 0 1 0
19 1 18.180646694503356 5.011068767076655 1.016141546178541 0 0 1
40 1 21.19117038751638 4.699174437290898 17.484786984462012 0 1 -1
28 1 15.476469606619963 8.207630936120713 13.76708679677776 0 1 0
454 1 22.738998075093388 8.514112511033426 15.480589944319052 0 0 0
186 1 22.553667559283163 0.8516359440925996 4.220205898257182 0 1 0
53 1 22.89037008144562 13.236468874967116 7.078052008189989 0 0 0
378 1 22.74226351167223 17.05564740119801 15.878657110065866 0 0 1
21 1 22.45154461449636 14.233349827617793 11.112096483839721 0 0 0
333 1 22.71232877651397 6.132661290793252 7.818235042934363 0 0 0
411 1 22.71010173502837 9.839633176321252 12.820063831944577 0 0 0
115 1 21.093416091089466 17.132092617077376 7.83481585808948 0 0 1
307 1 22.773267444512307 5.852566978906223 10.360064147627371 0 0 0
15 1 17.577479816861477 18.841134237503486 0.9686008367972283 0 0 1
37 1 20.617874510834525 19.629915803448142 1.7613241595564584 0 0 0
49 1 20.551225048249904 22.31283323183554 0.6609551337192152 0 0 0
108 1 18.3838901156726 26.49460228501018 3.4921105191444064 0 0 0
588 1 20.456282438926596 25.4998872050796 2.24529286404652 0 0 0
111 1 17.940236380649438 29.87915776707649 3.229965711787696 0 0 0
74 1 17.31812358674278 28.764801719255356 17.281509755333992 0 0 0
677 1 21.416756873450375 28.553342588901582 14.053150550204256 0 0 0
33 1 22.968889410570252 21.546689684155737 12.641295084624184 0 0 0
106 1 19.39949427776761 30.210667732112114 0.9804255222721027 0 0 0
117 1 18.3590008046367 19.86413743399456 3.4484171219307878 0 0 -1
93 1 21.933398905002537 29.077686197915128 1.4909280605410642 0 0 1
109 1 19.92035058573296 18.077954186397186 5.153088098988754 0 0 0
67 1 21.458303045515343 32.76103568033029 14.766476865123998 0 0 0
586 1 19.138484271009155 22.253258120449015 4.941477187956816 0 0 0
121 1 17.76552304126127 24.513081949916504 5.319403821635055 0 0 0
110 1 19.34795443726901 25.899948285677112 6.8798787013580425 0 0 0
559 1 20.170804247257593 30.604045313013525 7.148037350193196 0 0 0
551 1 19.422111450419216 28.326347951447396 5.228611364275057 0 0 1
87 1 18.70963034782702 32.621519262662716 7.793564155492842 0 0 0
524 1 21.749389596171326 32.96001809503886 6.142799038753993 0 0 -1
51 1 17.56558007831455 18.967072480875448 8.008714470425089 0 0 1
470 1 20.963523878033172 17.981691279500154 10.961712869353166 0 0 -1
96 1 16.548874657184722 21.466171136719943 8.990519321219145 0 0 1
112 1 20.353946262839695 23.325284195939595 10.956558058816555 0 0 -1
119 1 19.77039371414502 20.314249388128168 7.084829891548344 0 0 1
59 1 19.20000299644947 26.615915682202164 9.65888520121572 0 0 -1
95 1 17.861322294955333 24.153839685857818 10.055983963282516 0 0 -1
98 1 19.94863293824121 29.440352701718616 9.795689011103141 0 0 -1
88 1 15.382031606629692 18.176981379091778 2.646624184435386 0 0 1
335 1 21.16049735703199 23.034312105533477 3.3126435630776343 0 0 1
91 1 17.213327045168793 31.8234957534933 10.075119884689581 0 0 1
86 1 22.443287591317688 24.90624010053542 6.809697914479338 0 0 0
61 1 16.972696239262117 18.64484477045553 14.317365314046697 0 0 0
316 1 16.597684444537965 18.392529375120237 5.1376376688804 0 0 1
358 1 20.402811855251354 20.491963406708773 11.914584542202016 0 0 -1
334 1 17.73740043228853 20.504254021827318 11.765648923651606 0 0 0
99 1 16.75137137669029 23.206566369383232 12.521695575649197 0 0 -1
125 1 19.30444510761752 30.241811242355844 15.358791924551573 0 0 -1
92 1 18.864098245987357 33.33583879901978 16.140346565084002 0 0 -1
83 1 19.393961810808925 24.35118191965298 13.556582835307431 0 0 -1
702 1 21.949190976548177 25.32052489650503 9.640423000600956 0 0 -1
100 1 21.06561626987895 23.762178125782665 15.678225144604257 0 0 -1
89 1 17.500571686569536 28.659894993422224 13.42887278947699 0 0 -1
63 1 19.702715023313342 26.94326727295125 12.670780535105855 0 0 -1
123 1 18.79916738222245 30.992965385874054 12.188388351178924 0 0 0
81 1 21.70391989731389 31.453243976654694 12.408012932563604 0 0 0
270 1 22.591764727896138 19.499365745623738 4.265939580858253 0 0 0
579 1 22.093705432472323 27.88065909753432 5.521080840041678 0 0 -1
82 1 16.454735865468095 20.301515432539002 16.657139577753885 0 0 0
550 1 22.68687198029337 29.782903883671466 8.961583545957337 0 0 0
116 1 18.494477510201968 22.11222627995588 16.423585168007353 0 0 -1
76 1 20.137852940366894 20.37521423366526 14.726943645633575 0 0 -1
70 1 16.990013883007077 24.46866081694537 15.210704737391199 0 0 -1
480 1 16.48688892388017 27.751126342605218 2.0002353942745015 0 0 -1
50 1 19.34871320304163 17.919950438022376 14.887633623845657 0 0 0
703 1 18.333579677320287 26.92852444006124 15.54343218607238 0 0 -1
183 1 21.785984583975367 32.00651647596928 17.629812701536636 0 0 -1
97 1 20.606482623093388 25.993017295823254 17.229582022483783 0 0 0
122 1 18.177286353727496 33.675916802287986 13.203328370868203 1 0 0
85 1 22.547991251026428 28.0977290011331 16.655325455492193 0 0 0
539 1 22.11065000363007 19.74729046903066 8.33350589531528 0 0 0
78 1 16.549646994775294 34.246082996691236 10.897873889224051 0 0 -1
118 1 22.89645046591717 26.644829921846764 3.0636928911834858 0 0 0
157 1 22.65105738467918 34.44178392182154 11.741197653697366 0 0 -1
661 1 22.662585178961006 19.304736118480385 17.856536118023893 0 0 -1
79 1 22.866690590003866 21.236372491502102 15.556342126779743 0 0 0
143 1 19.071369236870122 37.842596399869706 1.7016011127320056 0 0 0
172 1 19.943937757866667 35.15387627365502 6.178057244931072 0 0 0
139 1 21.21059645881235 39.481561258907696 1.5254332164836772 0 0 0
182 1 21.604894677421466 40.8793805028856 3.9072655087935115 0 0 -1
191 1 19.975203796595455 46.836988913825216 1.697520641842273 0 0 0
129 1 18.60352349988926 44.85990519619229 3.090816849693756 0 0 0
1082 1 21.727974817076177 51.09217016004588 17.076461575232152 0 0 0
130 1 19.235732394514123 49.80917410310335 16.690327569739562 0 0 0
185 1 17.955412819395992 49.056627008589 1.2253977181595102 0 0 0
179 1 22.62383345339516 47.212140434968674 9.294886953864937 0 0 0
166 1 18.694190853183294 35.57299190962767 3.584404129798992 0 0 0
168 1 21.048039121361104 49.85526385375487 12.46786227268938 0 0 0
160 1 21.44326668441049 35.767738446023785 2.8664812508706596 0 0 0
150 1 21.905569590171705 40.76517405016097 16.612517213831122 0 0 -1
184 1 21.56286994305494 36.96882713486654 7.492930724102607 0 0 0
175 1 21.79496569370987 39.79620080456885 6.637357751005638 0 0 1
132 1 21.06961613160256 43.67014402965353 4.432164754305144 0 0 2
153 1 21.434849712879252 44.705885103744954 7.290790928402161 0 0 0
193 1 20.695343608929402 47.45597335593616 7.243092868343022 0 0 1
803 1 22.393232369004625 49.03127844079363 5.692923470693692 0 0 1
240 1 17.447537303052663 50.57533756976992 5.9447700757446755 0 0 1
849 1 21.559146532581504 46.76174236627551 17.113050196751757 0 0 -1
103 1 18.212575870656593 35.35973850916413 9.076742459630145 0 0 0
69 1 21.359934937599057 34.60835206906404 0.40576055755532425 0 0 -1
684 1 20.38157995239885 36.66766279569731 10.19323417031427 1 0 0
146 1 22.846710322994475 40.653673764787456 9.026279484868098 0 0 0
181 1 21.175829995634118 42.952330578810496 9.676294503341284 0 0 0
177 1 18.550270096146622 49.151653212183376 8.151924723618645 0 0 0
158 1 20.856511599782923 49.91143332322213 9.688722573644826 0 0 0
877 1 22.901001698203775 38.16753668544204 15.434453743562223 0 0 0
165 1 20.04741927075142 35.498647921379316 12.785429822587195 0 0 0
874 1 22.260686377839907 47.61467836447366 3.1082528202511646 0 0 0
152 1 20.045668377173378 37.129058156562294 15.186052685600556 0 0 0
170 1 21.071207536838262 39.47486208388752 10.955641877271555 0 0 0
821 1 20.365139505767054 41.95316529147206 12.341799946815096 0 0 0
148 1 21.86176046503899 46.80755150631959 14.233618424986709 0 0 0
189 1 18.97053568460076 50.58255425074976 3.6930191139033255 0 0 0
147 1 22.124123492680248 44.31547932692746 13.231750716000048 0 0 0
176 1 19.640199329086634 48.09799753744751 14.371067239573588 0 0 0
68 1 19.124075020954898 35.88997517333132 17.372332597398007 0 0 -1
864 1 22.843460866926787 50.98276420129494 8.034888280360649 0 0 1
171 1 19.886565320178867 40.33525360358651 14.689148426571988 0 0 0
746 1 21.476629448515276 51.2623327316738 4.554526141153427 0 0 0
144 1 22.940897575313823 48.108976157902624 12.134504775545794 0 0 -1
757 1 21.920383075964107 52.906695758868665 1.0829841550313146 0 0 0
1089 1 20.61765675101151 55.89926796005005 2.0234420943006866 0 0 1
195 1 20.076019666111105 55.324190438154865 16.48270539515341 0 0 -1
213 1 18.041143785228094 57.33064432192337 1.6051616799595079 0 0 0
192 1 20.975036636576533 58.88217332639811 1.7597048255068906 0 -1 1
204 1 19.057605914387878 65.95561167070798 15.79437284150217 0 0 -1
218 1 19.098764831079723 68.13911706824013 11.559267210518696 0 -1 0
239 1 18.426369668997502 68.51414609282106 2.453485655306311 0 -1 0
201 1 22.065607213098907 67.08687829693666 0.48878598905080967 0 0 0
228 1 19.36873286743042 53.03390656005782 2.0407112608060847 0 -1 1
126 1 20.775183752012484 52.75045962162834 6.686370218022469 0 0 0
226 1 19.528474655849386 54.359994368085175 4.792718902435454 0 0 0
977 1 22.8714477652629 66.71222037462975 3.3444103894905846 0 -1 1
222 1 19.80566741797281 60.73478175298691 6.318807749550965 0 0 1
1175 1 18.56342305649832 64.96533148349283 5.471365022244679 0 0 0
236 1 19.925180060186097 61.08297402235899 3.391605472825807 0 0 1
230 1 17.72614833973079 67.71433508932975 4.909127435496934 0 0 0
1157 1 21.0459095859194 64.45841946811728 3.6984446966328424 0 0 2
3 1 21.96019668330417 66.08362096429458 6.098087485479143 0 -1 0
210 1 20.200290575536712 54.48169918408947 9.252832343251205 0 0 -1
224 1 18.77679888255283 55.789837126861705 6.819032505793256 0 -1 0
225 1 20.51246871190043 58.26039581636846 7.170213032983314 0 0 -1
1020 1 20.86569093123383 58.88587104934563 9.942282071920449 0 0 0
221 1 20.781376485826396 62.573973237648275 7.921060598947978 0 0 -1
1019 1 20.58730058810779 61.395306525048504 10.391309308713895 0 -1 0
208 1 19.00170875501992 65.45369126926182 10.626063110161617 0 0 0
223 1 20.074371927263705 65.12317802724333 7.763148151912593 0 -1 0
237 1 22.90257185550524 62.33894326234289 3.2257498309280037 0 0 1
232 1 19.314143764178894 52.20599451778161 10.830202191584483 0 0 -1
187 1 21.99295143576226 56.060831513550944 4.815303811479084 0 0 1
947 1 21.213237064236242 54.98178263070655 13.728104675453515 0 0 0
209 1 19.178253315124675 59.038662530663515 13.02362861739066 0 0 0
244 1 21.688527546641183 59.20953038488744 14.235977353083268 0 0 -1
190 1 17.364913882311324 63.69921395357097 15.139231581761372 0 0 -1
196 1 16.852103430392663 63.86854486050628 12.432033639509124 0 -1 -1
1060 1 19.722757376681194 61.95794965137717 14.486968641113139 0 -1 0
207 1 18.17818609954892 61.521201904108075 11.891767743533647 0 0 1
194 1 19.278796451250457 63.84474821038965 1.6472802024526874 0 0 0
231 1 20.554675258713058 62.56313797576417 17.47876958427849 0 -1 0
41 1 21.645164510566904 68.75646986263256 10.648912835706762 0 -1 1
214 1 19.18400700258208 52.62844892010811 15.735014185246806 0 0 -1
381 1 22.454434238644705 66.14614044007165 14.22371885354376 0 -1 0
386 1 22.010981384707424 68.78180492637263 14.264534039556656 0 -1 -1
203 1 18.896848729405747 53.877258538185494 13.12722336982894 0 0 0
197 1 22.625758159944553 56.93117365872907 15.198865844458231 0 0 -1
198 1 17.631712880954694 56.62679772853387 16.75935291224759 0 0 -1
205 1 18.554355450714564 59.15361737886585 16.072975707815367 0 -1 0
233 1 21.222111630461043 59.85082970825246 17.121782547061514 0 0 -1
235 1 19.46489486366689 66.49681619234528 0.7836017896682312 0 0 0
234 1 20.52665720541159 64.20660515664531 13.027803027681035 0 -1 -1
202 1 19.276900674116945 68.58606618684875 14.474814254654055 0 0 0
1116 1 22.74868439527627 62.68133696071004 11.486528752425983 0 -1 0
1028 1 21.017815174772124 68.85048928314542 6.6436618504752705 0 0 0
1097 1 22.289787299206008 52.86119135369034 14.9078444931774 0 0 0
1072 1 22.91413829726691 63.00029590476219 6.155733248541427 0 0 0
479 1 25.54945059262342 2.135648001825888 3.604230689378631 0 0 1
425 1 25.92774532642836 2.3531228489771103 17.51833689986788 0 1 0
424 1 28.621846232860378 1.2329408280956369 17.723286217873575 0 0 -1
261 1 30.70605634194701 3.4659392621175633 2.900743484611326 0 0 0
1139 1 32.83883911683431 2.118725464034206 1.9452472903142537 0 0 1
264 1 35.42749366650772 2.2671290125298538 2.7252070562544177 0 0 1
278 1 28.405521003436576 17.034584030325032 8.980371062855783 0 0 0
401 1 39.8965132368807 4.83428534145184 0.20065645725275957 0 0 1
461 1 31.276120238155393 16.45548112804221 15.877431714676783 0 0 -1
10 1 25.6723645006636 5.138087326386424 0.14920478514998692 0 1 2
345 1 27.876886693037278 3.718701037141361 2.06883525382035 0 1 1
271 1 30.369033777680244 4.431829939166547 5.453854308625995 0 0 1
428 1 32.14402695889647 6.0313313890688915 1.8630419408209271 0 0 2
304 1 35.812138827687136 4.575501960555806 4.392465605862129 0 0 1
266 1 37.357305835520506 6.655842347056247 3.245052397140054 0 0 2
331 1 40.80651361305 3.586441216550029 2.544658076976922 0 0 1
350 1 43.03001089057663 5.522345373351955 3.3751771170171136 0 1 1
478 1 44.818038798152216 4.171871789893948 0.9007847292248896 0 0 0
1130 1 33.67993547392376 0.1719866702637386 15.258455448572748 0 1 0
1075 1 38.3663307441226 0.633078888697772 7.603684878540447 0 1 0
453 1 25.589017097295105 11.47032374969835 3.130836753671218 0 0 0
272 1 29.87514690391517 10.126786659646283 0.3667544256846837 0 0 0
469 1 31.021721146794007 8.550359665182516 2.2947873580871505 0 0 0
456 1 30.722142485348474 10.609708809129852 4.319462008061334 0 0 0
408 1 35.31798643079825 9.062640657873237 0.9535441377135401 0 0 2
285 1 33.83153660682373 9.363431287976836 3.2547256766852257 0 0 1
447 1 36.75513955714062 9.021079646710291 4.3498982616174215 0 0 2
423 1 38.30043762504877 8.18709605558699 16.773015561839106 0 0 0
449 1 43.553404653215615 9.746595522073234 2.176631921910747 0 0 1
445 1 34.149851709246725 0.4458357132763751 10.040068667081284 0 0 1
317 1 25.9858398823345 14.181472466248385 2.33424926826156 0 0 0
319 1 33.177013686266775 13.233802737027908 1.2251136060422063 0 0 0
485 1 33.32097703189199 12.096668930232248 3.7701293821786113 0 0 0
292 1 35.86513541538712 11.836103451030377 4.7004246567624115 0 0 0
294 1 35.68843049062232 14.83772994683385 1.3023030944201792 0 0 1
462 1 38.05046417973052 9.768602748520209 1.3112506481087471 0 1 1
460 1 37.690564014796564 13.065272881132495 2.8712640978406134 0 0 -1
1247 1 41.13305435046617 10.548230326749119 1.2078196704185244 0 0 1
369 1 24.684555766058082 16.29779868664709 4.08388830547169 0 0 0
416 1 39.46697914345946 16.20321421431421 16.635011522719626 0 0 0
533 1 29.054412267650797 14.21056739751816 2.645118267841208 0 0 0
534 1 29.17751210718122 16.69260160142386 1.468531396499745 0 0 -1
464 1 35.02264186313157 15.789694272506884 5.695665297277726 0 0 1
1200 1 38.58821475328203 15.694397423795262 3.096417656078165 0 1 1
1088 1 28.429365106553455 1.142308441489818 3.5803876299359176 0 1 1
295 1 40.725363804042686 16.91148834444431 1.597508445268968 0 1 0
537 1 42.89971081587202 14.761861978822802 1.9405543334069506 0 0 1
1240 1 44.84702162779103 16.730919611188916 0.9432106686144627 0 0 1
1424 1 42.173836915065976 0.4596673909813498 11.3891460052033 0 1 -1
1169 1 27.13505359664069 1.038205542250636 6.09691534633205 0 1 0
1031 1 29.566967764507094 3.404203336118794 9.198143939055274 0 0 -1
1023 1 32.35871495769871 1.0535063257715744 4.691031671764526 0 0 0
260 1 31.929309339637804 2.807017577783127 7.136239969944107 0 1 1
322 1 33.793561902886054 4.539996617636218 8.457986120745508 0 1 1
303 1 36.92298236720494 1.6981011769469425 5.298008411307682 0 1 0
306 1 41.449483567109304 2.368424274489294 4.927191506517834 0 0 1
267 1 44.24210385235895 2.4184253905050332 4.786975174778234 0 0 0
366 1 23.94872536937282 12.247598313542785 9.60869276216311 0 0 0
347 1 26.978677969740534 5.701263543450787 4.259146088393082 0 0 2
299 1 24.79588675872625 4.666738912220458 6.708687903855854 0 0 0
262 1 28.154751149097454 3.426287559688085 6.862124477871702 0 0 0
259 1 29.61361131470626 7.080761425909869 6.035498121390801 0 0 1
437 1 33.17781158446161 5.635955724499242 4.398221656317684 0 0 0
275 1 36.280844890721845 3.9054624030886496 7.269609018296123 0 1 1
346 1 40.63254404831437 4.911087888914099 6.307140590163534 0 1 0
1135 1 42.353198779689855 2.8891190249878136 9.298561909959405 0 1 -1
1083 1 39.54853148574512 0.22217904637246821 11.510899325973803 0 0 1
318 1 26.087082365038114 8.890312041438277 7.229780337220874 0 0 0
1431 1 45.75890364435905 1.2762574010462493 7.40976746667512 0 1 0
370 1 28.36856920438542 8.037792416698126 3.5210104039119607 0 1 1
320 1 27.505732375808726 10.229469739667994 4.758410453941532 0 0 1
282 1 31.61404266608545 8.811354887559425 6.4114040011510784 0 0 0
281 1 34.099338612483834 7.895721018225505 5.655881782741326 0 0 1
374 1 37.217043546029714 8.575574271660072 7.007990683876711 0 0 0
340 1 39.4938707189737 10.075831192070993 4.208299756147018 0 0 0
323 1 39.86890883614325 6.073606340618319 3.8613742366946124 0 0 0
448 1 41.79560718697611 8.29821888130924 4.042397958247935 0 0 1
486 1 39.28793553348196 16.285225489538615 5.769611356719597 0 0 1
372 1 28.78047282311698 11.842169585806683 6.711276702369504 0 0 0
341 1 34.88717268380183 13.246705519903681 7.425526965259069 0 0 1
284 1 36.999984873835835 16.443045759302382 7.761055057888529 0 0 1
439 1 40.349891536771764 12.643774434409078 3.706472161825941 0 1 0
1244 1 44.72238892818615 10.885395277672375 4.552190059418989 0 0 0
336 1 25.237645916061787 15.140853112355627 6.798988045735192 0 0 0
247 1 24.795774731845498 5.601939124642405 2.704737518093261 0 0 1
363 1 28.010458928847182 16.148898804810155 6.521133158260032 0 0 1
542 1 29.516056030465396 14.090058725365171 5.455829569319186 0 0 0
48 1 32.592227718854936 14.048703232192672 5.766700892056618 0 0 1
1227 1 45.46008394356708 5.301768063774062 4.61819463558227 0 1 0
483 1 31.43798384812686 16.660782023708492 9.739811638639656 0 0 0
383 1 41.29234199012087 14.447010217595386 5.502871052209616 0 0 1
499 1 36.91800502908391 16.43438107718353 17.00536715250747 0 0 0
253 1 43.98067133174612 13.676516631806177 4.16475884006398 0 0 1
1296 1 44.443688040913514 16.059391189914894 5.42462324219769 0 0 -1
249 1 24.317263173408936 1.7933750508453674 6.465708834676115 0 1 1
1214 1 44.942358038599586 6.2098355937072185 9.840757577338882 0 0 0
344 1 27.117429718596032 3.733011814594113 10.766920539162268 0 0 0
312 1 37.36881890746198 0.1623674949968075 17.398612625672268 0 1 -1
465 1 25.14730164226856 16.414738120145877 0.6955069707697539 0 0 0
1034 1 35.89399073384236 2.7879877025753936 9.977500758343993 0 0 0
1167 1 24.025473007307667 0.9449294075407014 11.900687607554646 0 1 -1
1084 1 39.32740742867132 3.1919064448078664 8.635888968188684 0 0 0
348 1 43.33582587010095 0.48164293938608255 8.56007586255762 0 0 0
277 1 23.265191169034978 11.681579629488674 4.794912635476239 0 0 1
310 1 27.058818084154787 6.237111581258508 7.2759081501331 0 0 1
327 1 27.55048622855426 6.456567731755997 10.153417805040725 0 0 0
313 1 30.348119572650226 7.198728679700657 10.238396940009286 0 0 0
404 1 31.532705223849913 4.503423747932125 10.497768300585253 0 0 0
263 1 35.03207072324601 7.276508441936749 8.830242925829465 0 0 0
315 1 38.24151269959292 6.0114403965445025 7.935941351185635 0 1 1
1425 1 41.5928913709704 4.36998663249126 11.574492473718406 0 0 0
1199 1 42.935942658466935 5.219593064587971 7.935851778886285 0 0 1
993 1 42.497298375029345 6.84209483307867 11.20906561581026 0 0 0
280 1 32.54717761031803 9.133325084743928 9.321147949373438 0 0 1
362 1 34.95411978849373 10.291312259087812 7.669029702745441 0 0 0
409 1 33.61654475528988 10.187732540645053 11.766394235434388 0 1 1
390 1 39.82052282406825 9.693928423673698 7.096408900606853 0 1 0
440 1 40.253221089042434 8.162373207943514 9.613908985176375 0 0 0
1205 1 42.10444855671582 8.179596473697211 6.696185283843092 0 1 0
1030 1 31.87758605433919 0.5014845247223569 8.450377626619604 0 1 0
380 1 26.423180133043417 10.534376932921221 9.691873779717675 0 0 0
360 1 26.681622633948997 13.172399858052556 8.405845201116707 0 1 -1
371 1 28.947959128747186 11.420044673278012 10.764740465758797 0 0 -1
338 1 30.94028358605726 11.419399868315233 8.591343513599504 0 0 0
330 1 30.589017302028996 9.437289801982029 12.269197232037877 0 0 0
293 1 32.35853801460227 13.819041427021832 9.180596909724335 0 1 1
321 1 35.75651925663304 11.26861768321675 10.387006332961105 0 0 0
356 1 39.329344990309586 11.904451288416364 9.157475387481215 0 1 0
592 1 40.39408362893473 10.200058370660352 11.371940455429185 0 0 -1
385 1 43.83465167838161 11.8910276714085 8.851849469411714 0 0 0
403 1 44.14746717674972 9.772699302170214 7.017499508060125 0 1 0
325 1 23.69049309589714 15.915427017125069 8.936656012082016 0 0 0
420 1 23.164742120812758 13.217659769810513 0.4540175359465381 0 0 1
279 1 27.495725310639752 14.901033152461018 10.289188169497166 0 0 1
531 1 31.90366700171842 14.906158760674833 13.291932766275867 0 0 0
689 1 32.093924588817124 16.090300429403875 0.8063210002791521 0 0 0
329 1 34.698255193904046 13.861039401793725 10.94309924775536 0 0 1
535 1 37.28836779089523 14.074188239360478 9.200511874937378 0 0 1
332 1 41.873421045050264 15.458330708221485 10.110992707028206 0 0 1
283 1 41.67530913635906 13.468412025743312 7.882353536588914 0 0 1
686 1 45.32207125818324 16.4453389195774 8.198546702917852 0 0 0
246 1 23.05570622664507 4.206757919435669 4.44443221975819 0 0 0
490 1 43.730748818097766 13.993521236282202 15.543963026018783 0 0 0
1117 1 26.790393134632673 0.8772304862915282 11.72206778418446 0 0 0
1174 1 41.174113762443994 0.3457704060224986 6.731050481951937 0 0 1
458 1 32.6198907230464 0.7903917488977836 12.661781913882143 0 0 0
421 1 25.341932831393116 16.05823876890495 15.505761679579278 0 0 -1
989 1 38.302775408701756 1.6664393496362895 13.825646981772996 0 1 0
1215 1 43.35568609740592 2.516799997035382 12.617776978243896 0 0 1
13 1 25.172949401712305 7.602758636748518 10.507004058905093 0 1 1
394 1 24.733738786920224 4.381529524522481 14.008015917741584 0 0 0
257 1 25.03158231642935 7.502381999110272 13.36537854949349 0 0 -1
1032 1 27.8046130699478 4.612454992485615 13.12126586859847 0 1 -1
361 1 27.46188062604214 7.706619925689507 14.274220947194948 0 0 0
364 1 32.71236814882767 3.666189594535821 13.200620105837233 0 0 1
459 1 31.517324274759684 5.407481488938705 15.14226799602364 0 0 -1
389 1 35.26006019548106 4.638950720976115 12.291631390926472 0 0 -1
399 1 35.66613795953486 7.2081000448459935 11.487177708453995 0 0 -1
1033 1 36.56020644246887 4.412705022724681 14.366625802944347 0 0 -1
354 1 38.53748908888743 3.2774364205964357 11.272540222419419 0 0 1
286 1 40.87005571947406 5.038713647720386 14.453771671038824 0 0 1
300 1 25.49762864202623 10.53652144020088 12.462342998980283 0 0 0
442 1 23.508716276817275 5.782911080204136 16.38589612709319 0 0 0
455 1 28.132247273862227 10.281174858390623 13.564023529457428 0 0 -1
355 1 29.76692774209953 6.306742824759069 12.797159038722365 0 0 0
436 1 34.82168953728369 8.665606434858724 13.710901625922155 0 0 0
413 1 38.67923332233711 6.2250890509633425 10.90937657704052 0 0 1
412 1 36.829422364342726 10.183881491425854 14.809927077285295 0 0 1
349 1 40.155257859283815 9.258775636083483 14.158786112181271 0 0 0
446 1 42.84190805698637 7.331175410677258 13.943943385232393 0 0 0
414 1 44.51945540455674 10.20691364351513 13.390854201099543 0 0 1
298 1 23.358715092649113 7.893566060242766 2.096525036274353 0 1 0
687 1 28.363635601260476 13.314636927629335 13.756780956055325 0 0 0
328 1 25.33112603961543 13.08817456772166 13.15668802226878 0 0 0
382 1 31.42219193578436 11.689697920069882 14.116152332638547 0 0 0
422 1 38.057878418174916 11.225281412698493 12.511007076477513 0 0 0
367 1 38.880349422842436 13.78432019882731 13.523611433118333 0 0 0
357 1 42.62994315442458 11.740153236843613 11.798200470923609 0 0 1
296 1 41.754800671326144 13.453203513879036 13.591316701746335 0 0 -1
337 1 25.39155560593349 15.952296422976724 11.692650546242117 0 0 0
365 1 30.129980892992062 13.94415747499834 11.233257310643392 0 0 2
55 1 23.286039244213445 8.65688018472726 7.172999482675066 0 0 0
407 1 33.75230233029462 12.907387434895501 13.4618054540245 0 0 0
463 1 34.93157297922888 16.337802790323217 12.721563045383743 0 0 0
641 1 39.15074448633946 15.346211405141602 11.344186643252742 0 0 0
699 1 43.205291212835945 15.594868954593794 12.620657449188862 0 0 0
1132 1 24.928466834539144 1.7787826433947302 14.929804337628838 0 0 0
311 1 29.47665753075099 0.6844221597436841 9.862990067899515 0 0 0
396 1 28.983796223812565 1.967765561049082 13.918917088980715 0 0 0
472 1 30.373159785004 2.8045218699619086 16.388642340571415 0 1 0
252 1 33.00379456359217 2.3366979229167417 16.930200152331402 0 1 0
373 1 36.68581837954509 15.27965825253302 14.465935586981175 0 0 0
429 1 37.09914064737583 2.6754937835278496 0.49880362066435646 0 0 2
314 1 39.68991227508256 2.797324989525916 16.18205467163396 0 0 0
188 1 24.46252101422987 0.17105006387905558 1.6682123122426018 0 0 2
1038 1 42.42195302724422 1.8952676813468528 15.325936461220323 0 1 0
400 1 43.640793772926486 1.819595998766591 2.04051167859777 0 0 1