LAMMPS data file via write_data, version 29 Oct 2020, timestep = 50630

2796 atoms
1 atom types

0.0 68.908 xlo xhi
0.0 68.92587069519459 ylo yhi
0.1092386988365579 17.890761301163884 zlo zhi

Masses

1 18.015

Atoms # atomic

1941 1 0.9514346400771923 10.361104374650711 0.9292034985087022 1 0 0
138 1 3.391005771170445 2.5672086760154715 14.87201578531936 0 0 -1
1909 1 1.9062378404520222 2.8869227083931546 17.467489773189605 1 0 -1
845 1 6.830873279798778 0.7803475728540588 1.0640760266819744 0 1 0
515 1 1.054169344692911 15.60077900343597 13.574727762294353 0 0 -1
143 1 22.691926164462487 13.31615005630173 6.202153158627993 0 0 1
1072 1 15.213724472013253 3.640569533356339 3.446806000930445 0 0 0
713 1 12.676113525346683 2.774659326667542 2.908786328947383 0 1 0
156 1 18.84461245794711 2.9799944665522164 4.840574158232701 0 0 0
808 1 21.273997466998352 1.6299319047305547 1.6004361546862083 0 1 2
911 1 3.563117846907668 5.37121505395937 17.418703708178917 0 1 0
36 1 4.3335496092190455 5.813940223670709 2.5110595828218547 0 0 0
728 1 8.058688487859996 6.787240154990882 3.5268837539788125 0 1 1
76 1 16.359758838833482 6.61080246083963 2.331384718401976 0 0 0
433 1 14.076547596954635 6.596473948869087 0.7982976276606222 0 0 0
1933 1 18.701788374398998 5.702418654280294 1.1241349079366658 1 0 0
1735 1 20.535042607783108 3.9297797618045274 2.722648125824074 0 1 1
782 1 6.100004438341189 10.7390746758957 17.846921619185423 0 1 -1
891 1 6.191951522788594 9.363966818038158 5.01199442973851 0 1 -1
8 1 6.53486909096256 6.6327377088568396 1.0271482546416006 0 0 1
83 1 10.334996316297982 7.259378949965091 2.430612397589296 0 0 1
54 1 12.855592253374533 6.002286137701696 3.1836930295814807 0 0 1
197 1 14.758362527851784 10.466329644767319 2.2477924157762463 0 0 1
193 1 12.70139477130541 10.000582206538498 4.398274355274508 0 0 0
1365 1 17.203768299465153 9.247815708104893 2.0913474186145162 0 0 0
893 1 10.402211942606222 0.05732309007338149 16.299230622937827 0 1 -1
308 1 20.97375946198707 8.353436073818111 4.787812689382852 0 0 1
66 1 3.5290813745540324 12.220394867977959 2.54362280929665 0 0 0
1915 1 3.7349524159562177 14.9113243607388 1.1940507107711393 1 0 0
91 1 6.314077497392944 11.239653976668869 2.849336470549709 0 0 0
414 1 8.49173924397412 12.809569615652862 2.318906867060857 0 0 1
3 1 9.984784229399775 14.049202415625466 4.1410214793219255 0 0 0
229 1 12.209731224134991 12.96016391056177 5.654874712366664 0 0 1
114 1 10.464803480397459 11.27321261275946 1.3130795439939158 0 0 1
186 1 15.160624809468377 12.246434853842814 4.594652881036815 0 0 0
133 1 19.358443630522544 10.291304383715195 3.402112904536813 0 0 1
944 1 21.158188945440667 11.611322266515748 2.0712915472535647 0 0 0
2636 1 22.407601104370283 6.981582124122862 8.762464395016819 1 1 0
727 1 3.162838837093718 0.506689791776267 7.201651668415204 0 1 -1
250 1 1.7781417909135686 16.315596183031246 2.711444500884677 0 0 0
286 1 6.347135418006085 15.961492866307106 1.7113341229076295 0 0 0
235 1 11.771306853508559 15.326058612373194 2.3718801968631342 0 0 1
1007 1 14.3587298807459 14.955655968454098 4.207896374794203 0 0 0
175 1 22.60681975134544 10.001246661268974 13.894379277969188 0 0 0
309 1 18.005210167409835 11.812711977014844 5.576203301810928 0 0 1
1278 1 18.629550331705683 14.73900180905441 3.723545295208526 0 0 0
2670 1 2.033850919192822 3.6550210647480417 3.0492760736509807 1 1 0
2048 1 1.442000556728161 7.656680398749419 1.3993779372276196 1 0 1
2720 1 6.0721131521869465 3.3699672709911535 2.2927677505610964 1 1 1
714 1 6.390201056315324 4.3267415231256265 6.776209733899007 0 1 0
2617 1 4.188937859358015 1.5408316468440666 3.3823348652483936 1 1 0
70 1 9.879858392188721 1.1867698935876871 5.088026751033331 0 0 1
134 1 0.30134142466748287 5.202930012857993 10.906788287517028 0 0 0
136 1 18.96509239391507 1.163224499245353 6.710323086924166 0 0 1
171 1 16.401897896775626 14.122528664306717 0.14944556388014973 0 0 2
1268 1 22.080951792849586 15.930893965454016 2.4420294924949433 0 0 1
419 1 3.5165215046357168 4.3738743523795 5.580739441874811 0 0 1
1951 1 2.990680702968103 6.712893318856377 6.4541692078427895 1 0 0
817 1 7.930898532983211 4.3469472208780395 4.439562047840476 0 1 0
12 1 8.359500964274345 7.929300317936895 6.388792113349994 0 0 0
190 1 10.623426052883131 3.815914554373695 4.700662145020496 0 0 0
80 1 10.742352596717136 4.810373644387774 7.356964616337194 0 0 1
1920 1 13.309025250259422 4.259400819890628 9.19176180614916 1 0 1
97 1 16.42211475460989 3.790103592777673 5.9579163333531735 0 0 0
1931 1 18.071805064187267 4.371957978194589 9.763578752370737 1 0 1
158 1 17.583632984711457 5.840911457567413 7.297577005684331 0 0 0
4 1 20.030966871874462 5.743494771992857 5.358030489142081 0 0 0
168 1 21.804431936443848 4.663068329790792 7.440385220398043 0 0 0
406 1 2.159594821029949 9.872974206535302 3.806112026056447 0 0 0
807 1 0.4062992397799756 7.860774529441308 6.099670039119599 0 1 0
181 1 3.8071447642643856 7.762570463088256 4.266301612245306 0 0 1
411 1 9.14019300307839 10.54609817582086 6.089526605664674 0 0 0
65 1 12.170873056737138 10.743922620234013 7.380805828086159 0 0 1
19 1 13.70168316116926 7.346654220665149 5.463787497890719 0 0 0
2034 1 15.613395404420146 8.24447150602923 7.55200041981846 1 0 1
176 1 21.439771870282318 9.334386432932831 7.296537161267944 0 0 0
77 1 3.9484952849338035 11.032256977450155 5.849417665605334 0 0 1
51 1 7.004788474656263 12.34103155986006 6.498811935423625 0 0 1
2116 1 10.1714601348422 9.649254805977911 3.649842476771231 1 0 1
22 1 12.534240378990255 14.76471736898267 7.891236591457484 0 0 0
72 1 14.978152249958598 11.078129450453247 7.3884735615564905 0 0 0
82 1 17.065107768152103 14.009935985086225 8.036306596259017 0 0 1
958 1 19.928191696430996 13.7102881389806 7.15079438089896 0 0 0
2345 1 0.8749408712472821 13.443844770697837 4.859090654226788 1 0 0
2087 1 3.975531576260538 13.762247607187598 5.420046165751047 1 0 0
228 1 5.409890227354244 15.910708350527383 4.296800273960236 0 0 0
2100 1 8.148372526932224 15.863334369194256 5.149934410660635 1 0 1
68 1 7.852578336578629 14.998993890463076 7.602944670056843 0 0 1
827 1 7.559768003295142 0.3678912476349977 6.978704880940601 0 1 0
184 1 13.00999399009999 16.70654353219707 5.740773754443178 0 0 0
221 1 20.337520550837176 16.717658699637497 4.41693804721799 0 0 0
109 1 16.382152229357082 15.961286641803062 2.5064148890032056 0 0 0
1095 1 16.693322219534053 15.22669127120589 5.937174921098804 0 0 0
2016 1 1.6032935799670245 14.07735522043952 17.334987753281332 1 0 -1
2098 1 1.73597734649661 2.969037385999268 7.424470098495589 1 0 -1
1262 1 15.25255642917035 16.72409461070101 15.369924999511897 0 0 0
796 1 0.6399168760952803 2.3391546554577882 11.367968157552903 0 1 -1
318 1 9.796455030355478 15.519501339273805 16.611334174599484 0 0 0
131 1 22.792409623621214 13.418064285898163 3.359694571662143 0 0 1
2584 1 7.07725940924787 2.5644016880581693 8.993170403240995 1 1 0
1839 1 12.619595721738557 0.9294414299234911 7.728396952847412 0 1 0
117 1 9.858153742357848 1.949593628951309 8.629947013264065 0 0 0
89 1 18.915302493673266 13.191010393897937 1.3532512966520247 0 0 0
217 1 14.956395571937424 2.5954973076544006 8.088000614447045 0 0 0
73 1 16.44291830426411 2.0552805649666097 10.335567532697903 0 0 0
107 1 20.01787078096403 1.6279223749550855 12.71217694571255 0 0 1
397 1 20.689550701095694 15.056391760634213 0.12352501242124703 0 0 1
1107 1 20.603044315619947 3.697782598161208 9.577720850753645 0 0 1
17 1 6.484612338996662 6.727394211197271 7.905208946926456 0 0 0
122 1 6.926089248866668 5.1114565646160575 10.53847998949224 0 0 0
230 1 11.255826822625648 7.738709548949176 7.165971472219844 0 0 1
828 1 13.823877246816739 4.962185149467665 11.992075068937737 0 1 0
900 1 18.847194219857826 7.044287509976418 10.674214615877071 0 1 -1
112 1 21.86785371690883 3.576442307779541 12.15636360286833 0 0 1
127 1 1.9376005464276278 10.37048177018407 7.596380673722455 0 0 0
2007 1 1.324289674063759 8.612868780473308 9.875439401928244 1 0 -1
63 1 3.6939231204297096 7.359031716762662 9.153419859619001 0 0 1
2054 1 5.52138126448567 9.259615558449696 10.604305528777948 1 0 0
430 1 8.097180742636565 7.733047146034239 10.8243250290707 0 0 0
205 1 10.746865818747658 8.60905781299873 9.877599388183908 0 0 0
1960 1 13.527734685409742 7.007704236259667 8.963922172151664 1 0 0
320 1 14.851255056150451 8.259908834301937 11.095325566029754 0 0 0
223 1 19.323001394135524 10.942595414298168 8.122184160619923 0 0 0
398 1 17.637682186492828 9.482325377226582 9.484480956347348 0 0 0
324 1 7.5889087781802305 14.257608962560305 0.1420661783512216 0 0 0
2124 1 3.496745809823342 12.66546844418494 9.00873028855138 1 0 0
236 1 6.204743217761167 11.448669361633561 9.088622190422381 0 0 0
113 1 7.106299316357023 13.01581486099894 11.35103725182349 0 0 -1
772 1 11.639724670576548 11.18388045601718 10.129104221007085 0 1 -1
700 1 14.558345695456984 12.943519875758891 9.421367938381758 0 1 0
1805 1 14.269934246118323 10.942441128553446 11.896988306493986 0 1 1
48 1 17.325298547320255 16.016878986167125 9.81573148390783 0 0 0
258 1 3.6614480115639383 14.938135884376031 7.756493659135285 0 0 0
2794 1 1.1060349430578222 16.22997772510431 7.374700727598583 1 1 1
350 1 5.862606392214331 16.472160821826428 8.466509453696444 0 0 0
2066 1 6.261422960001423 15.593824030609548 11.061674855620868 1 0 0
203 1 10.107088793586987 15.294825744421724 9.16196714270058 0 0 1
1219 1 18.126090022311313 14.750589354276835 15.510294695515938 0 0 0
144 1 10.131435646297676 16.67440020937566 13.838826843458843 0 0 0
895 1 20.797089974804816 1.2214646992334157 8.586682324864247 0 1 0
29 1 14.453891611838651 15.865216250171434 9.757626898674397 0 0 0
1905 1 4.911000436330487 15.758587738720072 14.860206258794904 1 0 -1
1060 1 20.927583063704084 14.972953153639182 9.550730357660857 0 0 0
53 1 22.44495851471155 8.144627856909567 16.15293820094444 0 0 0
2651 1 2.9462930701001753 3.1847676325249124 9.94904033752463 1 1 -1
2647 1 2.992106237271764 0.5202740049374712 12.639586641751722 1 1 0
2649 1 4.826955097605881 1.0397004460910755 9.802321473878706 1 1 0
764 1 6.047220782717776 1.7150657804199796 12.220997065475181 0 1 0
708 1 8.23540272405419 3.152163598250216 13.866706526052445 0 1 0
837 1 11.367268925175875 2.961680361910393 10.972165029633029 0 1 0
889 1 13.540380529877215 3.506136274644382 14.518270184853336 0 1 0
151 1 14.036181346342435 1.6659019910894757 11.723430146689541 0 0 0
1837 1 17.304656359965655 2.6237318645860417 13.150773632450015 0 1 0
835 1 2.8267757259666206 5.803564527071996 11.240013756917524 0 1 -1
220 1 1.74276018787168 7.343520698611003 13.779805618173835 0 0 -1
155 1 5.067588431754105 4.470084298162635 12.650231889614917 0 0 0
2786 1 11.175945780642689 6.16107259542213 14.782980956804325 1 1 0
1898 1 9.524317807053913 5.021055311392106 12.099352560885475 1 0 -1
38 1 16.544203875799326 5.313926878476119 12.209779409166417 0 0 0
722 1 18.347342619764934 6.659752081973176 15.185937756230446 0 1 0
24 1 21.563293048468047 6.4860643585151525 11.63247023431191 0 0 1
118 1 19.456657576119568 8.29022207741754 13.208849636695097 0 0 0
78 1 9.84791491001748 1.2963794871443735 12.811764881551971 0 0 0
1856 1 5.0010935289261464 9.301036422550462 13.301560312609494 1 0 0
2029 1 8.88099537093666 7.699566750411747 13.728949509728928 1 0 0
1949 1 11.755645947825395 6.904468686237636 11.767408988126558 1 0 -1
233 1 12.894137105537657 10.726963364151176 14.428931207929372 0 0 0
39 1 15.803483902698327 7.297759771604032 14.15672169101341 0 0 0
196 1 17.374154694218838 10.58419760631442 12.178995625709492 0 0 0
383 1 1.3478025410205718 11.27803142087183 10.879515380498576 0 0 -1
855 1 3.8782599361869203 12.366199469589485 12.326246383844085 0 1 0
146 1 6.676400611581227 11.619896664730044 13.932118667016965 0 0 0
1939 1 9.870861360742763 13.270191903696725 10.924441832192326 1 0 1
98 1 9.116226313578577 10.4263670289108 15.046451312655089 0 0 0
62 1 11.074485941966628 14.425718196602146 13.08433090378715 0 0 0
1070 1 15.426620373670813 14.055417972429396 14.052942093743653 0 0 0
1277 1 16.631499699922752 13.37260078014202 11.630212052298054 0 0 0
170 1 21.42325689609197 11.892106486306327 10.282813223629988 0 0 0
1208 1 20.424933573760164 11.424727185018037 12.964498435816333 0 0 0
371 1 1.60772387474841 15.909605486909197 10.185480396278395 0 0 -1
1088 1 22.309517351390063 5.618178486890243 14.666393262145004 0 0 0
2222 1 3.848498186450085 15.016738041950052 12.419052058064924 1 0 1
2604 1 5.455879615987323 0.33783550647613747 5.408694751850537 1 1 -1
1940 1 13.420001881073322 15.311317893348008 12.383907624188089 1 0 0
43 1 2.3819886979473948 16.35338540964627 16.10872012756569 0 0 -1
272 1 19.053513355000216 14.94327938632823 11.831595534851731 0 0 0
1376 1 20.759718672643448 13.829826296717505 14.536183737820414 0 0 0
130 1 16.983242664098 1.569919197795462 2.9123655388745426 0 0 0
1942 1 7.757283194371543 1.4707590233996704 16.380303086340078 1 0 0
786 1 13.947072773520215 1.2919707697254252 0.22045084432095763 0 1 1
84 1 11.040678193054394 2.592382554830151 15.375673751138148 0 0 -1
125 1 16.528051142836617 1.4587020298936944 17.877582724759083 0 0 -1
442 1 14.397907990838224 16.282492908861716 17.869714515494834 0 0 0
928 1 15.032790307047504 1.016829909653826 14.542550155428211 0 0 0
108 1 22.20587722015677 13.004635493189637 16.708517369324007 0 0 0
747 1 20.98247517982435 2.108234352031441 16.72795909234852 0 1 0
2678 1 0.8065490944610755 4.422048975342666 15.267578044211565 1 1 -1
707 1 5.584928566252424 4.5060431083437855 15.599264806571927 0 1 -1
149 1 9.803473491505649 4.50948114464633 17.03878957781248 0 0 0
150 1 7.250575079769736 4.237394545805799 17.514107880473873 0 0 0
1961 1 12.624200782796011 3.84305380350153 0.32677305200789997 1 0 0
165 1 14.796911604794172 5.283550292809157 16.13995795963789 0 0 0
99 1 17.086219129561474 4.025396304303688 16.828368144610877 0 0 1
135 1 19.76553172353951 7.684787377728146 17.538621040217777 0 0 -1
79 1 19.574250931474737 4.22022285510196 14.814102814153918 0 0 -1
1880 1 2.8672760927011574 8.008503590306013 16.799046919691 1 0 0
1893 1 2.572090534701064 10.13155208499451 14.531610972568126 1 0 0
763 1 5.547989694829613 8.362864973219958 16.913885325522983 0 1 -1
1953 1 6.417362006060303 6.904498229349917 14.534320611595138 1 0 0
762 1 12.950713376212661 8.83734027955265 17.83950038550785 0 1 0
2631 1 13.168038322392894 8.151648494447599 15.125606671560421 1 1 -1
709 1 10.436994122248606 7.412226405020217 17.38537580619915 0 1 0
214 1 17.169558399961282 10.12879544565862 14.906421598804895 0 0 0
42 1 18.37838121850776 10.2779112290293 17.459820170337075 0 0 0
188 1 21.16066932719314 10.705462246839028 17.2605537835121 0 0 -1
152 1 3.1749221292984706 11.231424380588685 17.33963666689896 0 0 0
2002 1 5.458851223164275 13.28425014387228 16.289007462766456 1 0 -1
1972 1 8.730610566766096 9.853507788281076 17.540664686193075 1 0 0
103 1 10.824598728428443 12.53879135055826 15.151791516935223 0 0 0
279 1 11.639154861244425 13.615774848418633 17.720460358579075 0 0 0
271 1 14.454517631846507 12.472707299581508 0.34489174396449174 0 0 1
360 1 15.08696365215924 11.702009833982597 15.653400555122248 0 0 -1
201 1 16.231531710475874 0.047882126403479774 6.761921052551418 0 0 0
2721 1 5.897665881998965 0.3814887357573406 14.840430475329981 1 1 -1
9 1 22.896412849655494 0.2835011954679445 11.860435284144296 0 0 0
212 1 22.915039134566477 9.236937596878292 3.058380140509582 0 0 0
1066 1 20.992526583931674 0.020167157047197293 14.845140895630681 0 0 1
536 1 1.5000096952478619 19.55810292630423 2.9893001245560424 0 0 1
913 1 10.700169811999482 19.93091469294017 1.0864762201436748 0 1 1
207 1 12.274105957778062 20.708700063590197 5.093697665035909 0 0 0
32 1 15.347387623867316 19.051362384566378 0.7677557384232289 0 0 0
408 1 14.289875649194814 20.815459769963297 16.69766024237144 0 0 0
1147 1 18.14860458455279 19.21683484091109 0.9223381578883665 0 0 0
1308 1 1.0488422124701877 26.998889578354962 14.97454336981948 0 0 1
166 1 0.777689414271232 18.9530063298927 10.622911069238985 0 0 0
255 1 2.140310410898475 23.460717081261482 17.60145921796567 0 0 0
643 1 2.9618636768405735 21.639406114915776 1.9556274666944156 0 0 1
34 1 6.651915498090404 24.808891229740045 1.9360521352080498 0 0 0
358 1 5.379778057213535 22.721739117975403 3.3182514065166875 0 0 1
251 1 12.022829747526593 22.18611278504901 2.3994402446530905 0 0 1
2169 1 11.506749446318404 24.807342791919428 4.25975084248152 1 0 0
315 1 14.810397890538512 21.2676288884824 2.6383380907681295 0 0 1
1275 1 18.411929543739504 22.11204581836716 4.23063638754724 0 0 1
384 1 18.925404494905127 21.817611924699516 1.3364531969817577 0 0 1
1167 1 21.515839647570864 22.649658686941617 0.17835564019512976 0 0 0
338 1 3.582413007985476 24.570468439705966 4.163706487512703 0 0 0
690 1 1.1530972508309119 24.423167340314574 2.6626863413886195 0 0 0
381 1 3.0343435157393666 26.098732447431047 0.14653353401625419 0 0 0
366 1 11.161517206583282 25.898685594450754 1.0213856604236808 0 0 1
274 1 9.202046387593688 26.328861332708502 3.279404324169268 0 0 0
409 1 13.605088375777735 26.87786146714021 1.4925950769875078 0 0 1
167 1 14.003955226951915 23.477367140172333 0.48403540989922156 0 0 0
58 1 16.439630827617158 23.801705184896264 3.0115530187277963 0 0 0
75 1 16.857222119686618 29.280874461438394 0.4150894595396841 0 0 1
160 1 20.952014913692633 23.634006858670745 4.377559735452721 0 0 0
307 1 4.9718406970161535 30.60727302966562 1.1659954369971548 0 0 1
421 1 6.438449231023547 28.11680288014772 1.8043224556722794 0 0 0
2194 1 10.331764699320935 30.577837454908064 3.045932969080633 1 0 1
153 1 12.248203230563092 29.545716398468805 1.242420686252178 0 0 0
630 1 14.211313013416286 31.088328721139792 0.324462031492871 0 0 0
434 1 20.29430644707631 31.69135227702185 3.794892625303414 0 0 -1
298 1 18.743101539426096 27.654071467289338 2.3004157873453903 0 0 1
2280 1 2.4287922342047352 31.432979588169605 2.343322702739521 1 0 0
486 1 0.14794372621272467 30.58590730761885 12.99989453156908 0 0 -1
598 1 6.8611698768684155 32.79258237790872 1.0506969284680299 0 0 0
292 1 8.765182609815925 32.96409307636655 3.2200184568711765 0 0 0
453 1 15.100632230934801 32.72242526136073 2.992968177432738 0 0 0
276 1 10.643200262220603 19.90829872778061 7.226470366499691 0 0 -1
435 1 2.271215238172949 33.87408754666436 3.428236815677872 0 0 1
432 1 0.9301802867043638 20.54982233600173 6.526887397179226 0 0 0
349 1 22.75024464464068 34.21889705055429 5.176625361966594 0 0 0
2036 1 6.167031096853889 20.01696011200402 2.807672773741853 1 0 0
283 1 4.816164040339562 18.545560396372007 4.8168518958162725 0 0 1
341 1 8.83206072845469 20.238379522203225 3.114430067565511 0 0 0
204 1 11.844127702268974 18.24888129490502 3.578085571362237 0 0 0
1509 1 16.81885589977287 19.647516814582577 5.440455726605562 0 0 -1
116 1 6.121609153651269 18.20353672140593 14.949713076429711 0 0 -1
1139 1 20.66900075225384 17.331928374297355 7.330892348781434 0 0 0
290 1 2.140825347924036 22.827678235562885 8.249435294742804 0 0 -1
2204 1 5.2191677811734145 22.723668689120533 7.637865986721118 1 0 1
2137 1 9.848426051101038 22.401677527445823 5.107808381953519 1 0 1
395 1 6.9661106199347875 23.15124218470533 5.414115174711168 0 0 1
402 1 14.772565901710408 22.25052989983449 5.449409539200286 0 0 0
87 1 17.5833572825827 23.22830092323812 6.68363175833196 0 0 1
59 1 19.02971431424204 18.87835569814064 3.553981833361474 0 0 0
1274 1 20.869515893134356 22.14214075494628 7.209450182714056 0 0 -1
600 1 21.33628096681342 20.66495074173545 4.191771971989925 0 0 0
2307 1 0.9069818174147517 25.944684148674156 8.065532266684407 1 0 0
351 1 3.415789019206176 25.197514283516494 6.945597290011662 0 0 1
541 1 5.345478493592728 27.146818133772715 7.3505237643028405 0 0 0
2394 1 6.772720793604454 26.017683793072184 4.866768330886488 1 0 1
2024 1 14.074810815444502 25.012271199578432 3.5670876941744476 1 0 0
354 1 14.50735247459057 24.56097629170461 6.898325256878635 0 0 0
313 1 15.48979627833372 26.692644902130358 5.385488890753673 0 0 0
241 1 17.919597166743962 26.07007194314964 4.214261337159096 0 0 0
2253 1 20.863604362893827 27.74034050123591 4.705399607968339 1 0 0
387 1 17.883366221845673 32.810260537946895 10.394858300197965 0 0 0
2138 1 2.3988221490766293 29.18453592121872 4.156657165739963 1 0 0
284 1 0.6019372801629189 29.953306045453203 6.17507651683001 0 0 0
2179 1 3.9523098591639116 27.078621122564314 2.691532816197599 1 0 0
431 1 8.083349170980155 29.15215608540133 3.7391676188346255 0 0 1
314 1 8.631743613632915 27.903669398089043 6.715101683436895 0 0 0
344 1 11.782084581004591 25.045492097994966 7.237192888279666 0 0 0
303 1 16.284824821430135 30.0332701860853 3.2670175227747515 0 0 0
1980 1 18.30355720660216 30.873603861607588 7.943742228136144 1 0 0
256 1 18.469095554882664 29.874197799305378 5.124526157667965 0 0 0
508 1 10.074799476743685 33.86770060149468 17.883927573593105 0 0 0
429 1 1.7233336180094163 33.1004558569624 5.855839578390397 0 0 1
682 1 2.6357459320493164 31.873323749708447 8.265436677482228 0 0 0
1367 1 7.353253361557426 30.4682665169629 6.095964997754238 0 0 1
646 1 9.022307816208702 33.88275632510052 8.518674970240127 0 0 -1
473 1 7.562299222157329 33.43977836602277 5.80367202081217 0 0 -1
452 1 12.405123674176103 30.477344384498743 4.632772544242958 0 0 -1
329 1 14.10975909706058 28.589836392118748 3.8133009070073456 0 0 0
446 1 13.920722142280349 32.757343020374265 5.579338574976008 0 0 0
259 1 16.623228580939724 32.22421744002297 5.919259849883662 0 0 1
316 1 0.27311157671800557 21.48081962733207 11.711273267886428 0 0 0
1092 1 21.7068047349378 30.493873431362903 6.098377217671019 0 0 1
2248 1 3.2013091464477967 19.769701035165866 8.786007207789675 1 0 0
49 1 13.094399656106075 18.080182360647743 8.320317645807814 0 0 0
322 1 5.737423657100871 18.95316189075375 7.382936612287073 0 0 0
364 1 8.05964368405384 19.437496436618133 8.551715725171219 0 0 1
244 1 12.196091643808414 18.854818922467935 10.851214023122324 0 0 0
1082 1 14.643394443894886 20.251923890225775 7.648830062554983 0 0 1
441 1 17.03120293479992 19.76287723438659 9.177409933848901 0 0 1
2170 1 1.1808275170325817 17.86276650257724 0.5407183992612934 1 0 1
1260 1 21.082521597865025 20.6898096800594 10.073858929200734 0 0 1
240 1 6.853351065057751 23.927800691104675 9.74970850273659 0 0 0
249 1 8.660076112506074 21.970193595622785 10.47472500776627 0 0 0
275 1 10.929443987323948 22.314576336053687 8.688586024978077 0 0 0
1047 1 13.193572297421861 21.310240504722703 9.908278189770748 0 0 1
1341 1 18.572583331660674 21.968884920405714 8.832023916116336 0 0 -1
1348 1 19.537049954893003 25.639653624865012 6.36728957905583 0 0 -1
266 1 18.63975243367895 31.927413590624273 17.642071422859765 0 0 -1
1333 1 1.1950003352280636 25.78374700548247 11.004980000312136 0 0 0
30 1 5.606117115408718 25.0674805548321 12.288043186881174 0 0 -1
304 1 8.606741101163223 24.685962866349097 7.2382397540013494 0 0 1
1979 1 10.373127840120675 24.664466635480853 10.268809859971016 1 0 -1
1855 1 13.91116867809929 24.610788455259367 10.15922896090165 1 0 -1
367 1 12.582710891919021 26.757113610933242 11.195692617203186 0 0 0
92 1 22.23498646663584 24.617096418584673 7.437789111178125 0 0 0
1489 1 22.202084412069595 24.450879084073645 10.05507561568859 0 0 0
2569 1 1.4373972350518438 28.75875902167361 8.853163993409876 1 0 -1
1592 1 6.59214181737626 26.87294411118268 10.043371530197657 0 0 0
1588 1 4.535397437520648 29.77294558780441 6.246120796001237 0 0 1
487 1 10.969846415208057 29.41025787754396 6.767077476016231 0 0 0
226 1 9.19021271844858 27.325680145657063 9.759879428636003 0 0 0
257 1 12.261055485238682 27.604226195621678 8.32069748017624 0 0 0
1180 1 21.94973256323614 27.748195297627515 7.338867960858644 0 0 -1
372 1 14.99285541815346 28.1079285877797 8.193409651194711 0 0 1
1384 1 20.930414275980265 30.665996850879804 9.144434912159586 0 0 0
546 1 3.7812312068609484 31.512285271654033 11.748085096992188 0 0 -1
291 1 5.214095949747323 30.833292135029325 9.232286663340673 0 0 0
302 1 7.147408481995291 32.69335204258045 10.2994873953448 0 0 0
361 1 9.815011813824295 31.225147128482877 10.490354673916595 0 0 -1
174 1 22.849319091156808 20.5687501416058 1.9482729691762763 0 0 1
261 1 11.674020723950699 31.466039819950097 8.431394561282154 0 0 0
287 1 14.240589375821223 30.653956448756258 8.856707013526702 0 0 0
1602 1 21.472716577353168 18.08334908337215 10.636466449268042 0 0 -1
671 1 1.0502850668601365 32.392221366993844 10.74800186859769 0 0 0
396 1 19.76332543546546 33.658266898798566 8.319309887759374 0 0 0
549 1 0.15003680203749598 27.313281341716994 2.722842614066791 0 0 0
105 1 4.103397368393091 17.86692307905261 10.874373505419427 0 0 -1
177 1 6.578222363357891 19.540687879071083 10.995696245554765 0 0 0
2319 1 3.656442712495769 18.745490114550936 13.557992495226326 1 0 0
194 1 21.816335584470206 19.304376537637356 13.982669231242078 0 0 -1
2030 1 8.905998395030661 19.80142093156534 14.733211939852012 1 0 0
416 1 16.331712115849086 19.103754038638062 11.61111470752881 0 0 0
1266 1 19.828755315057922 20.474418726638454 12.758051111877137 0 0 -1
331 1 2.2084495780954336 18.444993708614707 5.424908297174101 0 0 1
472 1 12.735102536165204 33.70852143849603 15.187338802018791 0 0 -1
340 1 9.585146823164242 17.739893037614912 10.268704032751167 0 0 1
567 1 1.2706466997876094 22.391368623962695 14.48123129764626 0 0 -1
404 1 4.557245296079934 21.82836040067835 10.310773151777889 0 0 0
424 1 4.796523337132101 21.346899377835598 13.44112177372729 0 0 0
224 1 7.600212035890304 21.559072072518628 13.12251763185152 0 0 0
231 1 12.36789007073764 22.380371749897538 14.385939868906009 0 0 -1
393 1 14.154496282297568 22.81258416004402 12.214025319177914 0 0 0
377 1 16.577109307791872 21.370351102631076 13.136494732492539 0 0 0
1340 1 18.183184113143763 23.206929608572686 11.38592544622888 0 0 -1
410 1 18.938504799178922 22.971822053055718 14.47051967911574 0 0 -1
1447 1 21.67000554409302 22.12449186637707 15.223742885263999 0 0 0
157 1 12.01703603674738 17.74730594229254 17.344019809008692 0 0 0
2325 1 3.3982894268458557 26.801615765117763 13.024284605657865 1 0 1
394 1 2.8360811234119607 23.704728047933454 12.288159435475631 0 0 0
551 1 7.296497066060251 24.264064179853087 14.274653351753775 0 0 0
202 1 9.98657483411313 23.678189698495274 12.840257179731076 0 0 0
260 1 9.975818328113009 25.393770681528434 15.082950047674414 0 0 0
1287 1 16.40053352377797 25.232824549321155 11.355984421797288 0 0 0
1152 1 19.18761239899905 27.080787597687642 8.769395334367843 0 0 1
1319 1 19.783570999217844 25.271342350754225 10.756962819705828 0 0 -1
672 1 15.959807087351184 34.319572671240714 14.072428599721986 0 0 -1
531 1 2.7060447838590465 29.719910756355873 13.399497305142539 0 0 0
673 1 3.9620802755432303 28.344365920189468 10.555519158358623 0 0 0
498 1 7.171768548816103 27.366398853803428 15.484590098779352 0 0 0
524 1 7.192100110714447 29.188284842079142 13.51471791387507 0 0 0
545 1 11.279093201398856 27.64016493288731 13.823829366116662 0 0 0
262 1 9.528708709367347 29.060756925544904 12.081008120267853 0 0 0
1169 1 16.56861426984578 28.033280468916896 10.556388075501703 0 0 0
1473 1 14.521410149516933 28.036699181717946 12.81112440500143 0 0 -1
295 1 19.588798360465866 29.20604410013424 11.047404614991375 0 0 0
482 1 20.47147578625504 27.156511096902864 12.619139173593272 0 0 1
363 1 21.70688527440993 32.48242816824139 11.58361686317369 0 0 1
1383 1 22.302476242888538 25.97033600670706 3.0749029434952235 0 0 0
370 1 8.75183597778061 33.58399814911512 14.390893523820639 0 0 0
326 1 4.547662454368423 33.22757171131502 13.789317798842028 0 0 -1
388 1 12.9420742913469 17.82425224037553 13.447640131404947 0 0 -1
518 1 10.74955499844957 32.94021516253462 12.55099904467886 0 0 0
1193 1 18.73347922534184 17.97038222201672 12.399120101185993 0 0 0
695 1 14.295916637665904 30.6065964401053 11.529674656313722 0 0 0
1530 1 16.859871720142465 31.869951182775466 15.092210165970435 0 0 -2
1352 1 17.296984534987494 30.731504429530304 12.208002848373702 0 0 0
1321 1 19.5651359731047 32.29750504857347 13.196616786831319 0 0 0
28 1 1.5307998021330074 19.57222956914247 15.141037733675764 0 0 0
1857 1 5.986592360055205 18.421614225923065 0.4033291634861479 1 0 1
328 1 21.72837922023294 32.45459201983622 15.250043929891616 0 0 -1
426 1 11.926002793446195 19.69424335076764 14.919587309830906 0 0 0
624 1 15.672597294909563 32.98955685188349 8.51234643630204 0 0 0
1891 1 16.20172865438601 19.963016549387316 15.290475742883734 1 0 -1
206 1 18.06824454375026 17.624207219085523 15.085131611405101 0 0 -1
141 1 19.597227076341678 17.84359449741239 17.16465600033429 0 0 0
243 1 4.090989663910282 22.089500795516706 15.982809876091691 0 0 -1
215 1 15.01618497679736 18.374597251062482 3.78289755255099 0 0 0
347 1 3.4651276423194517 19.72142257836759 17.800417649454076 0 0 0
128 1 8.336449793447626 20.062511685900372 17.228574301651122 0 0 -1
294 1 7.980525649462935 22.995703334784036 17.769931399527202 0 0 0
449 1 17.36954303962632 22.21620859523248 16.72332250301814 0 0 0
356 1 17.03128971249915 24.62973308937374 0.303932384643507 0 0 1
448 1 21.59700776427299 19.58207978120645 16.918249796796836 0 0 0
2300 1 0.9145776072811195 27.900549596305826 17.646360797095852 1 0 0
1168 1 5.761557953008403 24.219548747166613 16.525289185137943 0 0 0
2370 1 4.554916041935775 26.969544007163346 15.754828581115099 1 0 -1
425 1 11.090063449631264 23.502916856670044 17.090468851081724 0 0 0
45 1 14.933526799024168 23.78596546393518 15.434597197292465 0 0 -1
270 1 16.15578377465801 26.00592791195913 14.166000043726399 0 0 0
588 1 18.965582391447885 25.71007875900166 14.74129811464722 0 0 -1
277 1 19.31652458932828 26.22251796062597 17.65687551323156 0 0 -2
1420 1 22.490328673233947 28.218107598004547 17.82829493453179 0 0 -1