LAMMPS data file via write_data, version 29 Oct 2020, timestep = 0

6871 atoms
2 atom types

0.0 68.908 xlo xhi
0.0 68.92587069519459 ylo yhi
0.0 27.952761301163882 zlo zhi

Masses

1 12.01
2 18.015

Atoms # atomic

1 1 0.0 2.8417180249513345 1.677 0 0 0
2 1 0.0 1.420859012475665 5.031000000000001 0 0 0
3 1 0.0 0.0 1.677 0 0 0
4 1 0.0 0.0 5.031000000000001 0 0 0
5 1 1.2305 0.7104295062378347 1.677 0 0 0
6 1 0.0 7.104295062378334 1.677 0 0 0
7 1 0.0 5.683436049902665 5.031000000000001 0 0 0
8 1 0.0 4.262577037427 1.677 0 0 0
9 1 0.0 4.262577037427 5.031000000000001 0 0 0
10 1 1.2305000000000001 4.973006543664834 1.677 0 0 0
11 1 1.2305 3.552147531189165 5.031000000000001 0 0 0
12 1 1.2305 2.1312885187135 1.677 0 0 0
13 1 1.2305 2.1312885187135 5.031000000000001 0 0 0
14 1 2.461 2.8417180249513345 1.677 0 0 0
15 1 2.461 1.420859012475665 5.031000000000001 0 0 0
16 1 2.461 0.0 1.677 0 0 0
17 1 2.461 0.0 5.031000000000001 0 0 0
18 1 3.6915 0.7104295062378347 1.677 0 0 0
19 1 0.0 11.366872099805333 1.677 0 0 0
20 1 0.0 9.946013087329664 5.031000000000001 0 0 0
21 1 0.0 8.525154074854 1.677 0 0 0
22 1 0.0 8.525154074854 5.031000000000001 0 0 0
23 1 1.2304999999999997 9.235583581091834 1.677 0 0 0
24 1 1.2304999999999997 7.814724568616164 5.031000000000001 0 0 0
25 1 1.2305 6.393865556140499 1.677 0 0 0
26 1 1.2305 6.393865556140499 5.031000000000001 0 0 0
27 1 2.461 7.104295062378334 1.677 0 0 0
28 1 2.461 5.683436049902665 5.031000000000001 0 0 0
29 1 2.461 4.262577037427 1.677 0 0 0
30 1 2.461 4.262577037427 5.031000000000001 0 0 0
31 1 3.6914999999999996 4.973006543664834 1.677 0 0 0
32 1 3.6914999999999996 3.552147531189165 5.031000000000001 0 0 0
33 1 3.6914999999999996 2.1312885187135 1.677 0 0 0
34 1 3.6914999999999996 2.1312885187135 5.031000000000001 0 0 0
35 1 4.922 2.841718024951334 1.677 0 0 0
36 1 4.922 1.420859012475665 5.031000000000001 0 0 0
37 1 4.922 0.0 1.677 0 0 0
38 1 4.922 0.0 5.031000000000001 0 0 0
39 1 6.1525 0.7104295062378343 1.677 0 0 0
40 1 0.0 15.629449137232333 1.677 0 0 0
41 1 0.0 14.208590124756665 5.031000000000001 0 0 0
42 1 0.0 12.787731112280998 1.677 0 0 0
43 1 0.0 12.787731112280998 5.031000000000001 0 0 0
44 1 1.2305000000000001 13.498160618518833 1.677 0 0 0
45 1 1.2304999999999997 12.077301606043164 5.031000000000001 0 0 0
46 1 1.2304999999999997 10.656442593567498 1.677 0 0 0
47 1 1.2304999999999997 10.656442593567498 5.031000000000001 0 0 0
48 1 2.461 11.366872099805335 1.677 0 0 0
49 1 2.4609999999999994 9.946013087329664 5.031000000000001 0 0 0
50 1 2.4609999999999994 8.525154074854 1.677 0 0 0
51 1 2.4609999999999994 8.525154074854 5.031000000000001 0 0 0
52 1 3.6915 9.235583581091834 1.677 0 0 0
53 1 3.6914999999999996 7.814724568616165 5.031000000000001 0 0 0
54 1 3.6914999999999996 6.393865556140499 1.677 0 0 0
55 1 3.6914999999999996 6.393865556140499 5.031000000000001 0 0 0
56 1 4.922 7.104295062378334 1.677 0 0 0
57 1 4.922 5.6834360499026655 5.031000000000001 0 0 0
58 1 4.922 4.262577037426999 1.677 0 0 0
59 1 4.922 4.262577037426999 5.031000000000001 0 0 0
60 1 6.1525 4.973006543664834 1.677 0 0 0
61 1 6.1525 3.5521475311891653 5.031000000000001 0 0 0
62 1 6.1525 2.1312885187134993 1.677 0 0 0
63 1 6.1525 2.1312885187134993 5.031000000000001 0 0 0
64 1 7.382999999999999 2.8417180249513345 1.677 0 0 0
65 1 7.382999999999999 1.420859012475666 5.031000000000001 0 0 0
66 1 7.382999999999999 0.0 1.677 0 0 0
67 1 7.382999999999999 0.0 5.031000000000001 0 0 0
68 1 8.613499999999998 0.7104295062378343 1.677 0 0 0
69 1 0.0 17.050308149708 1.677 0 0 0
70 1 0.0 17.050308149708 5.031000000000001 0 0 0
71 1 1.2305000000000001 16.339878643470165 5.031000000000001 0 0 0
72 1 1.2305000000000001 14.919019630994498 1.677 0 0 0
73 1 1.2305000000000001 14.919019630994498 5.031000000000001 0 0 0
74 1 2.4610000000000003 15.629449137232331 1.677 0 0 0
75 1 2.461 14.208590124756665 5.031000000000001 0 0 0
76 1 2.461 12.787731112280998 1.677 0 0 0
77 1 2.461 12.787731112280998 5.031000000000001 0 0 0
78 1 3.6915 13.498160618518833 1.677 0 0 0
79 1 3.6914999999999996 12.077301606043164 5.031000000000001 0 0 0
80 1 3.6914999999999996 10.6564425935675 1.677 0 0 0
81 1 3.6914999999999996 10.6564425935675 5.031000000000001 0 0 0
82 1 4.922 11.366872099805333 1.677 0 0 0
83 1 4.922 9.946013087329666 5.031000000000001 0 0 0
84 1 4.922 8.525154074854 1.677 0 0 0
85 1 4.922 8.525154074854 5.031000000000001 0 0 0
86 1 6.1525 9.235583581091834 1.677 0 0 0
87 1 6.1525 7.814724568616166 5.031000000000001 0 0 0
88 1 6.1525 6.393865556140499 1.677 0 0 0
89 1 6.1525 6.393865556140499 5.031000000000001 0 0 0
90 1 7.383 7.104295062378334 1.677 0 0 0
91 1 7.382999999999999 5.6834360499026655 5.031000000000001 0 0 0
92 1 7.382999999999999 4.262577037427 1.677 0 0 0
93 1 7.382999999999999 4.262577037427 5.031000000000001 0 0 0
94 1 8.6135 4.973006543664834 1.677 0 0 0
95 1 8.613499999999998 3.552147531189166 5.031000000000001 0 0 0
96 1 8.613499999999998 2.1312885187135002 1.677 0 0 0
97 1 8.613499999999998 2.1312885187135002 5.031000000000001 0 0 0
98 1 9.844 2.8417180249513336 1.677 0 0 0
99 1 9.844 1.420859012475666 5.031000000000001 0 0 0
100 1 9.844 0.0 1.677 0 0 0
101 1 9.844 0.0 5.031000000000001 0 0 0
102 1 11.0745 0.7104295062378334 1.677 0 0 0
103 1 2.4610000000000003 17.050308149708 1.677 0 0 0
104 1 2.4610000000000003 17.050308149708 5.031000000000001 0 0 0
105 1 3.6915 16.339878643470165 5.031000000000001 0 0 0
106 1 3.6915 14.919019630994498 1.677 0 0 0
107 1 3.6915 14.919019630994498 5.031000000000001 0 0 0
108 1 4.921999999999999 15.629449137232333 1.677 0 0 0
109 1 4.922 14.208590124756663 5.031000000000001 0 0 0
110 1 4.922 12.787731112281 1.677 0 0 0
111 1 4.922 12.787731112281 5.031000000000001 0 0 0
112 1 6.152499999999999 13.498160618518833 1.677 0 0 0
113 1 6.1525 12.077301606043164 5.031000000000001 0 0 0
114 1 6.1525 10.6564425935675 1.677 0 0 0
115 1 6.1525 10.6564425935675 5.031000000000001 0 0 0
116 1 7.382999999999999 11.366872099805335 1.677 0 0 0
117 1 7.383 9.946013087329664 5.031000000000001 0 0 0
118 1 7.383 8.525154074854 1.677 0 0 0
119 1 7.383 8.525154074854 5.031000000000001 0 0 0
120 1 8.613499999999998 9.235583581091834 1.677 0 0 0
121 1 8.6135 7.814724568616164 5.031000000000001 0 0 0
122 1 8.6135 6.3938655561405 1.677 0 0 0
123 1 8.6135 6.3938655561405 5.031000000000001 0 0 0
124 1 9.844 7.104295062378334 1.677 0 0 0
125 1 9.844 5.683436049902665 5.031000000000001 0 0 0
126 1 9.844 4.2625770374270004 1.677 0 0 0
127 1 9.844 4.2625770374270004 5.031000000000001 0 0 0
128 1 11.074499999999999 4.973006543664834 1.677 0 0 0
129 1 11.0745 3.5521475311891644 5.031000000000001 0 0 0
130 1 11.0745 2.1312885187135002 1.677 0 0 0
131 1 11.0745 2.1312885187135002 5.031000000000001 0 0 0
132 1 12.305 2.8417180249513336 1.677 0 0 0
133 1 12.305 1.420859012475665 5.031000000000001 0 0 0
134 1 12.305 0.0 1.677 0 0 0
135 1 12.305 0.0 5.031000000000001 0 0 0
136 1 13.535499999999999 0.7104295062378352 1.677 0 0 0
137 1 4.921999999999999 17.050308149708 1.677 0 0 0
138 1 4.921999999999999 17.050308149708 5.031000000000001 0 0 0
139 1 6.1525 16.339878643470165 5.031000000000001 0 0 0
140 1 6.152499999999999 14.919019630994498 1.677 0 0 0
141 1 6.152499999999999 14.919019630994498 5.031000000000001 0 0 0
142 1 7.382999999999999 15.629449137232333 1.677 0 0 0
143 1 7.383 14.208590124756665 5.031000000000001 0 0 0
144 1 7.382999999999999 12.787731112280998 1.677 0 0 0
145 1 7.382999999999999 12.787731112280998 5.031000000000001 0 0 0
146 1 8.6135 13.498160618518835 1.677 0 0 0
147 1 8.6135 12.077301606043164 5.031000000000001 0 0 0
148 1 8.613499999999998 10.656442593567498 1.677 0 0 0
149 1 8.613499999999998 10.656442593567498 5.031000000000001 0 0 0
150 1 9.844 11.366872099805335 1.677 0 0 0
151 1 9.844 9.946013087329664 5.031000000000001 0 0 0
152 1 9.844 8.525154074853997 1.677 0 0 0
153 1 9.844 8.525154074853997 5.031000000000001 0 0 0
154 1 11.074499999999999 9.235583581091834 1.677 0 0 0
155 1 11.0745 7.814724568616165 5.031000000000001 0 0 0
156 1 11.074499999999999 6.393865556140499 1.677 0 0 0
157 1 11.074499999999999 6.393865556140499 5.031000000000001 0 0 0
158 1 12.305 7.104295062378334 1.677 0 0 0
159 1 12.305 5.683436049902665 5.031000000000001 0 0 0
160 1 12.305 4.262577037426999 1.677 0 0 0
161 1 12.305 4.262577037426999 5.031000000000001 0 0 0
162 1 13.535499999999999 4.973006543664834 1.677 0 0 0
163 1 13.535499999999999 3.5521475311891653 5.031000000000001 0 0 0
164 1 13.535499999999999 2.1312885187134984 1.677 0 0 0
165 1 13.535499999999999 2.1312885187134984 5.031000000000001 0 0 0
166 1 14.765999999999998 2.8417180249513354 1.677 0 0 0
167 1 14.765999999999998 1.420859012475665 5.031000000000001 0 0 0
168 1 14.765999999999998 0.0 1.677 0 0 0
169 1 14.765999999999998 0.0 5.031000000000001 0 0 0
170 1 15.9965 0.7104295062378352 1.677 0 0 0
171 1 7.383 17.050308149708 1.677 0 0 0
172 1 7.383 17.050308149708 5.031000000000001 0 0 0
173 1 8.613499999999998 16.339878643470165 5.031000000000001 0 0 0
174 1 8.6135 14.919019630994498 1.677 0 0 0
175 1 8.6135 14.919019630994498 5.031000000000001 0 0 0
176 1 9.844 15.629449137232331 1.677 0 0 0
177 1 9.844 14.208590124756665 5.031000000000001 0 0 0
178 1 9.844 12.787731112280998 1.677 0 0 0
179 1 9.844 12.787731112280998 5.031000000000001 0 0 0
180 1 11.074499999999999 13.498160618518833 1.677 0 0 0
181 1 11.074499999999999 12.077301606043164 5.031000000000001 0 0 0
182 1 11.0745 10.656442593567498 1.677 0 0 0
183 1 11.0745 10.656442593567498 5.031000000000001 0 0 0
184 1 12.304999999999998 11.366872099805333 1.677 0 0 0
185 1 12.305 9.946013087329664 5.031000000000001 0 0 0
186 1 12.305 8.525154074854 1.677 0 0 0
187 1 12.305 8.525154074854 5.031000000000001 0 0 0
188 1 13.535499999999999 9.235583581091833 1.677 0 0 0
189 1 13.535499999999999 7.814724568616165 5.031000000000001 0 0 0
190 1 13.535499999999999 6.393865556140499 1.677 0 0 0
191 1 13.535499999999999 6.393865556140499 5.031000000000001 0 0 0
192 1 14.765999999999998 7.104295062378332 1.677 0 0 0
193 1 14.765999999999998 5.6834360499026655 5.031000000000001 0 0 0
194 1 14.766 4.262577037426999 1.677 0 0 0
195 1 14.766 4.262577037426999 5.031000000000001 0 0 0
196 1 15.996499999999997 4.973006543664834 1.677 0 0 0
197 1 15.996499999999997 3.5521475311891653 5.031000000000001 0 0 0
198 1 15.9965 2.1312885187135002 1.677 0 0 0
199 1 15.9965 2.1312885187135002 5.031000000000001 0 0 0
200 1 17.226999999999997 2.8417180249513336 1.677 0 0 0
201 1 17.226999999999997 1.420859012475665 5.031000000000001 0 0 0
202 1 17.227 0.0 1.677 0 0 0
203 1 17.227 0.0 5.031000000000001 0 0 0
204 1 18.457499999999996 0.7104295062378334 1.677 0 0 0
205 1 9.844 17.050308149708 1.677 0 0 0
206 1 9.844 17.050308149708 5.031000000000001 0 0 0
207 1 11.074499999999999 16.33987864347016 5.031000000000001 0 0 0
208 1 11.074499999999999 14.919019630994498 1.677 0 0 0
209 1 11.074499999999999 14.919019630994498 5.031000000000001 0 0 0
210 1 12.305 15.629449137232337 1.677 0 0 0
211 1 12.304999999999998 14.208590124756661 5.031000000000001 0 0 0
212 1 12.305 12.787731112280998 1.677 0 0 0
213 1 12.305 12.787731112280998 5.031000000000001 0 0 0
214 1 13.535499999999999 13.498160618518837 1.677 0 0 0
215 1 13.535499999999999 12.07730160604316 5.031000000000001 0 0 0
216 1 13.535499999999999 10.6564425935675 1.677 0 0 0
217 1 13.535499999999999 10.6564425935675 5.031000000000001 0 0 0
218 1 14.765999999999998 11.366872099805336 1.677 0 0 0
219 1 14.765999999999998 9.94601308732966 5.031000000000001 0 0 0
220 1 14.765999999999998 8.525154074854 1.677 0 0 0
221 1 14.765999999999998 8.525154074854 5.031000000000001 0 0 0
222 1 15.9965 9.235583581091836 1.677 0 0 0
223 1 15.996499999999997 7.814724568616162 5.031000000000001 0 0 0
224 1 15.9965 6.393865556140499 1.677 0 0 0
225 1 15.9965 6.393865556140499 5.031000000000001 0 0 0
226 1 17.227 7.104295062378338 1.677 0 0 0
227 1 17.226999999999997 5.683436049902662 5.031000000000001 0 0 0
228 1 17.226999999999997 4.2625770374270004 1.677 0 0 0
229 1 17.226999999999997 4.2625770374270004 5.031000000000001 0 0 0
230 1 18.4575 4.973006543664837 1.677 0 0 0
231 1 18.457499999999996 3.5521475311891617 5.031000000000001 0 0 0
232 1 18.4575 2.1312885187135002 1.677 0 0 0
233 1 18.4575 2.1312885187135002 5.031000000000001 0 0 0
234 1 19.688 2.841718024951337 1.677 0 0 0
235 1 19.687999999999995 1.4208590124756633 5.031000000000001 0 0 0
236 1 19.688 0.0 1.677 0 0 0
237 1 19.688 0.0 5.031000000000001 0 0 0
238 1 20.918499999999998 0.7104295062378405 1.677 0 0 0
239 1 12.304999999999998 17.050308149708 1.677 0 0 0
240 1 12.304999999999998 17.050308149708 5.031000000000001 0 0 0
241 1 13.535499999999997 16.33987864347016 5.031000000000001 0 0 0
242 1 13.535499999999999 14.919019630994498 1.677 0 0 0
243 1 13.535499999999999 14.919019630994498 5.031000000000001 0 0 0
244 1 14.766 15.629449137232337 1.677 0 0 0
245 1 14.765999999999998 14.208590124756661 5.031000000000001 0 0 0
246 1 14.765999999999998 12.787731112281 1.677 0 0 0
247 1 14.765999999999998 12.787731112281 5.031000000000001 0 0 0
248 1 15.996500000000001 13.498160618518837 1.677 0 0 0
249 1 15.996499999999997 12.07730160604316 5.031000000000001 0 0 0
250 1 15.996499999999997 10.6564425935675 1.677 0 0 0
251 1 15.996499999999997 10.6564425935675 5.031000000000001 0 0 0
252 1 17.227 11.366872099805336 1.677 0 0 0
253 1 17.226999999999997 9.946013087329662 5.031000000000001 0 0 0
254 1 17.226999999999997 8.525154074854 1.677 0 0 0
255 1 17.226999999999997 8.525154074854 5.031000000000001 0 0 0
256 1 18.4575 9.235583581091838 1.677 0 0 0
257 1 18.457499999999996 7.814724568616162 5.031000000000001 0 0 0
258 1 18.457499999999996 6.393865556140501 1.677 0 0 0
259 1 18.457499999999996 6.393865556140501 5.031000000000001 0 0 0
260 1 19.688000000000002 7.104295062378338 1.677 0 0 0
261 1 19.687999999999995 5.683436049902662 5.031000000000001 0 0 0
262 1 19.688 4.2625770374270004 1.677 0 0 0
263 1 19.688 4.2625770374270004 5.031000000000001 0 0 0
264 1 20.9185 4.973006543664837 1.677 0 0 0
265 1 20.918499999999995 3.5521475311891635 5.031000000000001 0 0 0
266 1 20.918499999999998 2.1312885187135002 1.677 0 0 0
267 1 20.918499999999998 2.1312885187135002 5.031000000000001 0 0 0
268 1 22.149 2.8417180249513407 1.677 0 0 0
269 1 22.148999999999997 1.4208590124756597 5.031000000000001 0 0 0
270 1 22.148999999999997 0.0 1.677 0 0 0
271 1 22.148999999999997 0.0 5.031000000000001 0 0 0
272 1 14.766 17.050308149708 1.677 0 0 0
273 1 14.766 17.050308149708 5.031000000000001 0 0 0
274 1 15.996499999999997 16.33987864347016 5.031000000000001 0 0 0
275 1 15.9965 14.9190196309945 1.677 0 0 0
276 1 15.9965 14.9190196309945 5.031000000000001 0 0 0
277 1 17.227 15.629449137232333 1.677 0 0 0
278 1 17.226999999999997 14.208590124756661 5.031000000000001 0 0 0
279 1 17.227 12.787731112281 1.677 0 0 0
280 1 17.227 12.787731112281 5.031000000000001 0 0 0
281 1 18.4575 13.498160618518833 1.677 0 0 0
282 1 18.4575 12.077301606043163 5.031000000000001 0 0 0
283 1 18.4575 10.6564425935675 1.677 0 0 0
284 1 18.4575 10.6564425935675 5.031000000000001 0 0 0
285 1 19.688 11.366872099805335 1.677 0 0 0
286 1 19.688 9.946013087329662 5.031000000000001 0 0 0
287 1 19.688 8.525154074854001 1.677 0 0 0
288 1 19.688 8.525154074854001 5.031000000000001 0 0 0
289 1 20.9185 9.235583581091834 1.677 0 0 0
290 1 20.918499999999998 7.814724568616162 5.031000000000001 0 0 0
291 1 20.9185 6.393865556140501 1.677 0 0 0
292 1 20.9185 6.393865556140501 5.031000000000001 0 0 0
293 1 22.149 7.104295062378334 1.677 0 0 0
294 1 22.148999999999997 5.683436049902664 5.031000000000001 0 0 0
295 1 22.149 4.2625770374270004 1.677 0 0 0
296 1 22.149 4.2625770374270004 5.031000000000001 0 0 0
297 1 17.226999999999997 17.050308149708002 1.677 0 0 0
298 1 17.226999999999997 17.050308149708002 5.031000000000001 0 0 0
299 1 18.457499999999996 16.33987864347016 5.031000000000001 0 0 0
300 1 18.4575 14.9190196309945 1.677 0 0 0
301 1 18.4575 14.9190196309945 5.031000000000001 0 0 0
302 1 19.688000000000002 15.629449137232333 1.677 0 0 0
303 1 19.688 14.208590124756663 5.031000000000001 0 0 0
304 1 19.688 12.787731112281 1.677 0 0 0
305 1 19.688 12.787731112281 5.031000000000001 0 0 0
306 1 20.9185 13.498160618518835 1.677 0 0 0
307 1 20.918499999999998 12.077301606043163 5.031000000000001 0 0 0
308 1 20.918499999999998 10.656442593567501 1.677 0 0 0
309 1 20.918499999999998 10.656442593567501 5.031000000000001 0 0 0
310 1 22.149 11.366872099805335 1.677 0 0 0
311 1 22.148999999999997 9.946013087329662 5.031000000000001 0 0 0
312 1 22.149 8.525154074854001 1.677 0 0 0
313 1 22.149 8.525154074854001 5.031000000000001 0 0 0
314 1 19.688 17.050308149707995 1.677 0 0 0
315 1 19.688 17.050308149707995 5.031000000000001 0 0 0
316 1 20.918499999999998 16.339878643470165 5.031000000000001 0 0 0
317 1 20.918499999999998 14.919019630994496 1.677 0 0 0
318 1 20.918499999999998 14.919019630994496 5.031000000000001 0 0 0
319 1 22.149 15.629449137232335 1.677 0 0 0
320 1 22.148999999999997 14.208590124756663 5.031000000000001 0 0 0
321 1 22.148999999999997 12.787731112280998 1.677 0 0 0
322 1 22.148999999999997 12.787731112280998 5.031000000000001 0 0 0
323 1 22.149 17.050308149707995 1.677 0 0 0
324 1 22.149 17.050308149707995 5.031000000000001 0 0 0
325 1 0.0 2.8417180249513345 8.385 0 0 0
326 1 0.0 0.0 8.385 0 0 0
327 1 1.2305 0.7104295062378347 8.385 0 0 0
328 1 0.0 7.104295062378334 8.385 0 0 0
329 1 0.0 4.262577037427 8.385 0 0 0
330 1 1.2305000000000001 4.973006543664834 8.385 0 0 0
331 1 1.2305 2.1312885187135 8.385 0 0 0
332 1 2.461 2.8417180249513345 8.385 0 0 0
333 1 2.461 0.0 8.385 0 0 0
334 1 3.6915 0.7104295062378347 8.385 0 0 0
335 1 0.0 11.366872099805333 8.385 0 0 0
336 1 0.0 8.525154074854 8.385 0 0 0
337 1 1.2304999999999997 9.235583581091834 8.385 0 0 0
338 1 1.2305 6.393865556140499 8.385 0 0 0
339 1 2.461 7.104295062378334 8.385 0 0 0
340 1 2.461 4.262577037427 8.385 0 0 0
341 1 3.6914999999999996 4.973006543664834 8.385 0 0 0
342 1 3.6914999999999996 2.1312885187135 8.385 0 0 0
343 1 4.922 2.841718024951334 8.385 0 0 0
344 1 4.922 0.0 8.385 0 0 0
345 1 6.1525 0.7104295062378343 8.385 0 0 0
346 1 0.0 15.629449137232333 8.385 0 0 0
347 1 0.0 12.787731112280998 8.385 0 0 0
348 1 1.2305000000000001 13.498160618518833 8.385 0 0 0
349 1 1.2304999999999997 10.656442593567498 8.385 0 0 0
350 1 2.461 11.366872099805335 8.385 0 0 0
351 1 2.4609999999999994 8.525154074854 8.385 0 0 0
352 1 3.6915 9.235583581091834 8.385 0 0 0
353 1 3.6914999999999996 6.393865556140499 8.385 0 0 0
354 1 4.922 7.104295062378334 8.385 0 0 0
355 1 4.922 4.262577037426999 8.385 0 0 0
356 1 6.1525 4.973006543664834 8.385 0 0 0
357 1 6.1525 2.1312885187134993 8.385 0 0 0
358 1 7.382999999999999 2.8417180249513345 8.385 0 0 0
359 1 7.382999999999999 0.0 8.385 0 0 0
360 1 8.613499999999998 0.7104295062378343 8.385 0 0 0
361 1 0.0 17.050308149708 8.385 0 0 0
362 1 1.2305000000000001 14.919019630994498 8.385 0 0 0
363 1 2.4610000000000003 15.629449137232331 8.385 0 0 0
364 1 2.461 12.787731112280998 8.385 0 0 0
365 1 3.6915 13.498160618518833 8.385 0 0 0
366 1 3.6914999999999996 10.6564425935675 8.385 0 0 0
367 1 4.922 11.366872099805333 8.385 0 0 0
368 1 4.922 8.525154074854 8.385 0 0 0
369 1 6.1525 9.235583581091834 8.385 0 0 0
370 1 6.1525 6.393865556140499 8.385 0 0 0
371 1 7.383 7.104295062378334 8.385 0 0 0
372 1 7.382999999999999 4.262577037427 8.385 0 0 0
373 1 8.6135 4.973006543664834 8.385 0 0 0
374 1 8.613499999999998 2.1312885187135002 8.385 0 0 0
375 1 9.844 2.8417180249513336 8.385 0 0 0
376 1 9.844 0.0 8.385 0 0 0
377 1 11.0745 0.7104295062378334 8.385 0 0 0
378 1 2.4610000000000003 17.050308149708 8.385 0 0 0
379 1 3.6915 14.919019630994498 8.385 0 0 0
380 1 4.921999999999999 15.629449137232333 8.385 0 0 0
381 1 4.922 12.787731112281 8.385 0 0 0
382 1 6.152499999999999 13.498160618518833 8.385 0 0 0
383 1 6.1525 10.6564425935675 8.385 0 0 0
384 1 7.382999999999999 11.366872099805335 8.385 0 0 0
385 1 7.383 8.525154074854 8.385 0 0 0
386 1 8.613499999999998 9.235583581091834 8.385 0 0 0
387 1 8.6135 6.3938655561405 8.385 0 0 0
388 1 9.844 7.104295062378334 8.385 0 0 0
389 1 9.844 4.2625770374270004 8.385 0 0 0
390 1 11.074499999999999 4.973006543664834 8.385 0 0 0
391 1 11.0745 2.1312885187135002 8.385 0 0 0
392 1 12.305 2.8417180249513336 8.385 0 0 0
393 1 12.305 0.0 8.385 0 0 0
394 1 13.535499999999999 0.7104295062378352 8.385 0 0 0
395 1 4.921999999999999 17.050308149708 8.385 0 0 0
396 1 6.152499999999999 14.919019630994498 8.385 0 0 0
397 1 7.382999999999999 15.629449137232333 8.385 0 0 0
398 1 7.382999999999999 12.787731112280998 8.385 0 0 0
399 1 8.6135 13.498160618518835 8.385 0 0 0
400 1 8.613499999999998 10.656442593567498 8.385 0 0 0
401 1 9.844 11.366872099805335 8.385 0 0 0
402 1 9.844 8.525154074853997 8.385 0 0 0
403 1 11.074499999999999 9.235583581091834 8.385 0 0 0
404 1 11.074499999999999 6.393865556140499 8.385 0 0 0
405 1 12.305 7.104295062378334 8.385 0 0 0
406 1 12.305 4.262577037426999 8.385 0 0 0
407 1 13.535499999999999 4.973006543664834 8.385 0 0 0
408 1 13.535499999999999 2.1312885187134984 8.385 0 0 0
409 1 14.765999999999998 2.8417180249513354 8.385 0 0 0
410 1 14.765999999999998 0.0 8.385 0 0 0
411 1 15.9965 0.7104295062378352 8.385 0 0 0
412 1 7.383 17.050308149708 8.385 0 0 0
413 1 8.6135 14.919019630994498 8.385 0 0 0
414 1 9.844 15.629449137232331 8.385 0 0 0
415 1 9.844 12.787731112280998 8.385 0 0 0
416 1 11.074499999999999 13.498160618518833 8.385 0 0 0
417 1 11.0745 10.656442593567498 8.385 0 0 0
418 1 12.304999999999998 11.366872099805333 8.385 0 0 0
419 1 12.305 8.525154074854 8.385 0 0 0
420 1 13.535499999999999 9.235583581091833 8.385 0 0 0
421 1 13.535499999999999 6.393865556140499 8.385 0 0 0
422 1 14.765999999999998 7.104295062378332 8.385 0 0 0
423 1 14.766 4.262577037426999 8.385 0 0 0
424 1 15.996499999999997 4.973006543664834 8.385 0 0 0
425 1 15.9965 2.1312885187135002 8.385 0 0 0
426 1 17.226999999999997 2.8417180249513336 8.385 0 0 0
427 1 17.227 0.0 8.385 0 0 0
428 1 18.457499999999996 0.7104295062378334 8.385 0 0 0
429 1 9.844 17.050308149708 8.385 0 0 0
430 1 11.074499999999999 14.919019630994498 8.385 0 0 0
431 1 12.305 15.629449137232337 8.385 0 0 0
432 1 12.305 12.787731112280998 8.385 0 0 0
433 1 13.535499999999999 13.498160618518837 8.385 0 0 0
434 1 13.535499999999999 10.6564425935675 8.385 0 0 0
435 1 14.765999999999998 11.366872099805336 8.385 0 0 0
436 1 14.765999999999998 8.525154074854 8.385 0 0 0
437 1 15.9965 9.235583581091836 8.385 0 0 0
438 1 15.9965 6.393865556140499 8.385 0 0 0
439 1 17.227 7.104295062378338 8.385 0 0 0
440 1 17.226999999999997 4.2625770374270004 8.385 0 0 0
441 1 18.4575 4.973006543664837 8.385 0 0 0
442 1 18.4575 2.1312885187135002 8.385 0 0 0
443 1 19.688 2.841718024951337 8.385 0 0 0
444 1 19.688 0.0 8.385 0 0 0
445 1 20.918499999999998 0.7104295062378405 8.385 0 0 0
446 1 12.304999999999998 17.050308149708 8.385 0 0 0
447 1 13.535499999999999 14.919019630994498 8.385 0 0 0
448 1 14.766 15.629449137232337 8.385 0 0 0
449 1 14.765999999999998 12.787731112281 8.385 0 0 0
450 1 15.996500000000001 13.498160618518837 8.385 0 0 0
451 1 15.996499999999997 10.6564425935675 8.385 0 0 0
452 1 17.227 11.366872099805336 8.385 0 0 0
453 1 17.226999999999997 8.525154074854 8.385 0 0 0
454 1 18.4575 9.235583581091838 8.385 0 0 0
455 1 18.457499999999996 6.393865556140501 8.385 0 0 0
456 1 19.688000000000002 7.104295062378338 8.385 0 0 0
457 1 19.688 4.2625770374270004 8.385 0 0 0
458 1 20.9185 4.973006543664837 8.385 0 0 0
459 1 20.918499999999998 2.1312885187135002 8.385 0 0 0
460 1 22.149 2.8417180249513407 8.385 0 0 0
461 1 22.148999999999997 0.0 8.385 0 0 0
462 1 14.766 17.050308149708 8.385 0 0 0
463 1 15.9965 14.9190196309945 8.385 0 0 0
464 1 17.227 15.629449137232333 8.385 0 0 0
465 1 17.227 12.787731112281 8.385 0 0 0
466 1 18.4575 13.498160618518833 8.385 0 0 0
467 1 18.4575 10.6564425935675 8.385 0 0 0
468 1 19.688 11.366872099805335 8.385 0 0 0
469 1 19.688 8.525154074854001 8.385 0 0 0
470 1 20.9185 9.235583581091834 8.385 0 0 0
471 1 20.9185 6.393865556140501 8.385 0 0 0
472 1 22.149 7.104295062378334 8.385 0 0 0
473 1 22.149 4.2625770374270004 8.385 0 0 0
474 1 17.226999999999997 17.050308149708002 8.385 0 0 0
475 1 18.4575 14.9190196309945 8.385 0 0 0
476 1 19.688000000000002 15.629449137232333 8.385 0 0 0
477 1 19.688 12.787731112281 8.385 0 0 0
478 1 20.9185 13.498160618518835 8.385 0 0 0
479 1 20.918499999999998 10.656442593567501 8.385 0 0 0
480 1 22.149 11.366872099805335 8.385 0 0 0
481 1 22.149 8.525154074854001 8.385 0 0 0
482 1 19.688 17.050308149707995 8.385 0 0 0
483 1 20.918499999999998 14.919019630994496 8.385 0 0 0
484 1 22.149 15.629449137232335 8.385 0 0 0
485 1 22.148999999999997 12.787731112280998 8.385 0 0 0
486 1 22.149 17.050308149707995 8.385 0 0 0
487 2 17.34195633719253 2.227232649431539 11.293653505153237 0 1 0
488 2 18.22048004000283 5.8660468253653 13.85200314027265 0 0 0
489 2 18.20711563959972 2.837443136193568 14.086011329798836 0 1 1
490 2 20.403564914620706 1.636748942583851 12.670833543442633 1 0 0
491 2 17.009820565015776 0.7184450882849389 20.92204705283968 0 0 0
492 2 22.773267444512307 5.852566978906223 20.42206414762737 0 0 0
493 2 21.08246760670631 6.861203743962631 11.408666213983935 0 1 1
494 2 22.17439413789379 15.448833352896937 15.086683123290445 0 0 0
495 2 21.093416091089466 17.132092617077376 17.89681585808948 0 0 1
496 2 19.70931651074134 10.46147884052808 14.267260867809444 0 0 0
497 2 16.64408018578736 11.327548150296272 12.6905315101546 0 0 1
498 2 14.978624625010685 13.420246233375565 13.796356950706066 0 0 0
499 2 19.551468904563187 12.440411205986692 12.426561150434589 0 0 0
500 2 21.814313504077912 13.3109845177553 13.086891270936297 0 0 1
501 2 16.102700424870285 15.33435261028466 12.127010733020612 0 0 1
502 2 19.659230414107668 8.323755333470324 25.60574722532241 0 0 0
503 2 18.740504185912656 15.346448933934665 12.67372939590204 0 0 0
504 2 21.45472113131695 16.716373016045086 12.600783083572718 0 0 1
505 2 18.65481384739575 1.0943039312992688 16.16012370507315 0 1 -1
506 2 22.71010173502837 9.839633176321252 22.882063831944578 0 0 0
507 2 21.18880998034918 6.2415677932435925 14.186499502835446 0 0 1
508 2 17.734917674224366 8.788684421365636 13.713258198729108 0 0 1
509 2 20.11847284108977 5.8827638650909355 17.14798119491563 0 1 0
510 2 22.869655601929605 3.684741355908388 22.05816464503714 0 0 0
511 2 22.03631873408479 9.101267728477273 14.717667791791941 0 0 1
512 2 16.191670514655694 13.418676724457656 16.486296684224225 0 0 0
513 2 18.68486127080914 12.040078472464685 16.300165880945016 0 0 1
514 2 20.189167663516457 14.236174261573733 16.933016163460394 0 1 0
515 2 22.71232877651397 6.132661290793252 17.880235042934363 0 0 0
516 2 18.00902484746178 15.533443853126045 15.530049077136223 0 0 1
517 2 17.03046400397587 14.882994021793019 27.02807463356863 0 0 0
518 2 19.89344095895295 3.5754909206099317 18.925199421057233 0 0 -1
519 2 17.325740600995527 2.394522434842595 18.457227409550846 0 0 1
520 2 22.45154461449636 14.233349827617793 21.17409648383972 0 0 0
521 2 21.92316469592233 1.778047806175934 18.709618952314564 0 1 1
522 2 22.74226351167223 17.05564740119801 25.940657110065864 0 0 1
523 2 22.532407162089086 0.5173298232826637 27.04244303070594 0 0 -1
524 2 18.30041218630128 7.718391926770273 18.36012258837495 0 0 0
525 2 19.343111482771423 10.283689446771936 18.544536053962574 0 0 0
526 2 22.25586192285128 10.069822260196656 19.209994269588684 0 0 1
527 2 16.212069407788828 13.20752195030029 19.1678814883402 0 0 0
528 2 18.599074977310266 12.068441909584054 20.577693865378965 0 0 0
529 2 16.257532090651402 15.82386975829426 20.751385998236866 0 0 0
530 2 18.589457769142797 16.793284732335934 19.69051020319335 0 0 1
531 2 15.40612603483434 10.89567973551666 25.32748609449756 0 0 0
532 2 19.988578539887573 14.582740662199946 19.89770882726523 0 0 0
533 2 16.73710936314154 2.997761990140842 22.549205624189533 0 0 0
534 2 21.917270433202177 11.230007807614575 26.723461664226797 0 0 0
535 2 15.280284979939422 3.9759365084451246 24.68408894654535 1 0 0
536 2 18.703032521103236 4.3652127859745695 21.315319002063436 0 0 0
537 2 20.307166005720468 3.7493167538202776 23.44133444005368 0 0 0
538 2 18.91822995838594 7.170428740243113 21.019447957793584 1 0 1
539 2 18.305443452173762 9.202933594989712 23.11126172327765 0 0 0
540 2 21.53086744929169 8.213984284519185 21.066409333558745 0 0 0
541 2 19.4658125781165 5.537407769925615 25.27489463762899 0 0 0
542 2 17.76806506724166 12.256990000067079 25.721655481804966 0 0 1
543 2 18.997642719031457 11.96988500338266 23.409636126316805 0 0 1
544 2 21.70742471777906 12.24491043550189 24.129699261639498 0 0 1
545 2 15.95861622048213 15.792443905604214 24.53391667839289 0 0 0
546 2 17.888590739880414 14.753729922102275 22.72697970373078 0 0 0
547 2 20.07408089081278 16.290579790383994 23.260112943085552 0 0 -1
548 2 21.99350550101551 14.871569553283189 24.045428018986158 1 1 0
549 2 15.774989266602354 2.1664343490681253 26.642582068786623 0 0 1
550 2 18.316960717507353 2.0415105706146375 25.02004167475753 0 0 1
551 2 22.89037008144562 13.236468874967116 17.14005200818999 0 0 0
552 2 16.60217632459791 6.166440298675426 25.283724936243683 0 1 0
553 2 18.180646694503356 5.011068767076655 11.078141546178541 0 0 1
554 2 22.553667559283163 0.8516359440925996 14.282205898257182 0 1 0
555 2 15.476469606619963 8.207630936120713 23.82908679677776 0 1 0
556 2 22.738998075093388 8.514112511033426 25.54258994431905 0 0 0
557 1 0.0 19.892026174659332 1.677 0 0 0
558 1 0.0 18.471167162183665 5.031000000000001 0 0 0
559 1 1.2305000000000001 17.76073765594583 1.677 0 0 0
560 1 0.0 24.154603212086332 1.677 0 0 0
561 1 0.0 22.733744199610662 5.031000000000001 0 0 0
562 1 0.0 21.312885187135 1.677 0 0 0
563 1 0.0 21.312885187135 5.031000000000001 0 0 0
564 1 1.2304999999999993 22.023314693372832 1.677 0 0 0