

### IMPORT ATOMS ###
read_data ../Box_Setup/data.Ibeam_240K
  orthogonal box = (0 0 0) to (157.504 40.4305 33.9212)
  10 by 4 by 4 MPI processor grid
  reading atoms ...
  9248 atoms
  reading velocities ...
  9248 velocities
group water type 2
1952 atoms in group water
group graphite type 1
7296 atoms in group graphite


# Define potential
#
pair_style          sw
pair_coeff * * MLC_e.sw C mW

# Add velocity/set timestep
#

fix		1 graphite setforce 0.0 0.0 0.0
velocity 	graphite set 0.0 0.0 0.0
velocity            water create ${START_TEMP} ${SEED} rot yes dist gaussian
velocity            water create 240 ${SEED} rot yes dist gaussian
velocity            water create 240 7025 rot yes dist gaussian
timestep            5.0

# Define output
#
compute 1 water msd
compute 2 water temp


thermo	            100
thermo_style custom step c_2 press vol etotal ke pe c_1[4] density

# Neighbor lists
#
neigh_modify        delay 0 every 1 check yes


# Set fixes
#
fix                 2 water momentum 10 linear 1 1 1 rescale
fix                 3 all nve
fix                 4 water temp/csvr ${START_TEMP} ${START_TEMP} 500.0 928347
fix                 4 water temp/csvr 240 ${START_TEMP} 500.0 928347
fix                 4 water temp/csvr 240 240 500.0 928347

# Run 0.05 ns equilibration
#
dump                1 all custom 100 ${DIR}/eq.${NAME}.dump id type x y z vx vy vz
dump                1 all custom 100 run_24/eq.${NAME}.dump id type x y z vx vy vz
dump                1 all custom 100 run_24/eq.ibeam_cooling_24.dump id type x y z vx vy vz
run                 10000
Neighbor list info ...
  update every 1 steps, delay 0 steps, check yes
  max neighbors/atom: 2000, page size: 100000
  master list distance cutoff = 6.67472
  ghost atom cutoff = 6.67472
  binsize = 3.33736, bins = 48 13 11
  1 neighbor lists, perpetual/occasional/extra = 1 0 0
  (1) pair sw, perpetual
      attributes: full, newton on
      pair build: full/bin/atomonly
      stencil: full/bin/3d
      bin: standard
Per MPI rank memory allocation (min/avg/max) = 0.4647 | 3.681 | 4.743 Mbytes
Step c_2 Press Volume TotEng KinEng PotEng c_1[4] Density 
       0          240   -299.33439    216009.12   -18704.344    1395.7345   -20100.079            0   0.94393226 
     100    236.95956   -230.28938    216009.12   -18707.855    1378.0526   -20085.907   0.79329908   0.94393226 
     200    236.95195   -267.47082    216009.12   -18756.422    1378.0084    -20134.43    1.1390657   0.94393226 
     300    240.57739   -293.06883    216009.12   -18739.363    1399.0923   -20138.456    1.4366465   0.94393226 
     400    238.77856   -308.56077    216009.12   -18750.959    1388.6312    -20139.59    1.6711835   0.94393226 
     500    237.41162   -225.76028    216009.12   -18726.188    1380.6816   -20106.869    1.9819693   0.94393226 
     600    242.08709   -413.64012    216009.12   -18644.991    1407.8721   -20052.863    2.2690645   0.94393226 
     700    240.22178   -384.41137    216009.12   -18645.427    1397.0243   -20042.452    2.6341435   0.94393226 
     800    248.36925    -432.5598    216009.12    -18619.31    1444.4064   -20063.716    3.0298538   0.94393226 
     900    247.39047   -418.83987    216009.12   -18650.086    1438.7142     -20088.8    3.3824157   0.94393226 
    1000    242.04177   -461.31161    216009.12   -18691.301    1407.6086    -20098.91    3.7488365   0.94393226 
    1100     239.7318   -276.42113    216009.12   -18661.633    1394.1748   -20055.808    3.9376707   0.94393226 
    1200     242.1481   -344.75093    216009.12   -18655.969    1408.2269   -20064.196    4.4598927   0.94393226 
    1300    245.79741   -267.77956    216009.12   -18611.303    1429.4497   -20040.752    4.8652209   0.94393226 
    1400    240.19951   -319.11131    216009.12   -18643.034    1396.8947   -20039.929     5.315774   0.94393226 
    1500    242.18654   -274.75931    216009.12   -18656.786    1408.4505   -20065.237     5.655137   0.94393226 
    1600    244.00121   -354.55201    216009.12   -18653.547    1419.0038   -20072.551    6.1275857   0.94393226 
    1700    239.82639   -284.26581    216009.12   -18661.109    1394.7249   -20055.834    6.5226638   0.94393226 
    1800    239.06345   -231.07999    216009.12   -18638.052     1390.288    -20028.34    6.6369843   0.94393226 
    1900    246.80323   -442.96969    216009.12   -18603.595    1435.2991   -20038.894    7.0977706   0.94393226 
    2000    247.42848   -348.72413    216009.12   -18573.342    1438.9353   -20012.277    7.5597336   0.94393226 
    2100    240.36177   -274.77066    216009.12   -18671.056    1397.8384   -20068.894    7.8754863   0.94393226 
    2200    236.51768   -374.59668    216009.12   -18642.561    1375.4829   -20018.044    8.1976899   0.94393226 
    2300    244.20132   -420.09278    216009.12   -18612.509    1420.1675   -20032.677    8.6264123   0.94393226 
    2400    246.09147    -364.5568    216009.12   -18607.027    1431.1598   -20038.187    9.0141604   0.94393226 
    2500    237.96066   -343.02933    216009.12   -18629.722    1383.8746   -20013.596    9.3046848   0.94393226 
    2600    243.39629   -304.09734    216009.12   -18635.405    1415.4858   -20050.891    9.5925963   0.94393226 
    2700    246.05352    -232.6048    216009.12   -18634.505    1430.9391   -20065.445     10.02088   0.94393226 
    2800    239.45828   -40.521866    216009.12   -18596.011    1392.5841   -19988.595    10.325987   0.94393226 
    2900    241.73544   -267.38404    216009.12   -18603.166    1405.8271   -20008.993    10.469247   0.94393226 
    3000    244.39452   -364.55083    216009.12   -18599.083    1421.2911   -20020.375    10.683876   0.94393226 
    3100    241.04774   -316.12677    216009.12   -18574.317    1401.8277   -19976.144    11.100358   0.94393226 
    3200    239.27712   -344.13446    216009.12   -18626.754    1391.5306   -20018.284    11.453046   0.94393226 
    3300    239.17471   -299.43838    216009.12   -18701.391     1390.935   -20092.326    11.913992   0.94393226 
    3400    231.31939   -454.35809    216009.12   -18644.558    1345.2519    -19989.81    12.227493   0.94393226 
    3500    240.88274   -254.51768    216009.12   -18636.582    1400.8681   -20037.451    12.316789   0.94393226 
    3600     239.7391   -247.65268    216009.12   -18619.676    1394.2172   -20013.893    12.472955   0.94393226 
    3700    248.14052   -291.02496    216009.12    -18613.21    1443.0762   -20056.286    12.604804   0.94393226 
    3800    247.00103   -361.13065    216009.12   -18610.073    1436.4494   -20046.522    12.854489   0.94393226 
    3900    236.98004   -404.25521    216009.12   -18618.877    1378.1717   -19997.049    13.160389   0.94393226 
    4000    238.65611   -368.83098    216009.12   -18664.766     1387.919   -20052.685    13.631646   0.94393226 
    4100    236.45721   -294.51132    216009.12   -18663.626    1375.1312   -20038.758    14.035363   0.94393226 
    4200     241.1932    -212.6409    216009.12   -18646.228    1402.6736   -20048.902    14.519375   0.94393226 
    4300    244.46745   -161.77787    216009.12   -18691.718    1421.7152   -20113.433    14.885073   0.94393226 
    4400    235.07139   -387.69882    216009.12   -18660.707    1367.0719   -20027.779    15.153647   0.94393226 
    4500     237.5719   -130.24188    216009.12   -18689.054    1381.6137   -20070.668    15.639266   0.94393226 
    4600    239.25973   -349.61471    216009.12    -18743.05    1391.4294   -20134.479    16.041683   0.94393226 
    4700    241.96913   -299.57289    216009.12   -18658.723    1407.1861   -20065.909    16.287746   0.94393226 
    4800    240.22705   -263.30611    216009.12   -18638.675    1397.0549   -20035.729    16.749261   0.94393226 
    4900    248.46611   -388.96065    216009.12    -18606.97    1444.9696   -20051.939    17.283789   0.94393226 
    5000    236.24308   -395.05727    216009.12    -18667.68    1373.8859   -20041.566    17.974869   0.94393226 
    5100    242.23792   -285.73101    216009.12   -18649.094    1408.7493   -20057.843    18.514453   0.94393226 
    5200    237.37886   -42.877769    216009.12   -18679.016    1380.4911   -20059.507    18.550325   0.94393226 
    5300    234.51749   -339.88679    216009.12   -18732.809    1363.8506    -20096.66     18.45608   0.94393226 
    5400    237.83339   -371.36617    216009.12   -18717.387    1383.1345   -20100.522    18.884861   0.94393226 
    5500    229.71824   -548.19117    216009.12   -18679.842    1335.9403   -20015.782    19.324062   0.94393226 
    5600    245.07404   -470.93313    216009.12   -18698.048    1425.2429   -20123.291    19.569369   0.94393226 
    5700     238.6183   -333.08057    216009.12   -18648.597    1387.6991   -20036.296    20.099301   0.94393226 
    5800    242.22171   -336.06868    216009.12   -18648.921     1408.655   -20057.576    20.492575   0.94393226 
    5900    239.29012   -210.85948    216009.12   -18665.272    1391.6062   -20056.878    20.975963   0.94393226 
    6000    238.07838   -291.92276    216009.12   -18678.267    1384.5592   -20062.826    21.330223   0.94393226 
    6100    233.01267   -326.74259    216009.12   -18696.159    1355.0992   -20051.258    21.629353   0.94393226 
    6200    233.66635   -367.65889    216009.12   -18682.682    1358.9008   -20041.583    22.051363   0.94393226 
    6300    241.22692   -451.81198    216009.12   -18614.197    1402.8697   -20017.066     22.45359   0.94393226 
    6400    239.46734   -345.94687    216009.12   -18627.962    1392.6368   -20020.599    22.928958   0.94393226 
    6500    242.98947   -311.24382    216009.12    -18641.36    1413.1199    -20054.48    23.204506   0.94393226 
    6600    243.16774   -319.03815    216009.12   -18681.997    1414.1567   -20096.154    23.446339   0.94393226 
    6700    233.21724   -268.91659    216009.12   -18704.639    1356.2889   -20060.928    23.704571   0.94393226 
    6800    240.36648   -475.43387    216009.12   -18696.678    1397.8658   -20094.544    24.016396   0.94393226 
    6900     237.6158   -336.21656    216009.12   -18662.791     1381.869    -20044.66    23.955653   0.94393226 
    7000    236.74943   -259.43807    216009.12   -18652.019    1376.8306   -20028.849    24.098311   0.94393226 
    7100    238.63207   -235.64522    216009.12    -18667.34    1387.7792   -20055.119     24.44434   0.94393226 
    7200    239.69035   -358.15754    216009.12   -18700.887    1393.9337   -20094.821    24.790361   0.94393226 
    7300    232.25301   -365.59635    216009.12   -18721.399    1350.6814    -20072.08    25.045822   0.94393226 
    7400    238.58219   -230.26193    216009.12     -18710.9    1387.4891   -20098.389    25.308156   0.94393226 
    7500    237.34779   -305.64756    216009.12   -18696.857    1380.3104   -20077.167    25.649488   0.94393226 
    7600    242.85787   -282.63696    216009.12   -18666.341    1412.3546   -20078.696    26.003777   0.94393226 
    7700    236.38258   -320.82429    216009.12   -18668.697    1374.6972   -20043.395    26.274053   0.94393226 
    7800    236.43171   -234.62064    216009.12   -18707.569    1374.9829   -20082.552    26.609297   0.94393226 
    7900     241.1897   -295.19203    216009.12   -18690.495    1402.6533   -20093.148     27.42682   0.94393226 
    8000    243.79475    -387.6971    216009.12   -18630.679    1417.8031   -20048.482    28.040153   0.94393226 
    8100    240.57825   -292.39162    216009.12   -18622.734    1399.0973   -20021.831    28.473962   0.94393226 
    8200    239.70474   -455.54363    216009.12   -18633.097    1394.0174   -20027.114    28.829064   0.94393226 
    8300    247.66617   -192.67609    216009.12   -18599.069    1440.3176   -20039.387    29.411187   0.94393226 
    8400    243.20935   -391.31661    216009.12   -18577.547    1414.3987   -19991.946    29.744277   0.94393226 
    8500    241.78326   -384.09707    216009.12   -18611.108    1406.1052   -20017.213    29.729751   0.94393226 
    8600    245.86672   -401.86263    216009.12   -18638.685    1429.8528   -20068.538    30.058489   0.94393226 
    8700    245.72968   -262.46376    216009.12   -18642.335    1429.0558   -20071.391    30.287181   0.94393226 
    8800    235.17034   -238.06877    216009.12   -18649.372    1367.6473   -20017.019     30.57413   0.94393226 
    8900    237.33036   -228.02647    216009.12   -18677.882     1380.209   -20058.091    31.029494   0.94393226 
    9000    242.11989   -133.23008    216009.12   -18658.168    1408.0628   -20066.231    31.420017   0.94393226 
    9100    240.53338   -305.29501    216009.12   -18694.552    1398.8364   -20093.388    31.684641   0.94393226 
    9200    243.01227   -344.43823    216009.12    -18659.56    1413.2525   -20072.812     32.05584   0.94393226 
    9300    234.22574   -405.00829    216009.12   -18728.273    1362.1539   -20090.427    32.653959   0.94393226 
    9400     238.5675   -296.61431    216009.12   -18708.373    1387.4037   -20095.776    32.764569   0.94393226 
    9500    235.25405   -372.49713    216009.12   -18728.072    1368.1341   -20096.206    33.058199   0.94393226 
    9600    235.74441    -228.6551    216009.12    -18733.98    1370.9858   -20104.966    33.685835   0.94393226 
    9700    239.06177   -321.86786    216009.12   -18699.842    1390.2781    -20090.12    34.093972   0.94393226 
    9800    244.03211   -126.85894    216009.12   -18651.845    1419.1835   -20071.028    34.235444   0.94393226 
    9900    244.69763    -278.0607    216009.12   -18680.845    1423.0538   -20103.898    34.566504   0.94393226 
   10000    242.70637   -363.13558    216009.12   -18690.951    1411.4736   -20102.425    35.076154   0.94393226 
Loop time of 14.7385 on 160 procs for 10000 steps with 9248 atoms

Performance: 293.109 ns/day, 0.082 hours/ns, 678.493 timesteps/s
97.7% CPU use with 160 MPI tasks x no OpenMP threads

MPI task timing breakdown:
Section |  min time  |  avg time  |  max time  |%varavg| %total
---------------------------------------------------------------
Pair    | 0.00046539 | 2.9721     | 12.174     | 237.8 | 20.17
Neigh   | 0.00032043 | 0.095763   | 0.3645     |  39.4 |  0.65
Comm    | 0.018023   | 3.6573     | 11.873     | 221.4 | 24.81
Output  | 0.18572    | 0.1859     | 0.19264    |   0.1 |  1.26
Modify  | 0.3906     | 7.6509     | 14.363     | 223.5 | 51.91
Other   |            | 0.1765     |            |       |  1.20

Nlocal:    57.8 ave 196 max 0 min
Histogram: 72 21 27 0 0 0 0 0 13 27
Nghost:    535.475 ave 925 max 0 min
Histogram: 24 0 0 8 8 42 30 16 16 16
Neighs:    0 ave 0 max 0 min
Histogram: 160 0 0 0 0 0 0 0 0 0
FullNghs:  5901.46 ave 23666 max 0 min
Histogram: 103 17 0 0 0 0 0 2 20 18

Total # of neighbors = 944234
Ave neighs/atom = 102.101
Neighbor list builds = 574
Dangerous builds = 0
write_data 	    ${DIR}/data.${NAME}_eq
write_data 	    run_24/data.${NAME}_eq
write_data 	    run_24/data.ibeam_cooling_24_eq

undump              1
unfix               4



################################################
#######         Run Simulation         #########
################################################

reset_timestep      0
timestep	    10.0
log                 ${DIR}/log.run_${NAME}
log                 run_24/log.run_${NAME}
log                 run_24/log.run_ibeam_cooling_24
