
# Set production fixes - Nose/Hoover
#
fix                 4 water temp/csvr ${START_TEMP} ${END_TEMP} 500.0 928347
fix                 4 water temp/csvr 240 ${END_TEMP} 500.0 928347
fix                 4 water temp/csvr 240 227 500.0 928347


## divide "droplet" into core and surface
#region		core_reg cylinder z 135 135 44.6 20 INF units box
#region		surface_reg cylinder z 135 135 44.6 20 INF units box side out
#group		core dynamic all region core_reg
#group		surface dynamic all region surface_reg

## compute pressure core
#compute        peratom_core core stress/atom NULL
#compute        p_core core reduce sum c_peratom_core[1] c_peratom_core[2] c_peratom_core[3]
#variable       press_core equal -(c_p_core[1]+c_p_core[2]+c_p_core[3])/(3*1249982.5)


## compute pressure surface
#compute        peratom_surf surface stress/atom NULL
#compute        p_surf surface reduce sum c_peratom_surf[1] c_peratom_surf[2] #c_peratom_surf[3]
#variable       press_surf equal -(c_p_surf[1]+c_p_surf[2]+c_p_surf[3])/(3*42395)

## compute total pressure of drop
compute        peratom water stress/atom NULL
compute        p water reduce sum c_peratom[1] c_peratom[2] c_peratom[3]
variable       press equal -(c_p[1]+c_p[2]+c_p[3])/(3*50320)


# compute order parameter
compute        3 all orientorder/atom nnn NULL cutoff 3.5

# compute center of mass of bridge
compute 	4 water com

# Run simulation
thermo_style        custom step c_2 press vol etotal ke pe v_press c_1[4] c_4[*]
thermo              200
dump		     1 water custom 400 ${DIR}/prod.${NAME}.dump id type x y z vx vy vz c_3[*] c_peratom[*]
dump		     1 water custom 400 run_24/prod.${NAME}.dump id type x y z vx vy vz c_3[*] c_peratom[*]
dump		     1 water custom 400 run_24/prod.ibeam_cooling_24.dump id type x y z vx vy vz c_3[*] c_peratom[*]
run                 ${STEPS}
run                 5200000
Neighbor list info ...
  update every 1 steps, delay 0 steps, check yes
  max neighbors/atom: 2000, page size: 100000
  master list distance cutoff = 6.67472
  ghost atom cutoff = 6.67472
  binsize = 3.33736, bins = 48 13 11
  2 neighbor lists, perpetual/occasional/extra = 1 1 0
  (1) pair sw, perpetual
      attributes: full, newton on
      pair build: full/bin/atomonly
      stencil: full/bin/3d
      bin: standard
  (2) compute orientorder/atom, occasional, copy from (1)
      attributes: full, newton on
      pair build: copy
      stencil: none
      bin: none
Per MPI rank memory allocation (min/avg/max) = 0.8529 | 5.954 | 7.143 Mbytes
Step c_2 Press Volume TotEng KinEng PotEng v_press c_1[4] c_4[1] c_4[2] c_4[3] 
       0    242.70637   -363.13558    216009.12   -18690.951    1411.4736   -20102.425   -975.22243    35.076154    78.746693    22.606944    25.635311 
     200    235.19578   -301.07339    216009.12     -18720.4    1367.7953   -20088.195   -685.00916    36.507062    78.744449    22.605207    25.640105 
     400    237.78763   -164.65705    216009.12   -18696.829    1382.8683   -20079.697   -125.96418    37.446197    78.749732    22.602854    25.626146 
     600    246.86231    -430.6949    216009.12   -18564.821    1435.6427   -20000.463   -1251.7151    39.140575     78.75308    22.601835    25.613201 
     800    244.34946   -254.30939    216009.12   -18520.193    1421.0291   -19941.222   -525.96735    40.062961    78.751993    22.603316    25.614938 
    1000    236.34858   -343.85005    216009.12    -18620.18    1374.4995    -19994.68   -900.80264    41.040333    78.752352    22.600879    25.625042 
    1200     250.2223   -278.77209    216009.12   -18563.639    1455.1829   -20018.822   -569.28702    41.425496    78.752782    22.597206    25.620526 
    1400    243.62526   -328.69062    216009.12   -18552.656    1416.8174   -19969.473   -822.19552    42.884563    78.754195    22.596187    25.613988 
    1600    238.61341   -327.57935    216009.12   -18562.122    1387.6707   -19949.792   -821.39018    42.864693    78.753674    22.596562    25.591332 
    1800    238.69303   -350.61936    216009.12   -18506.077    1388.1337   -19894.211   -941.18945    44.060219    78.754038    22.596216    25.578515 
    2000    245.24633   -296.67621    216009.12   -18446.995    1426.2448    -19873.24   -692.44308    45.326106    78.753726    22.596395    25.583184 
    2200    236.94011   -247.77351    216009.12   -18537.707    1377.9395   -19915.646   -513.48326    46.930605    78.753293    22.594842    25.569659 
    2400    244.59831   -208.32223    216009.12    -18530.07    1422.4763   -19952.546   -328.82443    49.287448    78.752616    22.595871    25.582977 
    2600    236.78687   -439.44035    216009.12   -18565.483    1377.0484   -19942.532   -1251.2918    51.652357    78.754661    22.596247     25.59274 
    2800    245.92167   -274.93226    216009.12   -18506.646    1430.1724   -19936.818   -572.66043    53.711993    78.754908    22.595987    25.621878 
    3000    240.42648    -189.5087    216009.12   -18524.547    1398.2147   -19922.761   -223.58933    55.657225    78.756871    22.595235    25.635359 
    3200    234.14807   -292.06851    216009.12   -18574.863    1361.7023   -19936.566   -664.56026      58.1819    78.755312    22.594369    25.664612 
    3400    238.33603   -259.67574    216009.12   -18578.816    1386.0576   -19964.873   -553.31529    59.456492    78.756159    22.592125    25.658642 
    3600    236.77243   -118.48365    216009.12   -18566.279    1376.9644   -19943.244    70.729427    60.569849     78.75527    22.591295     25.65091 
    3800    245.10818   -406.54407    216009.12   -18533.538    1425.4414   -19958.979   -1190.9434    62.109289    78.758022    22.588591    25.647505 
    4000    234.69933   -324.13493    216009.12   -18606.935    1364.9082   -19971.844   -814.46912    64.072745    78.759237     22.58698    25.640441 
    4200    245.05141   -274.80492    216009.12   -18571.894    1425.1112   -19997.005    -549.5554    65.038618     78.75642    22.586911    25.648155 
    4400    238.76834   -341.08231    216009.12   -18563.649    1388.5717   -19952.221   -894.82888    66.692054    78.756341    22.587003    25.656179 
    4600      229.138   -222.23397    216009.12   -18640.745    1332.5659   -19973.311   -354.34921    67.277033    78.756982    22.588356    25.648751 
    4800     244.8219   -518.40417    216009.12    -18515.71    1423.7766   -19939.486   -1611.7975    68.581913    78.752837    22.587752    25.643908 
    5000    243.81001   -173.92764    216009.12   -18581.612    1417.8919   -19999.504   -138.01145    69.831392     78.75207    22.586695    25.641005 
    5200    233.58436   -186.87757    216009.12   -18572.438     1358.424   -19930.862   -200.20828    71.228881     78.75507    22.584577    25.600244 
    5400     235.4709   -379.67084    216009.12   -18585.253    1369.3952   -19954.649   -1020.3867    73.571911    78.756527    22.585881    25.591611 
    5600    237.20676   -378.00458    216009.12   -18593.395    1379.4902   -19972.885   -1054.1348    73.081059    78.755221    22.587953    25.605601 
    5800    235.63629   -265.99325    216009.12   -18533.996    1370.3571   -19904.353   -588.87275    75.187559    78.756252    22.589231    25.588601 
    6000    234.64268   -317.05784    216009.12   -18563.511    1364.5787    -19928.09   -783.32523    76.896386    78.756556    22.589841    25.588576 
    6200    236.77995   -361.24527    216009.12   -18574.269    1377.0081   -19951.277   -963.84669    78.316749    78.755577    22.589604    25.589886 
    6400    243.62863   -286.86808    216009.12   -18529.074     1416.837   -19945.911   -668.38104    80.279865    78.757749    22.590342    25.568336 
    6600    238.46642   -412.44188    216009.12   -18553.742    1386.8159   -19940.558   -1184.1599    83.148029    78.756574    22.593107    25.581045 
    6800    243.80981   -267.24646    216009.12    -18565.59    1417.8907   -19983.481   -633.96715    84.379661    78.758125    22.593598    25.554677 
    7000    239.31111     -284.671    216009.12   -18517.782    1391.7282    -19909.51   -623.34556    85.772649    78.758351    22.593288    25.534594 
    7200     232.2467   -352.20619    216009.12   -18590.929    1350.6447   -19941.573   -903.91932    85.877164    78.758542    22.592713    25.541503 
    7400    237.13933   -231.67226    216009.12   -18577.282    1379.0981    -19956.38   -365.76064     87.00272    78.758057     22.59426    25.534783 
    7600    244.20634    -90.02856    216009.12   -18499.578    1420.1967   -19919.774    193.44715    88.497818    78.758447    22.594116    25.485097 
    7800    238.47244   -223.60708    216009.12   -18600.529    1386.8509   -19987.379   -314.89715    90.366323    78.758287    22.593607    25.492025 
    8000    248.05099   -326.73877    216009.12   -18536.264    1442.5555   -19978.819   -840.00822    91.909023    78.759238    22.593776    25.492728 
    8200    240.50392   -190.19407    216009.12   -18570.367    1398.6651   -19969.032   -240.65745    93.235592    78.761054    22.593649    25.504963 
    8400    244.02134    -301.7882    216009.12   -18540.781    1419.1208   -19959.902   -664.73208    93.995733    78.763201    22.595372    25.514625 
    8600     235.3381   -392.69885    216009.12   -18595.517    1368.6229    -19964.14    -1098.816    95.142735    78.763947    22.596802    25.520251 
    8800    233.28111    -315.9235    216009.12   -18591.688    1356.6604   -19948.348   -766.29251    96.637474    78.763904    22.595707    25.546747 
    9000    238.57494   -340.83633    216009.12   -18564.956     1387.447   -19952.403   -870.30808    96.953781     78.76227    22.596999    25.543241 
    9200    236.66938   -410.44166    216009.12   -18554.363    1376.3651   -19930.728   -1164.4637    97.950557    78.761834     22.59477    25.532884 
    9400    240.54443   -285.14787    216009.12   -18590.828    1398.9006   -19989.729   -679.55599    99.069524    78.761669     22.59677     25.53657 
    9600    234.32202   -377.45767    216009.12   -18649.141    1362.7139   -20011.855    -1013.172    100.50332    78.758065    22.598954    25.503516 
    9800    249.65336   -334.04365    216009.12   -18562.791    1451.8742   -20014.665   -832.83431    101.65562    78.756743     22.59793     25.50689 
   10000    239.56316   -251.22502    216009.12   -18583.619     1393.194   -19976.813   -522.57368    102.61772    78.754991    22.598063    25.490278 
   10200    249.44972   -133.77565    216009.12   -18539.679    1450.6899   -19990.369    12.256321    103.63642    78.754731    22.597701    25.498584 
   10400     245.1431   -240.72735    216009.12    -18529.01    1425.6445   -19954.654   -471.94998    104.27809    78.756365    22.597641    25.468292 
   10600    232.55902   -381.66074    216009.12   -18632.701     1352.461   -19985.162   -1012.3141    105.75117    78.755678    22.595755    25.455533 
   10800    237.65843   -279.36662    216009.12   -18641.187     1382.117   -20023.304   -609.49017    106.83215    78.757032    22.596772    25.448082 
   11000    240.89504   -341.06772    216009.12   -18644.817    1400.9397   -20045.756    -875.6477    108.26126    78.758416    22.596416    25.449067 
   11200    240.21533   -533.83236    216009.12   -18630.834    1396.9867   -20027.821    -1713.302    109.36589    78.756736    22.596729    25.425725 
   11400    238.42106   -344.55925    216009.12   -18626.969    1386.5521   -20013.521   -896.45713    110.51255    78.753997    22.597135    25.441681 
   11600     241.6448   -202.67177    216009.12   -18552.718    1405.2999   -19958.018   -272.11807    111.89423    78.753137    22.599129    25.432654 
   11800    237.65565   -419.14952    216009.12   -18544.472    1382.1008   -19926.573   -1240.2924    113.81124    78.754159    22.597899    25.435391 
   12000    248.99906   -18.165136    216009.12   -18581.558    1448.0691   -20029.627    475.13783    115.45581    78.754706       22.598    25.436859 
   12200    232.83256    -339.4776    216009.12   -18589.552    1354.0518   -19943.604   -861.04584     115.7882    78.754473    22.598044    25.443996 
   12400     241.9941   -278.65033    216009.12   -18581.723    1407.3313   -19989.054   -583.98261    116.97733    78.755718    22.598807    25.429993 
   12600    242.99579   -314.61186    216009.12   -18520.652    1413.1567   -19933.809   -745.81918    118.55533    78.757091    22.600506    25.445266 
   12800    239.49201   -303.45537    216009.12   -18554.553    1392.7803   -19947.334   -710.62631    119.23765    78.756439    22.601024    25.421618 
   13000    233.58827   -301.07943    216009.12   -18583.356    1358.4467   -19941.802   -715.01835    120.61759    78.755618    22.599019    25.422537 
   13200    234.37291   -195.48157    216009.12   -18615.174    1363.0098   -19978.184   -276.80934    122.24459    78.756492    22.596987    25.439708 
   13400    233.95593   -357.30522    216009.12   -18668.253    1360.5848   -20028.838   -940.01514    123.38416    78.758185    22.595217    25.430605 
   13600    240.07589   -352.60344    216009.12   -18621.632    1396.1758   -20017.808   -916.52002    124.55515    78.758461    22.592653    25.422682 
   13800    238.65565   -224.49227    216009.12   -18537.637    1387.9164   -19925.553    -392.8449    125.31122    78.759885    22.593016    25.429785 
   14000    250.81981   -213.37206    216009.12   -18498.853    1458.6578    -19957.51   -341.41063    128.14242    78.762907    22.595815    25.419084 
   14200    245.85275   -238.36635    216009.12   -18585.761    1429.7715   -20015.533    -427.4183    128.62443    78.763236    22.595607    25.414626 
   14400    231.90551   -289.58286    216009.12   -18624.315    1348.6605   -19972.975   -664.14319    131.09351    78.762599    22.596121    25.380043 
   14600     240.4332   -436.02403    216009.12   -18603.346    1398.2538     -20001.6   -1300.3905    133.10321    78.764303    22.595073    25.395285 
   14800    240.22458   -367.47203    216009.12   -18571.698    1397.0406   -19968.738   -961.82015    134.92696    78.761363    22.594901    25.390899 
   15000    243.21324   -335.25994    216009.12   -18593.596    1414.4213   -20008.017   -852.09185    133.83318     78.75935    22.594138    25.396985 
   15200    242.06515    -264.8961    216009.12   -18595.963    1407.7445   -20003.708    -536.3575    134.34719    78.763447    22.594259    25.434052 
   15400    242.02276   -352.71769    216009.12    -18632.03     1407.498   -20039.528   -939.38284    136.25847    78.767149    22.593784     25.42876 
   15600    250.39786   -310.95538    216009.12   -18470.797    1456.2039   -19927.001   -735.16036     138.5395    78.768877    22.592725    25.421005 
   15800    235.91991   -284.08881    216009.12   -18516.991    1372.0065   -19888.998   -643.90899    139.30985     78.77094    22.594248    25.402548 
   16000     235.0368   -262.14615    216009.12   -18555.013    1366.8707   -19921.883   -512.11329    139.99558    78.771076    22.594579    25.420794 
   16200    243.22344   -338.64024    216009.12   -18560.194    1414.4806   -19974.674   -857.64599    142.73035    78.772057    22.596817    25.400974 
   16400    234.87348   -218.40539    216009.12   -18584.243    1365.9209   -19950.164    -361.4089    144.17354    78.770814    22.597172    25.409591 
   16600     242.1999   -419.14527    216009.12   -18517.442    1408.5282    -19925.97    -1217.702    144.72185    78.771085    22.596766     25.41848 
   16800    248.74738   -222.79767    216009.12   -18552.929    1446.6054   -19999.534   -348.95809    145.97616    78.771628    22.596124    25.399845 
   17000    237.30955   -203.01131    216009.12    -18621.78     1380.088   -20001.868   -278.45786     147.1289     78.77154    22.595736    25.405637 
   17200    234.25293   -253.74072    216009.12   -18601.564    1362.3121   -19963.876   -532.61444    147.47296    78.772688    22.596004    25.409372 
   17400    233.14205   -346.04012    216009.12   -18667.642    1355.8517   -20023.493    -853.9853    148.85935    78.772691    22.596967    25.413465 
   17600    235.53838   -285.53324    216009.12   -18630.404    1369.7877   -20000.191   -622.31258    152.12858    78.771847    22.597508    25.410484 
   17800    239.64463   -287.97806    216009.12   -18633.943    1393.6678   -20027.611   -687.46074    153.78884    78.772529    22.597593    25.429716 
   18000    231.83968   -276.06361    216009.12   -18580.764    1348.2777   -19929.041   -599.96579    156.06751     78.77358    22.598019    25.413589 
   18200    240.01029    -251.1252    216009.12   -18648.176    1395.7943    -20043.97   -514.01888    156.00645    78.772737     22.59806    25.401657 
   18400    238.58745   -281.22129    216009.12   -18637.538    1387.5197   -20025.057   -622.21251    158.17651    78.773085    22.596661    25.422634 
   18600    246.56368   -259.53105    216009.12   -18621.893     1433.906   -20055.799   -546.96722    158.33759    78.774592    22.594561    25.424345 
   18800    239.93578    -238.4258    216009.12   -18674.613     1395.361   -20069.974   -449.88587    160.13767    78.774323    22.593862    25.445871 
   19000    242.71141   -344.07361    216009.12   -18578.434    1411.5029   -19989.937   -891.63635    162.91761    78.774695    22.591792    25.428871 
   19200    240.34718   -294.42908    216009.12   -18579.805    1397.7536   -19977.559   -672.61317    163.63356    78.774451    22.591426     25.40634 
   19400    252.64169   -339.30333    216009.12   -18533.241     1469.253   -20002.494   -856.28058    166.33947    78.773126    22.594754    25.422913 
   19600    243.02417   -343.42636    216009.12   -18564.262    1413.3217   -19977.583   -828.66151    167.88741    78.773211    22.594251    25.427796 
   19800    246.33983   -470.16966    216009.12   -18534.979    1432.6042   -19967.583   -1434.2272    167.86959    78.771574    22.593072    25.415914 
   20000    247.63598   -262.71569    216009.12   -18575.007     1440.142   -20015.149   -550.70894    169.10665    78.770808    22.594137    25.399472 
   20200    238.18646   -310.92831    216009.12    -18644.87    1385.1877   -20030.057   -743.11176     169.6637    78.769459    22.592715    25.423172 
   20400    243.57799    -169.3711    216009.12   -18580.099    1416.5425   -19996.642   -143.41394    169.31127     78.77122     22.58984     25.42545 
   20600    240.85823    -343.8946    216009.12   -18701.041    1400.7256   -20101.767   -895.57623    170.41679    78.773129    22.586415    25.390031 
   20800    237.21235   -277.24621    216009.12   -18649.232    1379.5228   -20028.755    -622.5298    172.27591    78.773682    22.587039    25.396834 
   21000    233.42426   -301.93544    216009.12   -18668.955    1357.4929   -20026.448   -658.41036    171.99113    78.773202    22.587766    25.389666 
   21200    243.29461   -316.53175    216009.12   -18594.973    1414.8945   -20009.867   -790.25199     172.5781    78.771388    22.586763    25.386892 
   21400    238.49867   -98.312963    216009.12   -18566.137    1387.0034    -19953.14    147.36105    172.23272    78.771381    22.585724    25.389764 
   21600    243.11331   -238.96331    216009.12   -18470.715    1413.8401   -19884.555   -448.36761    173.54882    78.770162    22.586103    25.385536 
   21800    242.28441    -317.7759    216009.12   -18614.087    1409.0196   -20023.107   -801.73627    174.41911    78.767253    22.586683    25.411287 
   22000    233.90766   -273.39831    216009.12   -18655.612    1360.3041   -20015.917   -592.46449    176.10191    78.768146    22.586168    25.424019 
   22200    237.29822   -345.29339    216009.12   -18676.016    1380.0221   -20056.038   -942.09935    177.99046    78.768483    22.586266    25.444087 
   22400    247.07882   -201.03987    216009.12   -18560.953    1436.9018   -19997.855    -317.4025    179.73173    78.767382    22.585943    25.464304 
   22600    244.44681   -211.59174    216009.12   -18584.838    1421.5952   -20006.433   -323.97807     182.0761    78.766876    22.587221    25.453887 
   22800     247.5914   -253.72221    216009.12   -18562.794    1439.8828   -20002.677   -502.40509    184.41367     78.76521    22.588148    25.460045 
   23000    247.69351   -352.34526    216009.12   -18662.402    1440.4766   -20102.878   -894.28759    184.78948    78.763572    22.588462    25.454321 
   23200    241.66934   -304.12533    216009.12   -18609.697    1405.4426   -20015.139    -711.5131    185.88719    78.762801    22.590251    25.461347 
   23400    240.88659    -396.6421    216009.12   -18607.122    1400.8905   -20008.012   -1126.1534     187.4995    78.762514    22.591116    25.466884 
   23600    239.81365   -158.25276    216009.12   -18533.007    1394.6508   -19927.658   -116.80487    187.93573    78.762306    22.592074    25.465935 
   23800    238.72928   -378.82312    216009.12   -18558.453    1388.3445   -19946.798   -1085.3185    189.73554     78.76289    22.594037    25.470133 
   24000    240.97371   -262.72969    216009.12   -18629.981    1401.3972   -20031.378   -536.96092     189.8887    78.764332    22.594074     25.48306 
   24200    239.62849   -203.89906    216009.12   -18623.616     1393.574    -20017.19    -286.1085    192.23047    78.763207    22.592661    25.477688 
   24400    231.51067   -218.36086    216009.12   -18647.936    1346.3643     -19994.3   -367.19844    195.13795    78.764723    22.591608    25.512937 
   24600    236.32651   -279.98066    216009.12    -18676.17    1374.3711   -20050.541   -657.35234    196.96031    78.765523    22.593852    25.529828 
   24800     240.7697   -307.25239    216009.12   -18653.305    1400.2107   -20053.516   -703.94084     198.2838     78.76647    22.596156    25.511308 
   25000    241.92471   -149.70145    216009.12   -18648.283    1406.9278   -20055.211   -71.834303    199.07702    78.766076    22.595595    25.490519 
   25200    234.22939   -280.09327    216009.12   -18756.041    1362.1752   -20118.216   -626.70182    200.73814    78.767417    22.594315    25.497842 
   25400    245.39125   -410.25434    216009.12   -18684.435    1427.0876   -20111.523   -1136.8445    201.78265    78.768943    22.592794    25.514599 
   25600    248.86039    -225.5746    216009.12   -18519.319    1447.2626   -19966.581   -396.54804    201.75568    78.768995    22.593442     25.50917 
   25800    241.85541   -275.37422    216009.12    -18564.05    1406.5247   -19970.575   -637.32698     203.7024    78.769271    22.593133    25.484573 
   26000    238.34724   -392.32885    216009.12   -18581.453    1386.1228   -19967.575   -1106.4967    203.34385    78.770768    22.590584    25.509489 
   26200    240.94788   -339.96723    216009.12   -18600.593    1401.2469    -20001.84   -837.39732    206.32335     78.77283    22.589696    25.526757 
   26400    241.58636   -371.79801    216009.12   -18629.798    1404.9601   -20034.758    -1026.068    208.22521    78.774306    22.589808     25.51591 
   26600    246.21779   -435.38703    216009.12   -18551.439    1431.8944   -19983.333   -1236.4636    211.00248    78.776494    22.588105    25.537449 
   26800    232.70427   -347.11014    216009.12   -18597.128    1353.3057   -19950.434   -842.45154    212.67002    78.778409    22.587004     25.55634 
   27000    244.73838   -214.64448    216009.12   -18532.891    1423.2908   -19956.181   -334.76925    214.35668    78.781258    22.585354    25.560641 
   27200    231.64125   -322.21312    216009.12   -18588.196    1347.1237    -19935.32   -824.00847    215.81463    78.780654    22.583912    25.561282 
   27400    249.16853   -229.33224    216009.12   -18541.983    1449.0546   -19991.038   -429.12878    217.80331    78.776797    22.584062    25.587601 
   27600    235.12164   -422.50479    216009.12   -18673.376    1367.3641    -20040.74   -1240.8383    217.18674    78.776883    22.585737    25.577064 
   27800    241.93317   -369.91382    216009.12   -18563.576    1406.9769   -19970.553   -994.04572    216.22187    78.775747    22.587963    25.564509 
   28000    241.95489   -242.31846    216009.12   -18656.431    1407.1033   -20063.535   -465.28565    216.30535      78.7755    22.586074    25.560628 
   28200    239.53569   -181.89447    216009.12   -18627.326    1393.0343    -20020.36   -169.97735    216.29032    78.774245    22.586874    25.568872 
   28400    237.74212   -369.85184    216009.12   -18631.606    1382.6037   -20014.209    -1010.863    218.70989    78.773438    22.587891    25.582055 
   28600    244.25556   -280.97226    216009.12   -18642.309     1420.483   -20062.792   -612.98555    219.39506    78.775507    22.587713    25.589644 
   28800    237.05008   -410.96453    216009.12   -18660.444    1378.5791   -20039.023   -1194.6197    222.52725    78.777126    22.591585    25.573897 
   29000    240.22993   -373.00095    216009.12   -18637.882    1397.0716   -20034.954     -1053.68    222.36035     78.77743     22.59258     25.56825 
   29200    239.28971   -292.63957    216009.12   -18600.796    1391.6038     -19992.4   -648.38265      224.325    78.777008    22.592016    25.533304 
   29400    235.96847   -341.10517    216009.12   -18589.781    1372.2889    -19962.07   -852.99487    225.64247    78.776215    22.594241    25.511771 
   29600     237.2195   -383.01694    216009.12    -18600.29    1379.5643   -19979.855   -1050.5539    225.42617    78.775082    22.596252    25.503386 
   29800    231.22485   -270.92612    216009.12    -18692.32    1344.7021   -20037.022   -524.80289    226.38257     78.77492    22.597869    25.480702 
   30000    237.04301    -358.0421    216009.12   -18717.727     1378.538   -20096.265   -938.90832    229.81781    78.775249    22.599205     25.47212 
   30200    238.21352   -208.45933    216009.12   -18659.984    1385.3451   -20045.329   -342.84196    228.93079    78.775684     22.59811    25.450342 
   30400    241.95938   -380.96993    216009.12   -18643.898    1407.1294   -20051.028    -1021.202    230.11823     78.77601    22.596399    25.470413 
   30600    238.99409   -338.98143    216009.12   -18675.763    1389.8846   -20065.647   -915.26636    231.49875    78.774954    22.594818    25.466814 
   30800    238.54497    -374.2187    216009.12   -18591.031    1387.2727   -19978.304   -1008.5352    233.63877    78.774791    22.595507    25.477478 
   31000    238.56169   -476.81105    216009.12   -18582.265    1387.3699   -19969.635   -1503.3562    232.72382    78.773098    22.594828    25.464419 
   31200    242.62223   -268.59445    216009.12   -18568.875    1410.9843   -19979.859    -600.4217     235.5662    78.771539    22.595796    25.510575 
   31400    238.93594   -424.49804    216009.12   -18583.368    1389.5464   -19972.914   -1269.2183    239.56154    78.771461    22.594676    25.504908 
   31600      240.924   -480.07716    216009.12   -18615.246    1401.1081   -20016.354   -1496.1434    239.61448     78.77217    22.593865    25.507277 
   31800    242.41828   -404.46703    216009.12   -18548.162    1409.7982    -19957.96   -1173.3846    241.89819    78.773683    22.593348    25.488267 
   32000    230.04402   -278.43742    216009.12   -18640.988    1337.8349   -19978.822   -591.03129    242.59024    78.770961    22.594374    25.510836 
   32200    237.30563   -376.60507    216009.12   -18600.679    1380.0652   -19980.744   -992.00312    243.84905    78.771108    22.596372    25.497529 
   32400    239.47725    -166.2448    216009.12   -18568.231    1392.6944   -19960.925   -107.59353    244.53497    78.772572    22.596248    25.489114 
   32600    246.40088   -446.28745    216009.12   -18540.636    1432.9592   -19973.596   -1283.6088    244.03109    78.771418    22.593872    25.484093 
   32800     241.4919   -361.76628    216009.12   -18550.326    1404.4107   -19954.736   -968.12945    244.64354    78.772092    22.594504    25.480165 
   33000    246.51871   -250.26885    216009.12    -18547.35    1433.6445   -19980.995   -444.06935    244.20394    78.768698    22.593661    25.480541 
   33200    234.63592   -309.38925    216009.12   -18560.926    1364.5394   -19925.465   -781.35771    245.04822    78.769115     22.59586    25.441666 
   33400    232.08779    -304.5937    216009.12   -18622.927    1349.7206   -19972.648   -700.81513    245.70979    78.770282    22.598836    25.423418 
   33600    234.74566   -372.52112    216009.12   -18615.869    1365.1775   -19981.047   -997.91244    250.14704       78.771      22.6003      25.4103 
   33800    246.70637   -453.61167    216009.12   -18456.727    1434.7358   -19891.463    -1301.284    250.45444    78.769595    22.603261    25.428001 
   34000    237.23956   -206.00405    216009.12   -18546.751     1379.681   -19926.432   -335.47045    250.69379    78.768399    22.602121    25.438336 
   34200    236.72904   -260.49994    216009.12   -18523.744     1376.712   -19900.456   -540.13963    252.01247    78.770569    22.599625    25.439406 
   34400    242.73906   -318.71567    216009.12   -18590.618    1411.6636   -20002.281   -777.82652    253.27283    78.772547    22.599988     25.42297 
   34600    241.23256   -240.43123    216009.12   -18496.726    1402.9025   -19899.629   -446.94946    253.22035    78.772278    22.601772    25.416373 
   34800    240.45187    -251.4042    216009.12   -18587.369    1398.3624   -19985.731   -493.55959    253.21435    78.773623    22.601617    25.406024 
   35000    238.08016   -301.53493    216009.12   -18587.749    1384.5695   -19972.319   -716.14401    254.27273    78.774876    22.602921    25.400129 
   35200    247.59373   -242.70595    216009.12   -18501.106    1439.8963   -19941.003   -449.62023    256.59941     78.77512    22.606248    25.404868 
   35400    244.68878    -274.4563    216009.12   -18515.693    1423.0024   -19938.696   -576.81983    259.25788    78.775179     22.60582    25.399766 
   35600    241.60849   -277.04175    216009.12   -18563.296    1405.0888   -19968.384   -620.88952    259.23526    78.774713    22.606146    25.396273 
   35800     247.7094   -421.46067    216009.12   -18509.958     1440.569   -19950.527   -1214.7186    261.61354    78.774327    22.606761    25.407008 
   36000    234.51334   -467.91645    216009.12   -18604.158    1363.8265   -19967.984    -1418.725    261.21189    78.774114    22.604932    25.418246 
   36200     244.9969   -298.15262    216009.12   -18559.462    1424.7943   -19984.256   -640.87829    262.92192    78.772156    22.604909    25.423885 
   36400    242.71096   -247.05874    216009.12   -18544.041    1411.5003   -19955.541   -422.96548    266.53127    78.771961     22.60464    25.439609 
   36600    243.91534   -364.59694    216009.12   -18577.001    1418.5044   -19995.506   -1023.7416    267.21005     78.77389    22.605264    25.456455 
   36800    235.66571   -479.31188    216009.12   -18633.726    1370.5282   -20004.255   -1427.3594    269.30049    78.773276      22.6064    25.456741 
   37000    244.16483   -144.94186    216009.12   -18621.207    1419.9553   -20041.163   -28.099239    270.63964    78.775255    22.606064    25.481362 
   37200    234.75151   -277.69051    216009.12   -18638.075    1365.2116   -20003.287   -599.55302    271.60183    78.774991    22.608696    25.487979 
   37400    240.06838   -435.69639    216009.12   -18609.193    1396.1322   -20005.325   -1273.7925     273.3094    78.775658    22.608593    25.477197 
   37600     240.9462   -218.51057    216009.12   -18602.546    1401.2372   -20003.783   -348.09198    273.27626    78.776098    22.609989    25.479487 
   37800    234.63482   -399.08265    216009.12   -18667.681     1364.533   -20032.214   -1121.4927     273.3462    78.775334    22.610425    25.502624 
   38000    239.35922   -375.73506    216009.12   -18613.787     1392.008   -20005.795    -976.1332    276.07569    78.773275    22.608525    25.517768 
   38200    242.88048   -240.13561    216009.12   -18617.135    1412.4861   -20029.621   -405.94358    277.94236     78.77193    22.608689    25.515027 
   38400    243.44942   -400.06593    216009.12   -18585.659    1415.7948   -20001.454   -1114.3635    278.69625    78.770885    22.610117    25.512307 
   38600    244.96328   -294.53126    216009.12   -18641.075    1424.5987   -20065.673    -707.0848    279.65209    78.771627    22.612089    25.512031 
   38800    244.51772   -456.09934    216009.12   -18631.032    1422.0076   -20053.039   -1430.3675    281.75999    78.771644    22.612989    25.507494 
   39000    241.62458    -401.4359    216009.12   -18547.155    1405.1823   -19952.338   -1141.0466    281.74087     78.77179    22.611522    25.520785 
   39200    236.40555   -260.76587    216009.12   -18603.539    1374.8308    -19978.37   -543.77627    283.91064    78.770997    22.611796    25.545722 
   39400    245.02644   -261.63709    216009.12   -18559.585    1424.9661   -19984.551   -560.36202    283.47182    78.770081    22.610958    25.555239 
   39600    239.20828    -301.9906    216009.12   -18505.168    1391.1302   -19896.298   -694.76919    283.65427     78.76751    22.611805    25.586136 
   39800    240.21439   -446.48902    216009.12   -18582.987    1396.9813   -19979.968   -1311.2836    285.17345    78.766865    22.611032    25.576935 
   40000    247.21358   -225.01481    216009.12   -18566.989    1437.6855   -20004.674   -428.39518    287.11669    78.764732    22.611612     25.56162 
   40200    235.24358   -165.67939    216009.12   -18602.232    1368.0732   -19970.305   -126.90991    289.71778    78.763701    22.609365    25.567383 
   40400    233.46422    -261.3375    216009.12   -18640.205    1357.7253    -19997.93   -547.55413    290.07109    78.764194    22.611605    25.587428 
   40600    243.28044   -481.92399    216009.12   -18524.953    1414.8121   -19939.766   -1459.0464     291.4284     78.76329    22.612837    25.578638 
   40800    242.65574   -159.90436    216009.12   -18585.821    1411.1791       -19997   -132.13944    291.63276    78.762483    22.615169     25.58361 
   41000      240.933   -285.22422    216009.12   -18555.824    1401.1604   -19956.984   -665.78553    293.34332    78.763938    22.615436     25.58389 
   41200    245.78195   -343.03804    216009.12   -18476.145    1429.3598   -19905.505   -885.05052    292.60593    78.765784    22.616038    25.602835 
   41400    241.39406   -314.65821    216009.12   -18531.797    1403.8417   -19935.638   -748.65334    295.96187    78.765044    22.617207    25.610948 
   41600    240.45886   -302.29161    216009.12   -18520.995     1398.403   -19919.398   -681.78743    297.72036     78.76381    22.619703    25.614878 
   41800    241.20605   -237.24382    216009.12   -18546.229    1402.7484   -19948.978   -436.87708    300.14847    78.766605    22.621752    25.642785 
   42000    242.89685   -306.78492    216009.12   -18609.075    1412.5813   -20021.657    -698.5427    301.83475    78.769195    22.623124    25.661219 
   42200    232.41986   -477.81021    216009.12   -18650.427    1351.6517   -20002.079   -1460.2235    301.36461    78.770737    22.624035    25.663837 
   42400    244.51156   -320.82287    216009.12   -18609.621    1421.9717   -20031.593   -787.93126    301.88172    78.771968    22.626567    25.655374 
   42600    239.43602   -413.00674    216009.12   -18653.995    1392.4546   -20046.449   -1172.0615    305.84133    78.773469    22.628501    25.647651 
   42800    243.89458   -260.70602    216009.12   -18630.871    1418.3836   -20049.255   -515.28219     304.6149    78.773094    22.630436    25.634109 
   43000    242.78235   -351.38385    216009.12   -18643.125    1411.9154    -20055.04   -914.77554    304.55922     78.76962    22.633129    25.633666 
   43200    239.23341   -418.81559    216009.12   -18637.396    1391.2764   -20028.672   -1192.1977    304.59411    78.767065    22.634313    25.653925 
   43400    236.21942   -440.02218    216009.12   -18618.221    1373.7483   -19991.969   -1272.6943    305.47849    78.766161    22.635214    25.669525 
   43600    236.94205   -270.63138    216009.12   -18631.987    1377.9508   -20009.938   -551.27018    306.67529    78.765512    22.637331    25.686109 
   43800    235.70852   -324.01057    216009.12   -18677.352    1370.7771   -20048.129   -847.91424    307.51442    78.767281    22.635104    25.705229 
   44000    232.30847   -321.25471    216009.12   -18681.682    1351.0039   -20032.686   -800.61482    310.29509    78.769597    22.635791     25.68247 
   44200    238.45339   -325.33264    216009.12   -18606.522    1386.7401   -19993.262    -789.9827    310.61839    78.769407    22.636512    25.682402 
   44400    235.89251   -463.58794    216009.12    -18603.69    1371.8471   -19975.537   -1391.6315    312.83455    78.768452    22.635448    25.681194 
   44600    233.06362     -217.222    216009.12    -18583.32    1355.3956   -19938.716   -329.17616     312.6014    78.769108    22.635605    25.684645 
   44800    230.65753   -359.49911    216009.12   -18615.585    1341.4028   -19956.988   -946.15362    314.28718    78.766939    22.635564    25.655724 
   45000    237.60469   -451.91008    216009.12   -18631.762    1381.8044   -20013.566   -1376.1077     314.3122    78.764576    22.638588    25.660209 
   45200    243.27167   -277.61706    216009.12   -18568.675    1414.7611   -19983.436   -570.29788     315.1931    78.762629     22.63819    25.645505 
   45400    235.20573   -289.24684    216009.12    -18617.21    1367.8532   -19985.063   -693.95443     315.9772    78.761813    22.637291    25.628973 
   45600    246.69997   -412.06886    216009.12   -18535.906    1434.6986   -19970.604   -1185.4592    319.44336    78.762325    22.639557     25.59833 
   45800    240.98243   -195.98061    216009.12   -18575.678    1401.4479   -19977.126   -290.65952    319.40513    78.762118    22.637606    25.603173 
   46000    246.84555   -557.74156    216009.12   -18501.429    1435.5452   -19936.975   -1783.4299    319.66778    78.761749    22.636547    25.597301 
   46200    235.94671   -300.26669    216009.12   -18497.189    1372.1624   -19869.351   -680.19221    319.50044    78.762145    22.637659    25.599454 
   46400    238.42702   -241.53889    216009.12   -18562.997    1386.5867   -19949.584   -424.90515    321.10298    78.764577    22.638572    25.619962 
   46600    244.65098   -74.103603    216009.12     -18548.3    1422.7825   -19971.083    269.59621    322.01724    78.765581    22.639036    25.609632 
   46800    235.71168   -435.10133    216009.12   -18589.165    1370.7955   -19959.961   -1239.9083    322.27913    78.767217    22.638372    25.611795 
   47000    244.48004   -277.29646    216009.12   -18565.763    1421.7885   -19987.552   -635.26978    324.02633    78.767908    22.636483    25.612466 
   47200    239.08482   -353.46112    216009.12   -18648.611    1390.4122   -20039.023   -954.13566    324.19739    78.770194     22.63354    25.600506 
   47400    236.45176   -351.66781    216009.12   -18590.521    1375.0995   -19965.621   -898.49016    324.86325    78.768522    22.633102    25.617823 
   47600    241.45586   -287.86095    216009.12   -18609.409    1404.2012    -20013.61   -669.77229    327.73329    78.767136    22.631163    25.615183 
   47800    237.99884   -404.47155    216009.12   -18587.067    1384.0966   -19971.164   -1169.0149    328.70113    78.765623    22.634051    25.622969 
   48000    241.46871   -329.39918    216009.12   -18618.906    1404.2759   -20023.182     -825.576    331.12205    78.765207    22.634561    25.632459 
   48200     244.9113    -304.0274    216009.12   -18645.261    1424.2965   -20069.558   -746.14809    333.20714     78.76692    22.632772    25.628022 
   48400    241.46326    -291.7963    216009.12   -18619.613    1404.2442   -20023.857   -699.73244    332.58284    78.764841    22.631876    25.619814 
   48600    234.24792   -350.72263    216009.12    -18664.78    1362.2829   -20027.063   -916.30352    334.87026    78.766516    22.631373     25.62343 
   48800     239.5739   -275.38577    216009.12   -18633.863    1393.2565    -20027.12   -569.24846    335.73941    78.767834    22.629209    25.635548 
   49000    246.60561    -193.0661    216009.12   -18599.632    1434.1498   -20033.782   -250.30034    336.30176     78.76975    22.626825    25.614397 
   49200    245.03263   -231.38444    216009.12   -18563.142    1425.0021   -19988.144   -469.32237    338.70683    78.770569     22.62664    25.605608 
   49400    245.42513   -389.57139    216009.12   -18612.956    1427.2847   -20040.241   -1069.7155    339.74628    78.771833    22.624574    25.618766 
   49600    239.15805   -210.10923    216009.12   -18606.988    1390.8381   -19997.826    -300.0537    339.19194    78.768935    22.624426    25.610915 
   49800    236.47942   -235.19622    216009.12   -18594.144    1375.2603   -19969.405   -445.43757     340.0963    78.769175    22.625003    25.606762 
   50000    240.66525   -353.10738    216009.12    -18613.37    1399.6033   -20012.973   -937.52572    341.26459    78.768759    22.624891    25.608598 
   50200     236.6124   -380.75667    216009.12   -18567.799    1376.0337   -19943.833    -1034.839    342.29675    78.768989    22.622929     25.58704 
   50400    241.79497   -262.61195    216009.12   -18580.709    1406.1732   -19986.883   -568.98934    343.54301    78.770362    22.619667    25.580895 
   50600    253.81485   -300.71121    216009.12   -18471.185    1476.0756   -19947.261   -739.62284    345.58987    78.772972     22.62107    25.584501 
   50800    231.11379   -290.01683    216009.12   -18636.951    1344.0562   -19981.007   -661.41314     344.7458    78.771726    22.621297    25.582614 
   51000    239.91141   -361.80229    216009.12   -18593.961    1395.2193    -19989.18   -919.15108    345.08815    78.772681    22.622791      25.5653 
   51200    234.60039   -361.51971    216009.12   -18614.761    1364.3327   -19979.094    -991.4547    345.02326    78.772952    22.624283    25.569621 
   51400    237.69022   -226.44651    216009.12   -18589.105    1382.3018   -19971.407   -377.10755    347.75054    78.770875    22.624032    25.575365 
   51600    240.04157   -230.90573    216009.12    -18612.87    1395.9762   -20008.846   -419.15264    349.86577    78.771552    22.622714    25.575731 
   51800    242.69607   -285.34258    216009.12    -18579.25    1411.4137   -19990.664   -672.82896    352.18382    78.772235    22.621943    25.551716 
   52000    236.27684   -149.25591    216009.12    -18659.02    1374.0822   -20033.102   -81.997914    352.61948    78.771557    22.622623    25.555821 
   52200    232.70406   -465.32331    216009.12    -18654.02    1353.3045   -20007.324   -1432.9684    353.41586    78.769544    22.623542    25.544491 
   52400    235.45374   -251.23692    216009.12   -18698.385    1369.2954   -20067.681   -540.50692     353.5551    78.771068    22.625263    25.556838 
   52600    244.16129   -304.64428    216009.12   -18618.455    1419.9347    -20038.39   -748.39992    356.18299    78.771141    22.625226     25.56649 
   52800    249.47605   -374.82903    216009.12   -18545.794    1450.8431   -19996.637    -1013.388    358.07524    78.768823    22.624387    25.580553 
   53000    241.05019   -225.21246    216009.12   -18511.431    1401.8419   -19913.272   -380.64582    359.00875    78.769574    22.623248    25.578995 
   53200    238.15191   -192.81516    216009.12   -18613.934    1384.9868   -19998.921   -217.00118    359.08544    78.770189    22.623729    25.576941 
   53400    245.49199   -253.72498    216009.12   -18571.104    1427.6735   -19998.777   -548.21151    361.50486    78.772516    22.623471    25.583546 
   53600    231.71681   -328.68179    216009.12   -18660.979    1347.5631   -20008.542   -845.31414    362.86268    78.773778    22.622565     25.58861 
   53800    247.37215   -267.59104    216009.12   -18592.876    1438.6077   -20031.484   -589.51912    364.39504    78.771784    22.620256    25.596636 
   54000    237.64294   -488.91611    216009.12   -18565.703    1382.0268    -19947.73   -1543.0331    365.16645    78.773039    22.618342     25.62889 
   54200    244.08612   -273.82648    216009.12   -18559.924    1419.4976   -19979.421   -579.76354    367.35656    78.773658    22.617822    25.622607 
   54400    244.45355   -263.63675    216009.12   -18518.909    1421.6344   -19940.543   -548.72202    367.66435    78.773305    22.617833    25.632532 
   54600    241.43749   -291.09989    216009.12   -18563.476    1404.0943    -19967.57   -697.06029    369.54002    78.770649    22.618895    25.638431 
   54800    238.77942   -354.11342    216009.12   -18551.708    1388.6361   -19940.344    -940.7229    371.25514    78.772135    22.618126    25.636457 
   55000    252.52309   -298.30139    216009.12   -18489.317    1468.5633    -19957.88   -693.77859    372.56309    78.770874     22.61572    25.634985 
   55200    239.79435   -175.60499    216009.12    -18652.59    1394.5386   -20047.129   -143.46666    377.73032    78.770553    22.613924    25.676057 
   55400    242.65008   -425.28807    216009.12    -18617.98    1411.1462   -20029.126   -1259.8781    380.73599    78.770884    22.614922    25.694833 
   55600    242.43912   -195.82077    216009.12   -18603.132    1409.9193   -20013.051   -283.04587     379.8707    78.771414    22.615995    25.712318 
   55800    246.92458   -437.08807    216009.12   -18478.804    1436.0048   -19914.809   -1328.7199    383.35991    78.769546    22.616238    25.727372 
   56000    240.99493   -378.44994    216009.12   -18526.882    1401.5206   -19928.403   -1026.4422    383.71505    78.769087    22.618477    25.742444 
   56200    246.91168   -342.34632    216009.12   -18538.375    1435.9298   -19974.304   -875.49428    384.51264    78.770307    22.620982    25.766815 
   56400    234.62964   -424.69348    216009.12   -18654.846    1364.5029   -20019.349   -1216.5049    386.65531    78.770456    22.623603    25.756149 
   56600    234.66221   -429.25114    216009.12   -18728.328    1364.6922    -20093.02   -1243.3054    388.11744    78.772779    22.624819    25.735776 
   56800    239.36798   -345.22001    216009.12   -18646.263     1392.059   -20038.322   -904.25463    389.72113    78.773814    22.623558    25.734478 
   57000    228.43409   -463.61709    216009.12   -18693.639    1328.4723   -20022.111   -1466.2917    392.24046    78.774215    22.624485    25.735074 
   57200    245.20818   -290.80096    216009.12   -18586.923     1426.023   -20012.946   -679.95325     391.6826    78.773526     22.62247    25.718006 
   57400    233.28237   -329.25658    216009.12   -18607.168    1356.6677   -19963.836    -831.6682    392.20242    78.772823    22.619737    25.704327 
   57600    234.62754   -430.43783    216009.12   -18617.225    1364.4907   -19981.716   -1300.2747    391.64762    78.771123    22.617543    25.698946 
   57800    241.54516   -372.41448    216009.12   -18564.929    1404.7205   -19969.649   -1055.4414    391.36432    78.773239    22.617087    25.684053 
   58000    239.11598   -438.69249    216009.12   -18545.449    1390.5934   -19936.042   -1288.6184    392.87027    78.771812    22.616802    25.708301 
   58200    240.59037   -252.68318    216009.12   -18505.492    1399.1678    -19904.66   -513.64671    393.27029     78.77469    22.615135    25.713084 
   58400    243.58425     -44.2984    216009.12   -18547.418    1416.5789   -19963.997    417.30797     395.3512     78.77543    22.616565    25.693398 
   58600     237.4476   -328.21046    216009.12   -18562.165    1380.8908   -19943.056    -817.0914    397.90794    78.773604    22.617486    25.702712 
   58800    238.24681    -239.9642    216009.12   -18545.774    1385.5387   -19931.313   -493.06597    398.64747    78.771927    22.616846     25.68373 
   59000    248.21152   -244.06033    216009.12   -18516.257    1443.4891   -19959.746   -502.98107    397.04632    78.771864    22.614069    25.684232 
   59200     240.6691   -462.50403    216009.12   -18599.028    1399.6257   -19998.653   -1414.9331    397.54138    78.773486    22.614727    25.683788 
   59400    240.06764    -260.4472    216009.12   -18616.065    1396.1279   -20012.193   -548.98179    396.76364    78.775509    22.616695    25.671908 
   59600    242.85979   -413.19739    216009.12   -18656.337    1412.3658   -20068.703   -1186.0843    397.73642    78.776557    22.615774     25.68217 
   59800    240.99591   -274.15921    216009.12   -18615.259    1401.5263   -20016.785   -609.22057    397.51675     78.77693     22.61524    25.688227 
   60000    237.86812   -386.77014    216009.12   -18591.956    1383.3364   -19975.292   -1048.1715    398.51666    78.777441    22.615572    25.670326 
   60200    239.94707   -109.32112    216009.12   -18646.127    1395.4267   -20041.554    132.41855    398.83311    78.777956    22.618981    25.663212 
   60400    244.80883   -420.01061    216009.12    -18610.55    1423.7005    -20034.25   -1254.9782    401.56937    78.777747    22.621334    25.674359 
   60600    241.33671   -419.60942    216009.12   -18559.991    1403.5082     -19963.5   -1199.0488    400.04796    78.779822    22.621268    25.678493 
   60800    239.02215   -267.18565    216009.12   -18519.961    1390.0477   -19910.009   -578.33789    401.08694    78.780347    22.619771    25.702701 
   61000    237.24957   -264.89086    216009.12   -18571.685    1379.7392   -19951.424   -533.21315    403.36017    78.780678    22.622183    25.714545 
   61200    244.72712   -182.87324    216009.12    -18507.24    1423.2254   -19930.466   -167.06231    404.54369    78.780102     22.62197    25.692808 
   61400    247.31914   -305.91033    216009.12   -18569.751    1438.2994    -20008.05    -738.3804    406.38955    78.781126    22.618794    25.698191 
   61600    236.99293   -290.89857    216009.12   -18596.776    1378.2467   -19975.023   -656.82762    407.23698     78.78254    22.619625    25.686736 
   61800    238.19409   -255.72371    216009.12   -18619.852    1385.2321   -20005.084   -531.81293    407.70155    78.784079    22.618957    25.672459 
   62000    235.57235   -342.18721    216009.12   -18564.764    1369.9852   -19934.749   -894.18101    407.55049    78.783796    22.616941    25.667996 
   62200    242.65231   -250.29283    216009.12   -18544.599    1411.1592   -19955.758   -530.68222    406.80803    78.784774    22.617228    25.689464 
   62400    238.86735    -250.0312    216009.12   -18531.199    1389.1475   -19920.347   -495.15622    407.81562    78.783897    22.616023    25.690017 
   62600    240.91733   -290.98529    216009.12    -18575.13    1401.0693     -19976.2   -666.18193    408.09899    78.782265    22.617346    25.709497 
   62800    229.00898   -245.10645    216009.12   -18653.873    1331.8156   -19985.689   -459.25428    410.55712    78.783324    22.616392    25.699148 
   63000    240.96732   -339.48499    216009.12   -18582.756      1401.36   -19984.116   -884.20509    413.94719    78.785497    22.616408    25.696044 
   63200    236.86667    -337.2303    216009.12    -18597.44    1377.5124   -19974.952    -877.0092    413.85337    78.786117    22.617691     25.71009 
   63400    237.17858   -356.62665    216009.12   -18654.626    1379.3264   -20033.952   -904.07279    413.55625    78.785985      22.6181     25.70212 
   63600    243.58348   -185.53999    216009.12   -18655.761    1416.5745   -20072.335   -188.09416    415.97373    78.785481    22.617534     25.71165 
   63800     234.1224   -222.27616    216009.12   -18676.355     1361.553   -20037.908    -373.1068    417.55276    78.787134    22.617634    25.751892 
   64000    245.91217   -288.38013    216009.12   -18616.395    1430.1171   -20046.512    -647.6498    418.77371    78.788728    22.616931     25.77918 
   64200    239.05321   -374.44578    216009.12   -18632.733    1390.2284   -20022.961   -1007.6277    421.79645    78.789378    22.615794    25.785662 
   64400    238.95067   -231.26254    216009.12   -18655.307     1389.632   -20044.939   -405.08349    420.40614    78.790151    22.616821    25.793866 
   64600    236.27268   -328.56374    216009.12   -18688.166     1374.058   -20062.224   -800.19937    422.91479    78.790632    22.618297    25.797285 
   64800    238.31408   -334.92445    216009.12   -18660.777    1385.9299   -20046.707    -840.8154    423.83508      78.7887    22.617603    25.801851 
   65000    246.29405   -354.64239    216009.12   -18562.702    1432.3379    -19995.04   -922.90696    423.94436    78.785725    22.618477    25.803226 
   65200    237.55415   -289.05477    216009.12   -18598.652    1381.5105   -19980.163   -655.60383    425.73053     78.78266     22.61917    25.814251 
   65400    231.95871    -326.6445    216009.12   -18597.007    1348.9699   -19945.977   -826.83993    426.60639    78.782402    22.621952    25.806594 
   65600    241.25296   -372.44627    216009.12   -18546.039    1403.0212    -19949.06   -1032.4098    427.30942    78.783614    22.621402    25.801431 
   65800    242.16954   -280.95475    216009.12   -18590.973    1408.3516   -19999.324   -600.60902    428.99906    78.785322    22.620685     25.79151 
   66000    239.43375   -327.03745    216009.12   -18608.771    1392.4414   -20001.213   -834.22554    428.98929    78.783348    22.622081    25.778556 
   66200    236.76126   -267.08547    216009.12    -18650.08    1376.8994   -20026.979   -576.15827    428.02686    78.782057    22.623269    25.739351 
   66400    238.40396   -254.07535    216009.12   -18637.228    1386.4526    -20023.68   -464.30394    429.53343    78.784406    22.624802     25.71037 
   66600    239.79676   -341.54525    216009.12   -18652.752    1394.5525   -20047.305   -851.74594    430.29576    78.784403    22.624385    25.723827 
   66800    234.32032   -341.61308    216009.12   -18659.171     1362.704   -20021.875   -858.68645    432.27241    78.782406     22.62588    25.700209 
   67000    238.43525   -380.71807    216009.12   -18694.033    1386.6346   -20080.668   -1035.5812    434.32707    78.780822     22.62509    25.677069 
   67200    237.88285   -133.07429    216009.12    -18633.25    1383.4221   -20016.672    39.646554    434.77958    78.779563     22.62488    25.662732 
   67400    243.21308   -456.74905    216009.12   -18575.076    1414.4204   -19989.496   -1387.9437    435.92278    78.780296    22.622859    25.652363 
   67600    241.04587    -294.3439    216009.12   -18535.668    1401.8168   -19937.485   -727.01391    434.98575    78.778305    22.622618    25.648376 
   67800    243.66129   -266.06554    216009.12   -18570.074    1417.0269   -19987.101   -548.40253    436.54437    78.777942    22.622567    25.647116 
   68000    236.54327   -254.80315    216009.12   -18585.497    1375.6317   -19961.128    -523.0401    434.40026    78.776769     22.62036    25.612366 
   68200    229.97336   -167.40545    216009.12   -18586.392     1337.424   -19923.816   -143.28039    436.29324    78.773764     22.61837    25.574116 
   68400    247.07861   -246.01879    216009.12   -18544.526    1436.9006   -19981.426   -450.72464    438.68113    78.773353    22.618065    25.557703 
   68600     240.3151   -418.47472    216009.12   -18616.549     1397.567   -20014.116   -1199.6687    441.84053    78.772064    22.618129    25.546688 
   68800    246.51299   -235.95041    216009.12   -18620.112    1433.6112   -20053.723   -444.17659    441.82771    78.772253    22.615304    25.534297 
   69000    240.98484   -218.24519    216009.12   -18598.866    1401.4619   -20000.328   -364.03573    444.69247    78.772698    22.614815    25.544293 
   69200    233.05817   -382.42162    216009.12   -18658.055    1355.3639   -20013.419   -1072.1348    446.58103    78.773202    22.615646    25.532512 
   69400    234.98077   -279.89184    216009.12    -18701.49    1366.5448   -20068.034   -643.75667    446.14397    78.772594    22.617498    25.545779 
   69600    250.77501   -397.62164    216009.12   -18548.207    1458.3972   -20006.604   -1070.3925    447.40537    78.771198    22.619153     25.52553 
   69800    239.95614   -352.45337    216009.12   -18637.799    1395.4794   -20033.278    -917.1422    447.90205    78.770436    22.620273    25.513048 
   70000    248.47925   -284.00855    216009.12    -18620.32    1445.0461   -20065.366   -641.55971    449.01811    78.770034    22.617681    25.526913 
   70200    243.19196   -307.59742    216009.12   -18624.743    1414.2975    -20039.04    -710.0564    452.17527     78.77275    22.615849      25.5377 
   70400    247.35933   -205.21162    216009.12   -18573.308    1438.5331   -20011.841   -310.83404    452.95915    78.773144    22.613715    25.539725 
   70600    238.70583   -351.13874    216009.12   -18654.665    1388.2081   -20042.873   -901.38289    455.59478    78.774037    22.610651     25.55767 
   70800    234.77376   -252.75854    216009.12   -18648.681     1365.341   -20014.022   -526.88555    456.79752     78.77392     22.61172    25.531779 
   71000    247.90598   -238.40984    216009.12   -18666.669    1441.7122   -20108.381   -401.92294    456.16308    78.773498     22.61384    25.543627 
   71200    241.04662   -178.41362    216009.12   -18624.943    1401.8212   -20026.764   -208.16394    457.03927    78.773151    22.612954    25.554126 
   71400    240.83104   -202.76348    216009.12   -18644.822    1400.5675   -20045.389   -269.33858    457.32844    78.772612    22.613961     25.56562 
   71600    246.30007   -205.88047    216009.12    -18599.95    1432.3729   -20032.323   -293.53082    460.42373    78.772365    22.613581    25.563708 
   71800     232.5211    -330.9578    216009.12   -18695.687    1352.2405   -20047.928   -841.37797    459.96994    78.772338    22.612962    25.569436 
   72000    236.90049   -357.08906    216009.12   -18659.561    1377.7091   -20037.271   -924.45519    458.10604    78.770905    22.612791    25.539403 
   72200    241.31667   -267.60176    216009.12   -18499.871    1403.3916   -19903.263   -572.98987    458.37652    78.769506    22.611825    25.538273 
   72400      232.898   -303.71939    216009.12   -18567.658    1354.4324    -19922.09    -718.8485    459.48082    78.770302    22.611263    25.513787 
   72600    241.49195   -282.21384    216009.12   -18537.657     1404.411   -19942.068   -611.48272    465.14831    78.771876    22.609064    25.530795 
   72800    243.77139   -180.64808    216009.12    -18568.89    1417.6672   -19986.557   -203.77824    464.59014    78.772452    22.609567    25.531812 
   73000    242.24095   -253.34482    216009.12   -18583.852    1408.7669   -19992.619   -483.03381    465.55338    78.771869    22.609118    25.551836 
   73200    246.89167   -241.21026    216009.12   -18506.877    1435.8134    -19942.69   -468.23894    466.95227    78.768361     22.60861     25.54908 
   73400    243.92789   -321.52044    216009.12   -18506.524    1418.5774   -19925.101   -818.88874    469.19024    78.766585       22.609    25.531439 
   73600    236.27993   -444.49996    216009.12   -18532.314    1374.1002   -19906.414   -1355.0357    472.98691     78.76769    22.609326    25.515897 
   73800    233.03421   -215.94165    216009.12   -18645.233    1355.2245   -20000.458   -363.45161    470.68657    78.771136    22.608976    25.509704 
   74000    233.70176   -234.89904    216009.12   -18647.289    1359.1067   -20006.395   -426.44073    472.66349    78.771216    22.607243    25.489639 
   74200    238.84766   -379.78626    216009.12   -18574.541     1389.033   -19963.574    -1026.857    473.68063    78.772505    22.607343    25.499976 
   74400    239.79431   -370.68248    216009.12   -18566.017    1394.5383   -19960.556   -1033.1378    473.67426    78.772484    22.607084    25.484016 
   74600    238.13505   -172.85773    216009.12   -18623.955    1384.8888   -20008.844   -164.92283    473.78016    78.773672    22.607362    25.480086 
   74800    243.56926   -527.55392    216009.12   -18595.027    1416.4917   -20011.518   -1658.0454    475.31576    78.774402    22.606735    25.483072 
   75000    239.17771   -353.58906    216009.12   -18615.164    1390.9524   -20006.117   -935.07749    476.09881     78.77589    22.607871    25.485006 
   75200    239.25015   -326.75262    216009.12   -18558.345    1391.3737   -19949.719   -799.85231    479.42191    78.777216     22.60831    25.493408 
   75400     235.6132   -385.41698    216009.12    -18596.68    1370.2228   -19966.903   -1069.3279    482.17218     78.77856    22.609026    25.468373 
   75600    237.72444   -238.59405    216009.12   -18597.144    1382.5008   -19979.645   -434.84492    482.29855    78.777799    22.608468    25.462533 
   75800    239.21109   -352.03341    216009.12   -18535.503    1391.1466    -19926.65   -908.23284     484.0064    78.778206    22.606424    25.459491 
   76000    238.77642   -241.37983    216009.12   -18593.648    1388.6187   -19982.267   -384.74005    484.93074     78.77946    22.607526    25.474731 
   76200      235.247   -389.39142    216009.12   -18675.063    1368.0931   -20043.156   -1063.1831    485.68132    78.780802    22.609238    25.460294 
   76400    237.45432   -332.48585    216009.12    -18647.91    1380.9299    -20028.84   -844.80966    485.91472    78.781495    22.611647    25.432709 
   76600    246.31515   -243.72184    216009.12   -18626.369    1432.4607    -20058.83   -465.68941    487.43893    78.782084    22.612754    25.444629 
   76800    235.56844   -218.87769    216009.12   -18674.266    1369.9625   -20044.228   -337.98103    486.70753    78.782135    22.614323    25.437634 
   77000    240.26219   -371.64076    216009.12   -18625.798    1397.2593   -20023.057   -1006.3419    487.39808    78.781415    22.616333      25.4363 
   77200    243.55441   -322.07021    216009.12   -18604.694    1416.4054   -20021.099   -819.33523    488.12438    78.782899    22.616159    25.450987 
   77400    240.17036   -334.22049    216009.12   -18617.501    1396.7252   -20014.226    -842.4908    489.55806     78.78266    22.617684    25.420584 
   77600    237.19275   -292.00346    216009.12   -18690.173    1379.4087   -20069.582   -697.87961    488.90858    78.780732    22.619112    25.427924 
   77800    236.98101   -273.40047    216009.12   -18662.071    1378.1774   -20040.248   -622.09807    489.39824     78.77633    22.618153    25.437748 
   78000    232.95189   -473.08954    216009.12    -18689.13    1354.7458   -20043.875   -1437.3526    490.58987    78.776565    22.619746    25.421542 
   78200    239.19967   -162.14541    216009.12   -18664.388    1391.0801   -20055.468   -96.429529    488.92074    78.773915    22.619965    25.425174 
   78400    231.59454   -352.77418    216009.12   -18654.956    1346.8521   -20001.808   -956.09358    493.20105    78.771058    22.620039    25.416604 
   78600    237.65909   -395.79899    216009.12   -18625.477    1382.1208   -20007.598   -1150.4645    493.08453    78.770484    22.617846    25.423256 
   78800    239.70387   -285.76642    216009.12   -18625.191    1394.0123   -20019.203   -625.19371    495.32061    78.772652    22.615443    25.419758 
   79000     236.0863   -286.67094    216009.12   -18603.371    1372.9741   -19976.345   -699.04633    497.21758     78.77315    22.612163    25.425605 
   79200    244.82923   -479.17687    216009.12   -18593.546    1423.8192   -20017.365   -1449.5574    499.33689    78.773826     22.61146    25.432002 
   79400    248.09063   -402.96977    216009.12   -18616.919    1442.7861   -20059.706   -1124.5365    496.64521    78.772059    22.611505    25.422558 
   79600    237.12831    -361.5104    216009.12   -18702.757     1379.034   -20081.791   -945.83474    498.23112    78.771326    22.609993    25.425109 
   79800    239.26308   -222.38469    216009.12   -18698.983    1391.4489   -20090.432    -377.9961    498.29641    78.768716    22.611412    25.419623 
   80000    234.85278   -181.94368    216009.12   -18721.579    1365.8005   -20087.379   -200.22121     498.3116    78.767681    22.613466    25.417094 
   80200    233.64927   -369.82669    216009.12    -18636.48    1358.8014   -19995.281   -980.99913    499.11107    78.765576    22.612727    25.440043 
   80400    236.29006   -395.16691    216009.12   -18656.131    1374.1591    -20030.29   -1098.3955    498.65192    78.762349    22.613027    25.413666 
   80600     236.7419   -174.22523    216009.12   -18631.482    1376.7868   -20008.269   -191.40881    500.90111    78.761985    22.615755     25.43079 
   80800    242.99859   -420.89337    216009.12   -18587.015     1413.173   -20000.188   -1250.8253    502.59389    78.761256    22.614308    25.441148 
   81000    239.22482   -349.01146    216009.12   -18561.107    1391.2264   -19952.334   -902.27401    505.69245      78.7624    22.614586    25.427323 
   81200      234.841   -293.01557    216009.12    -18590.58     1365.732   -19956.312   -700.81883    506.94973    78.762122     22.61366    25.418646 
   81400    233.96141   -341.49541    216009.12   -18585.906    1360.6167   -19946.523     -870.645    507.42483    78.762266    22.612189    25.399898 
   81600    236.85459   -359.81441    216009.12    -18594.84    1377.4422   -19972.282   -926.68982    511.40159    78.765311    22.612408    25.404917 
   81800    235.80585   -258.11241    216009.12   -18668.006    1371.3432   -20039.349    -547.9787    512.92731    78.766549    22.613129     25.40612 
   82000    239.35489   -263.37289    216009.12   -18581.075    1391.9828   -19973.058   -531.86094    514.78896    78.768098    22.614491    25.402415 
   82200     240.1046   -291.71823    216009.12   -18569.551    1396.3428   -19965.894    -708.2176    518.32395    78.768131     22.61393    25.387167 
   82400    240.34019   -334.64876    216009.12   -18571.272    1397.7129   -19968.985   -896.61345     520.1068    78.770425     22.61134    25.393744 
   82600    248.69145   -513.62055    216009.12   -18486.054    1446.2801   -19932.334   -1581.1722    523.45064    78.769836    22.610181    25.394409 
   82800    237.29876   -283.72636    216009.12   -18566.191    1380.0253   -19946.217   -595.86571    523.02878    78.769671    22.608456    25.398897 
   83000     242.5566   -402.41963    216009.12   -18491.812    1410.6025   -19902.414   -1075.0705     525.1245    78.767502    22.609566    25.372626 
   83200    248.40095   -209.68657    216009.12   -18514.455    1444.5907   -19959.046   -337.61323    523.32647     78.76906     22.60837    25.358181 
   83400    238.91538   -319.98987    216009.12   -18524.826    1389.4268   -19914.253   -775.88277    523.60934    78.769321    22.606599    25.327048 
   83600    227.72817   -226.10845    216009.12   -18589.399    1324.3669   -19913.766   -450.57551     524.5138      78.7674     22.60704    25.332845 
   83800    235.54928   -286.03242    216009.12   -18576.314    1369.8511   -19946.165   -656.28387    525.59987     78.76674    22.607469    25.341029 
   84000    237.58951   -270.16118    216009.12    -18524.77    1381.7161   -19906.486   -604.95836     524.2716    78.765641    22.608742    25.331852 
   84200    243.68869   -181.88279    216009.12   -18514.773    1417.1863    -19931.96   -230.70079    525.50996    78.765677    22.605098    25.358335 
   84400    239.81323   -265.45751    216009.12   -18554.734    1394.6483   -19949.382   -566.14292    526.28092     78.76659    22.602582    25.360342 
   84600     245.2039   -249.73994    216009.12   -18539.465    1425.9981   -19965.464   -516.04856    527.40677    78.767555     22.60238    25.369485 
   84800     243.0483   -328.30832    216009.12   -18580.715    1413.4621   -19994.177   -872.74635    527.79825     78.76737    22.604776    25.404134 
   85000    240.07049   -274.79082    216009.12   -18600.507    1396.1444   -19996.652   -601.13645    531.32991    78.766889    22.602699    25.402025 
   85200    245.76723   -377.43923    216009.12   -18605.505    1429.2741   -20034.779    -1003.684    531.67098    78.767508    22.604849    25.398334 
   85400     235.3852   -421.79799    216009.12   -18645.063    1368.8969    -20013.96   -1221.6279    531.01605    78.768103    22.605364    25.383709 
   85600    238.44221   -200.94346    216009.12   -18611.865    1386.6751    -19998.54   -297.64304    531.29888    78.767844    22.606676    25.404015 
   85800    237.83144   -253.92646    216009.12   -18547.031    1383.1231   -19930.154   -495.83732    531.30652    78.764804    22.607119    25.394898 
   86000    239.88112   -357.37949    216009.12   -18579.281    1395.0431   -19974.324   -946.36876    534.44886    78.765596    22.607499    25.417851 
   86200    243.46408   -384.66412    216009.12   -18556.977    1415.8801   -19972.857   -1046.8669    536.48904    78.765226    22.608002    25.416121 
   86400    239.64206   -258.29369    216009.12    -18652.77    1393.6529   -20046.423   -532.06382    536.84805    78.767138     22.60809     25.39407 
   86600    247.47734   -204.04024    216009.12   -18574.937    1439.2194   -20014.157   -266.62961      535.549    78.768036    22.605837    25.396768 
   86800    240.94805   -348.21768    216009.12   -18638.911     1401.248   -20040.159   -850.30059    536.25198    78.765496    22.605111    25.419653 
   87000    232.70479   -363.82303    216009.12   -18626.668    1353.3088   -19979.977   -993.77518    536.82419     78.76515    22.606226    25.440621 
   87200    239.92087    -426.8378    216009.12   -18626.973    1395.2743   -20022.247    -1219.124    536.07887    78.766359     22.60765    25.450166 
   87400    239.69619    -282.6708    216009.12   -18625.313    1393.9677   -20019.281   -619.21347    536.70908    78.766072    22.608879    25.451653 
   87600    232.96398   -414.32976    216009.12   -18621.059    1354.8161   -19975.875    -1223.327    537.06957    78.766687    22.611921     25.44829 
   87800    233.51063   -487.67037    216009.12   -18648.107    1357.9952   -20006.102   -1536.0902    538.55369    78.768441    22.613407    25.443318 
   88000    241.87437   -353.71824    216009.12   -18605.959     1406.635   -20012.594   -939.42047    538.73558    78.769239     22.61396    25.453246 
   88200    234.47604   -293.86991    216009.12    -18659.45    1363.6096   -20023.059    -656.9582    537.31254    78.770244    22.613451    25.433518 
   88400    242.63561   -263.99647    216009.12   -18597.757    1411.0621   -20008.819   -503.91165    538.14371    78.769111    22.613241    25.424919 
   88600    242.24368    -385.3104    216009.12   -18592.986    1408.7828   -20001.769    -1088.547    539.16625    78.768197    22.613352    25.432242 
   88800    236.94872   -167.53315    216009.12   -18687.668    1377.9896   -20065.658   -166.89801    539.16646    78.767459    22.614426    25.431537 
   89000    238.93905   -287.39285    216009.12   -18595.232    1389.5645   -19984.797   -664.92378    541.89355    78.764444    22.614582    25.433923 
   89200    242.61841   -322.72112    216009.12    -18564.51     1410.962   -19975.472   -794.39358     541.2657    78.762086    22.612379    25.426029 
   89400    239.88487   -433.43996    216009.12   -18579.324     1395.065   -19974.389   -1241.4639    542.31921    78.760609    22.610836    25.418267 
   89600    229.27203   -275.22787    216009.12   -18687.472    1333.3453   -20020.817   -593.54505    545.81074    78.760727    22.609853    25.407632 
   89800    244.81492   -284.85138    216009.12    -18583.94     1423.736   -20007.676   -626.68707    545.52254    78.760037    22.611044    25.388516 
   90000    237.56929   -352.85416    216009.12   -18599.653    1381.5985   -19981.252   -965.53336    544.83069    78.761994    22.612355    25.373763 
   90200    239.58279   -347.95983    216009.12   -18627.762    1393.3082    -20021.07   -906.09202    546.47942    78.762276    22.610966    25.393258 
   90400    244.40488   -480.95074    216009.12   -18589.545    1421.3514   -20010.896   -1431.7221    546.19901    78.762383    22.610747    25.382866 
   90600    250.00947   -292.30925    216009.12   -18583.431    1453.9452   -20037.376   -655.11981    546.08863     78.76183     22.61169    25.371905 
   90800      242.257   -269.45158    216009.12   -18646.046    1408.8602   -20054.906   -609.88321    550.38551    78.761175    22.611215    25.361044 
   91000     239.3461   -426.95822    216009.12   -18649.507    1391.9317   -20041.439    -1246.424    553.61476    78.760801    22.610523    25.373854 
   91200    236.49925   -424.79157    216009.12   -18715.348    1375.3757   -20090.724   -1243.5668    553.21634    78.761587    22.609038     25.38703 
   91400    233.41821   -277.60764    216009.12   -18658.643    1357.4577   -20016.101   -613.50011    551.13906    78.762604    22.609425    25.391118 
   91600    246.12526   -231.16534    216009.12   -18579.551    1431.3563   -20010.908   -403.19354    551.55341    78.760889    22.608347    25.373986 
   91800    239.75025   -265.51096    216009.12   -18601.028     1394.282    -19995.31   -524.44738    551.38848    78.758808    22.605779    25.376559 
   92000    239.11628   -309.17046    216009.12   -18606.177    1390.5952   -19996.772   -720.40563    551.14914    78.756212    22.603716    25.379516 
   92200    241.66349    -466.7843    216009.12   -18614.649    1405.4086   -20020.057    -1409.531     553.8912    78.756617    22.602836    25.367781 
   92400    245.01786   -121.30143    216009.12   -18578.255    1424.9161   -20003.171    26.079042    554.85538    78.758587    22.602185    25.369756 
   92600    247.40476   -284.99293    216009.12   -18549.036    1438.7973   -19987.834   -643.67301    555.64714    78.759202    22.601092    25.393033 
   92800    236.18111   -293.90194    216009.12   -18615.626    1373.5255   -19989.152   -696.54458    557.28257    78.756543    22.602321     25.38905 
   93000    239.50205   -290.91061    216009.12   -18639.843    1392.8386   -20032.682   -636.16637    557.71029    78.755556    22.604275    25.415884 
   93200    233.61381   -262.27998    216009.12       -18624    1358.5952   -19982.595   -551.64929    559.25546    78.755128    22.604169    25.457588 
   93400    234.28276   -223.03547    216009.12   -18678.107    1362.4856   -20040.593   -357.09859    560.69911    78.755012    22.603503    25.455843 
   93600    237.59782   -230.23684    216009.12    -18658.29    1381.7645   -20040.054   -415.17484    560.84935    78.756981    22.603558    25.460171 
   93800    235.45606   -292.71164    216009.12   -18691.518    1369.3089   -20060.827   -664.86584    562.88643    78.759208    22.603537     25.48119 
   94000    237.64917   -334.01314    216009.12   -18684.083    1382.0631   -20066.146   -841.40277    563.84178    78.761582    22.604447     25.47585 
   94200    244.44169   -494.63762    216009.12   -18604.906    1421.5654   -20026.472   -1533.2903    565.08136    78.761932    22.603844    25.458992 
   94400    234.62397   -221.52109    216009.12   -18623.409    1364.4699   -19987.879   -347.38303    564.60628     78.75975    22.602213     25.45977 
   94600    231.32618   -421.99458    216009.12   -18630.916    1345.2914   -19976.207    -1235.237     567.2856    78.760305     22.60165    25.455695 
   94800    235.14676   -310.02949    216009.12   -18654.429    1367.5102   -20021.939   -724.87217    568.06164    78.758939    22.601948    25.459681 
   95000    238.50576   -219.97062    216009.12    -18658.42    1387.0446   -20045.465   -360.80628    569.06922    78.756101    22.601868    25.463739 
   95200    234.16827   -387.50441    216009.12   -18640.335    1361.8197   -20002.155   -1122.2509    569.34397    78.756682    22.599693     25.48415 
   95400    245.05161   -358.61919    216009.12   -18598.075    1425.1124   -20023.188    -954.5472    569.66712    78.756103    22.597464    25.489339 
   95600    240.15092   -263.05117    216009.12   -18565.549    1396.6122   -19962.161       -514.8    570.10569     78.75718    22.597005    25.501168 
   95800    247.00139   -207.24979    216009.12   -18540.845    1436.4515   -19977.297   -289.28175    573.44774    78.758863    22.597102    25.506414 
   96000    241.01679   -325.82639    216009.12    -18570.74    1401.6477   -19972.387   -845.97879    575.63783    78.758903    22.597736    25.497841 
   96200    243.41322    -253.3239    216009.12       -18535    1415.5843   -19950.584   -488.89103    575.89592    78.760219    22.598673    25.495759 
   96400    243.08547   -263.67486    216009.12   -18566.933    1413.6782   -19980.611   -519.83289    577.25032    78.757721    22.600666    25.515117 
   96600    233.90625   -329.53305    216009.12   -18597.932    1360.2959   -19958.227   -867.77222    578.65945    78.759632    22.600164    25.510177 
   96800    235.65136   -204.58135    216009.12   -18578.336    1370.4447   -19948.781   -322.81043    578.25158    78.759097    22.599954    25.516968 
   97000    235.65571   -235.20156    216009.12   -18640.506      1370.47   -20010.976   -423.31294    576.87206    78.760714    22.596544    25.513894 
   97200    235.90899   -451.90493    216009.12   -18603.687     1371.943    -19975.63   -1363.3535    578.18868    78.759481    22.596802    25.529896 
   97400    243.32437   -336.92007    216009.12   -18595.499    1415.0676   -20010.567   -886.53026    579.24976     78.76194    22.596869    25.517075 
   97600    239.94208   -248.82381    216009.12   -18515.666    1395.3976   -19911.063    -538.0791    578.99452    78.765244    22.597341    25.519058 
   97800    242.58493    -306.7641    216009.12    -18540.26    1410.7673   -19951.027   -722.37249    579.35843    78.766241    22.594573    25.503066 
   98000    239.62805    -330.6501    216009.12   -18578.081    1393.5714   -19971.652   -863.25147    578.87672    78.767406    22.593783    25.490686 
   98200    240.81143   -304.36649    216009.12   -18636.812    1400.4534   -20037.266     -743.847    581.14949    78.770015    22.594052    25.478899 
   98400    233.11293   -384.53517    216009.12   -18597.189    1355.6823   -19952.871   -1027.8217    581.68544    78.769078    22.594009    25.476402 
   98600    234.63338   -161.96817    216009.12   -18609.563    1364.5246   -19974.088   -144.02327    580.28907    78.769355    22.595599     25.47621 
   98800    239.95792   -247.00854    216009.12   -18597.125    1395.4898   -19992.615    -509.2629    581.68848    78.767017    22.598134    25.474258 
   99000    233.61596    -263.8633    216009.12   -18646.825    1358.6077   -20005.432    -565.5001    584.58381    78.766529    22.601033    25.464173 
   99200    240.43326   -253.52336    216009.12   -18625.358    1398.2542   -20023.612   -494.73712    585.40957    78.766158    22.601309    25.459271 
   99400    240.08209   -354.48661    216009.12   -18608.526    1396.2119   -20004.738   -956.40205    586.53431    78.766486    22.600422    25.467272 
   99600     235.6421    -370.1046    216009.12   -18525.567    1370.3909   -19895.958   -956.57314    587.34591    78.767247      22.5997    25.469091 
   99800    245.69836   -313.57456    216009.12   -18568.188    1428.8737   -19997.062   -746.61678    588.38051    78.764278    22.601136    25.469278 
  100000    242.22559   -291.51684    216009.12   -18586.869    1408.6775   -19995.546    -673.9867    590.00044     78.76551    22.600546    25.471914 
  100200    234.97908   -487.12007    216009.12   -18647.821     1366.535   -20014.356   -1509.0708    591.57695    78.765509    22.600593    25.489902 
  100400    239.04499   -281.96173    216009.12   -18603.538    1390.1806   -19993.718   -659.21259    591.33589     78.76566    22.601989     25.49168 
  100600    232.97417   -474.01722    216009.12   -18617.528    1354.8753   -19972.403   -1471.3464    595.02168    78.764858    22.600964    25.503259 
  100800    235.90451   -346.00439    216009.12   -18661.151    1371.9169   -20033.068   -912.86774    597.19728    78.761856     22.60031    25.490724 
[...]
 5175800    229.61414   -729.34693    216009.12   -20606.791    1335.3349   -21942.126   -2450.2081    9898.4733    79.336351     23.15963    25.392473 
 5176000    224.38714   -559.28539    216009.12   -20598.025     1304.937   -21902.962   -1725.3859    9897.8732    79.337768     23.16008    25.395056 
 5176200    225.05583   -719.80924    216009.12    -20600.13    1308.8258   -21908.956    -2426.416    9898.2671    79.340001    23.159284    25.391822 
 5176400    226.85963   -752.67163    216009.12   -20622.846    1319.3159   -21942.162   -2571.6575    9895.8955    79.339204     23.16018    25.393579 
 5176600    225.95632   -591.96528    216009.12   -20581.847    1314.0626    -21895.91   -1868.8239     9898.754    79.339688    23.160701    25.386935 
 5176800    229.55034   -679.67991    216009.12   -20552.592    1334.9639   -21887.556   -2205.5144     9902.031    79.340834    23.160546    25.381205 
 5177000    231.07043   -702.31998    216009.12   -20547.365     1343.804   -21891.169    -2336.538    9897.4727    79.340849    23.159886    25.395141 
 5177200    225.68045   -627.60244    216009.12   -20561.628    1312.4583   -21874.087   -2029.8696    9897.8494    79.339724    23.160193    25.393092 
 5177400     226.6514   -677.39323    216009.12   -20590.416    1318.1049   -21908.521   -2257.5934    9901.7025    79.341282     23.15962    25.386392 
 5177600    233.02704   -648.67883    216009.12   -20539.406    1355.1828   -21894.589   -2117.3143    9896.2128    79.343057    23.160134    25.390406 
 5177800    233.97731    -592.8161    216009.12   -20577.209    1360.7092   -21937.919   -1873.5651    9896.4237    79.342445    23.161431    25.393343 
 5178000    226.82805   -761.68313    216009.12   -20591.655    1319.1322   -21910.788   -2627.6937    9903.6325    79.344263    23.163658    25.390413 
 5178200    228.02475   -597.71773    216009.12   -20594.285    1326.0917   -21920.376   -1904.7201    9896.4889    79.344669    23.164518    25.394001 
 5178400    222.03962   -620.47856    216009.12   -20601.391    1291.2848   -21892.676   -1991.4573    9895.0168    79.344426    23.164382    25.392896 
 5178600    224.91402   -718.04241    216009.12   -20600.359    1308.0011    -21908.36   -2389.4273    9900.9757    79.345036    23.165253    25.391057 
 5178800    228.29338   -585.64931    216009.12   -20546.741    1327.6539   -21874.395   -1872.8971    9897.4738    79.345343    23.166868    25.385528 
 5179000    225.90438   -566.84192    216009.12   -20582.461    1313.7606   -21896.222   -1742.6402    9895.7571    79.343975    23.166294     25.38798 
 5179200    228.62679   -768.78019    216009.12   -20567.338    1329.5929   -21896.931   -2689.0287    9901.2821    79.342162    23.165932    25.382591 
 5179400    223.40225   -661.64824    216009.12   -20632.136    1299.2093   -21931.345   -2198.1235    9898.3606     79.34395    23.166778    25.385517 
 5179600    228.52806   -630.56428    216009.12   -20521.769    1329.0187   -21850.788    -2032.284    9893.8819    79.342859    23.166085    25.384031 
 5179800     227.3166   -706.24961    216009.12   -20573.944    1321.9734   -21895.918   -2323.2412    9899.3432    79.342387    23.166065    25.388266 
 5180000    224.27739    -605.2144    216009.12   -20604.856    1304.2987   -21909.154   -1929.6368    9900.2106    79.345098    23.166685    25.393145 
 5180200    220.38545   -669.87791    216009.12   -20669.196    1281.6649   -21950.861   -2218.9232    9895.6274    79.344468    23.166926    25.385402 
 5180400    225.83627   -635.56736    216009.12   -20646.817    1313.3645   -21960.182   -2066.5823    9895.8939    79.344546    23.166583    25.391971 
 5180600    233.10955   -612.05763    216009.12   -20583.012    1355.6627   -21938.675   -1972.4288    9899.1724      79.3461    23.168042    25.389681 
 5180800    223.40409   -734.17912    216009.12   -20555.229      1299.22   -21854.449   -2507.8244     9899.512    79.347224    23.168543    25.391073 
 5181000    226.27289   -752.17194    216009.12   -20599.724    1315.9037   -21915.628   -2590.6107    9895.9706     79.34643    23.169302    25.392831 
 5181200     228.5359   -591.92177    216009.12   -20600.681    1329.0644   -21929.745   -1884.2495    9900.4526    79.347287    23.169674    25.388725 
 5181400    220.31205   -731.62949    216009.12   -20633.686    1281.2381   -21914.924   -2450.7504    9899.8167    79.347801    23.169945    25.392206 
 5181600    224.23351   -751.03878    216009.12   -20567.186    1304.0435   -21871.229   -2596.3304    9897.1237    79.347786    23.170263    25.393607 
 5181800    218.29857   -672.47925    216009.12    -20644.33    1269.5285   -21913.859   -2183.4769    9901.1206     79.34657    23.170451    25.391687 
 5182000    232.46588   -657.26249    216009.12   -20560.592    1351.9193   -21912.512   -2160.8119    9899.5202     79.34697    23.171905    25.396317 
 5182200    230.00913   -689.78466    216009.12   -20564.381     1337.632   -21902.013   -2280.5393    9898.0167      79.3469     23.17297    25.393036 
 5182400    231.92176   -636.36073    216009.12    -20555.29     1348.755   -21904.045   -2062.0755    9900.2386    79.345768    23.171143    25.398565 
 5182600    222.24337   -603.60979    216009.12    -20646.34    1292.4698    -21938.81   -1951.7706    9899.3835    79.344888    23.171663    25.398163 
 5182800    232.21056    -682.1498    216009.12   -20586.677    1350.4345   -21937.112   -2268.6565     9897.967    79.344483     23.17156     25.39136 
 5183000    230.36718   -620.03866    216009.12   -20577.129    1339.7142   -21916.843   -2013.6764    9897.8609    79.344267    23.171138    25.389687 
 5183200    233.12863   -609.16323    216009.12   -20527.491    1355.7736   -21883.265   -1954.7309    9898.3147    79.344306    23.170836    25.389316 
 5183400    232.08242   -754.42644    216009.12   -20534.621    1349.6893   -21884.311   -2573.7315    9897.0236    79.343663    23.171929    25.384664 
 5183600    218.68941   -614.05114    216009.12   -20617.686    1271.8015   -21889.487    -1980.431    9898.2669    79.342887    23.170413    25.392032 
 5183800    220.11724   -598.56047    216009.12   -20641.363    1280.1051   -21921.468   -1907.6024    9899.8008    79.343067    23.170389    25.402381 
 5184000    218.06068   -779.02757    216009.12   -20648.357    1268.1451   -21916.502   -2709.2135    9899.6313    79.343729    23.172645    25.400726 
 5184200    227.76533   -640.32508    216009.12    -20537.42     1324.583   -21862.003    -2101.008    9895.6131    79.343674    23.172014    25.392315 
 5184400    222.63912    -626.7449    216009.12   -20602.964    1294.7713   -21897.736   -2014.1128    9900.8299    79.343431    23.172605    25.402404 
 5184600     228.9906   -742.44369    216009.12   -20537.699    1331.7087   -21869.407   -2528.8632     9900.759    79.344454    23.173738    25.406569 
 5184800    226.16962   -632.61365    216009.12   -20597.855    1315.3031   -21913.158   -2094.2616    9895.6109    79.343142     23.17446    25.406327 
 5185000    222.15059   -610.92907    216009.12   -20617.447    1291.9301   -21909.377   -1967.7871    9900.2264    79.342551     23.17531    25.399878 
 5185200    226.95261   -631.63143    216009.12    -20597.94    1319.8566   -21917.797   -2036.5017    9902.4753    79.344627    23.177145    25.398385 
 5185400    220.15916   -523.51753    216009.12   -20634.225    1280.3489   -21914.574   -1578.6666    9893.1158    79.345912    23.176396    25.400114 
 5185600     226.2466   -559.76929    216009.12   -20598.586    1315.7508   -21914.337   -1723.5127    9898.2142    79.345147    23.176675    25.393003 
 5185800    229.25131   -642.99168    216009.12   -20609.083    1333.2248   -21942.308   -2119.2471    9902.7192     79.34553    23.177606    25.390405 
 5186000    228.16568    -567.6817    216009.12   -20567.558    1326.9113   -21894.469     -1793.65    9896.2424    79.344872    23.178055    25.397017 
 5186200    237.01831   -573.00667    216009.12   -20577.084    1378.3943   -21955.478   -1779.1907    9897.5715    79.343986    23.177735    25.398944 
 5186400    233.03115   -671.20079    216009.12   -20595.033    1355.2067   -21950.239    -2181.241    9901.0556    79.344603     23.17983     25.39623 
 5186600    227.89814   -583.25723    216009.12   -20586.583    1325.3554   -21911.938    -1816.324    9896.4953    79.346719     23.18066    25.395757 
 5186800    228.56734    -720.2459    216009.12   -20580.019    1329.2472   -21909.266   -2429.4337    9896.3458    79.346367    23.180314    25.395413 
 5187000    226.81848   -713.05377    216009.12   -20604.677    1319.0766   -21923.754   -2416.7756    9898.9953    79.346733    23.180726    25.398885 
 5187200    232.43833   -612.07485    216009.12   -20566.376    1351.7591   -21918.135   -1989.1482    9897.3929    79.346958    23.182221    25.403306 
 5187400     225.0225    -751.1394    216009.12   -20574.208    1308.6319    -21882.84   -2569.4767    9898.3571    79.346748    23.182911    25.395082 
 5187600      225.681   -601.73999    216009.12   -20620.449    1312.4615   -21932.911   -1908.6058    9896.4004    79.346924    23.183479    25.398004 
 5187800     231.9525   -629.32421    216009.12   -20573.753    1348.9338   -21922.687   -2052.8046    9898.6569    79.347289    23.184049    25.392235 
 5188000    225.58812   -662.23364    216009.12   -20600.369    1311.9213   -21912.291   -2169.3196    9897.5664    79.347283    23.184057    25.397116 
 5188200    233.98451   -537.60256    216009.12   -20550.741    1360.7511   -21911.492   -1712.9416    9896.3939    79.346145    23.184106    25.397344 
 5188400    232.09114   -590.08515    216009.12   -20577.373      1349.74   -21927.113    -1889.302    9898.0333    79.346018    23.183689    25.395176 
 5188600     233.3213   -663.99302    216009.12   -20587.514    1356.8941   -21944.409   -2175.8529    9897.9462    79.347001    23.183852    25.396952 
 5188800     220.0734   -611.57004    216009.12   -20634.125    1279.8502   -21913.975   -2006.7585    9893.8192    79.346785    23.183174    25.396802 
 5189000    225.11784   -606.46658    216009.12   -20628.071    1309.1864   -21937.257   -1977.2072    9898.9496    79.347014     23.18311    25.398282 
 5189200    223.05424   -715.89707    216009.12   -20616.621    1297.1854   -21913.806   -2406.3628    9900.1552    79.347717    23.184832    25.396118 
 5189400    217.35388   -656.86129    216009.12   -20662.835    1264.0346   -21926.869    -2141.399    9897.0608    79.347764     23.18504    25.402947 
 5189600    222.09308   -671.18552    216009.12   -20610.118    1291.5957   -21901.713   -2243.4934     9900.279    79.346847    23.185796    25.407833 
 5189800    230.58966    -793.6097    216009.12   -20565.412    1341.0081    -21906.42    -2782.072    9900.7362    79.347423    23.186804    25.404124 
 5190000    221.31879   -624.40688    216009.12   -20602.457    1287.0928    -21889.55   -2007.4925    9895.5585    79.347517    23.185856    25.406743 
 5190200    228.42002   -682.01062    216009.12   -20572.792    1328.3904   -21901.182     -2284.33    9899.0678    79.345632    23.185375    25.397493 
 5190400    225.35747   -665.16305    216009.12   -20592.032      1310.58   -21902.612   -2185.2362    9901.6725    79.346747    23.185645    25.400698 
 5190600    230.52661   -531.11157    216009.12   -20521.561    1340.6414   -21862.202   -1595.7071    9893.7158    79.347556    23.185165    25.403983 
 5190800    230.14971    -671.3934    216009.12   -20595.877    1338.4495   -21934.327   -2226.2604     9899.369    79.345629    23.182727    25.396053 
 5191000    228.61294   -656.36649    216009.12   -20570.462    1329.5123   -21899.974   -2192.8984    9902.2412    79.346465    23.183949    25.395434 
 5191200    229.93226   -543.13385    216009.12   -20559.724    1337.1849   -21896.909   -1710.7523    9897.7897    79.346063    23.182944    25.399028 
 5191400    230.20893   -707.10768    216009.12   -20590.552    1338.7939   -21929.346   -2408.3414    9898.7919    79.343902     23.18174    25.401204 
 5191600    224.75634   -662.79407    216009.12   -20603.366    1307.0841    -21910.45   -2132.7276    9902.1652    79.343715    23.182308    25.387074 
 5191800    228.18835   -628.81064    216009.12   -20593.789    1327.0431   -21920.832   -2016.0701    9898.9067    79.343423     23.18294    25.386411 
 5192000    231.39889   -660.57585    216009.12    -20540.05    1345.7142   -21885.764   -2146.3938    9896.9531    79.341451    23.182142    25.390527 
 5192200    228.66608   -691.51915    216009.12   -20520.067    1329.8214   -21849.889   -2346.5215    9904.1374    79.340273    23.182011    25.400203 
 5192400    220.82327   -663.69219    216009.12   -20581.106    1284.2111   -21865.317   -2222.5095     9899.242     79.34252    23.182617    25.401396 
 5192600    228.48172   -745.81541    216009.12   -20563.666    1328.7493   -21892.415   -2560.7678    9898.2431    79.342645    23.182473    25.397416 
 5192800    229.47735    -657.0683    216009.12   -20584.901    1334.5394   -21919.441   -2154.8198    9899.4543    79.342426    23.182456    25.397956 
 5193000    227.47693    -542.9726    216009.12   -20551.713    1322.9058   -21874.619    -1647.679    9896.9843    79.343244    23.183559    25.402275 
 5193200    225.95779   -702.65902    216009.12   -20623.422    1314.0712   -21937.493   -2347.9124    9898.1804    79.342697    23.183071    25.397043 
 5193400     227.1275   -679.88946    216009.12   -20545.842    1320.8737   -21866.716   -2266.2953    9898.9195    79.341603    23.182697    25.398923 
 5193600    225.34147   -535.48836    216009.12   -20577.298    1310.4869   -21887.785   -1666.7998    9897.8889    79.340993    23.181317    25.398153 
 5193800    227.18339   -769.88498    216009.12   -20557.822    1321.1988    -21879.02   -2641.7881    9899.9675     79.34023    23.180502    25.402457 
 5194000    231.01678   -592.90789    216009.12   -20551.506     1343.492   -21894.998   -1869.9169    9895.6979    79.338731    23.180636    25.396199 
 5194200    223.70681   -549.18964    216009.12   -20628.248    1300.9805   -21929.229   -1685.1554    9897.4367    79.336261    23.179924    25.391076 
 5194400    224.83492   -738.39252    216009.12   -20604.941     1307.541   -21912.482   -2504.1747    9902.2065    79.336571    23.181827    25.395704 
 5194600    220.55752   -662.45979    216009.12   -20564.273    1282.6656   -21846.938   -2190.2394    9895.4437    79.336517     23.18101    25.403928 
 5194800    232.37444   -566.94263    216009.12   -20514.895    1351.3876   -21866.282   -1812.8582    9898.8728     79.33522    23.180485    25.398672 
 5195000    233.14461    -659.9506    216009.12   -20583.182    1355.8666   -21939.048   -2130.3892    9900.4806    79.336294    23.182328    25.397739 
 5195200    230.35362   -614.15548    216009.12   -20511.243    1339.6354   -21850.878   -1978.8273    9896.8981    79.336596    23.182698    25.403822 
 5195400    229.87035   -537.55641    216009.12   -20577.866    1336.8249   -21914.691   -1662.8404    9895.5221    79.335677    23.182892    25.406576 
 5195600    221.89892   -738.63866    216009.12   -20523.591    1290.4666   -21814.057   -2499.4314    9904.3765     79.33569    23.183237    25.400902 
 5195800    224.07805   -661.90502    216009.12   -20594.939    1303.1394   -21898.078   -2204.3024    9895.5384    79.334542    23.182363    25.398392 
 5196000    231.16799   -555.86268    216009.12   -20503.414    1344.3714   -21847.786   -1749.9846    9895.9839    79.332094     23.18154    25.386615 
 5196200     223.0619   -748.00476    216009.12   -20528.508      1297.23   -21825.738   -2560.0339    9902.6559    79.331968    23.181116    25.393533 
 5196400    223.81231   -592.52726    216009.12    -20571.85     1301.594   -21873.444   -1890.8291     9895.633    79.330648    23.180145    25.393217 
 5196600    228.35113   -513.44619    216009.12   -20536.357    1327.9898   -21864.347   -1571.0586    9892.5853    79.328729    23.178495    25.395895 
 5196800    227.15623    -753.8237    216009.12   -20555.174    1321.0408   -21876.215   -2622.1753    9904.2147    79.328443    23.177629    25.390276 
 5197000    230.92296   -612.01605    216009.12   -20546.234    1342.9464    -21889.18   -1956.1528    9895.6771    79.328082    23.177278    25.400066 
 5197200     229.9996   -565.07335    216009.12   -20526.744    1337.5766   -21864.321   -1771.1767    9893.3212    79.327434    23.177083    25.394647 
 5197400    223.19933   -792.91536    216009.12   -20579.119    1298.0292   -21877.148   -2746.0056    9902.5643    79.326664    23.176343    25.397019 
 5197600    228.58012   -619.15329    216009.12   -20589.174    1329.3215   -21918.495   -1984.8684    9896.8464    79.326905    23.176311    25.401579 
 5197800    229.54275   -579.98003    216009.12   -20599.915    1334.9198   -21934.835   -1860.1814    9895.6087    79.327338    23.176743     25.40042 
 5198000    213.30152   -776.35543    216009.12   -20638.295    1240.4679   -21878.763   -2657.7675    9900.5779    79.327977    23.177209      25.4015 
 5198200    226.07578   -628.16389    216009.12   -20549.414    1314.7573   -21864.172   -2039.0853    9896.1817    79.328146    23.178132    25.400772 
 5198400    225.54958   -577.03624    216009.12   -20545.137    1311.6972   -21856.834   -1824.0333     9895.172    79.327486     23.17731    25.395572 
 5198600    229.48141   -758.57718    216009.12   -20567.178     1334.563   -21901.741    -2580.304    9899.8827    79.326731    23.177827    25.401917 
 5198800    223.42545   -610.05061    216009.12   -20642.866    1299.3442    -21942.21   -1971.7107    9896.6163    79.327045    23.177404     25.40758 
 5199000    226.62185   -678.01991    216009.12   -20599.296    1317.9331   -21917.229   -2288.7307    9897.0514    79.326844    23.176174     25.39577 
 5199200     232.1723   -698.96393    216009.12    -20508.95     1350.212   -21859.162   -2336.3345    9898.7837    79.326422    23.175525    25.403103 
 5199400    219.56933   -613.31416    216009.12   -20614.756    1276.9187   -21891.675   -1965.0714    9895.4046    79.325695     23.17458    25.400502 
 5199600    225.11737   -720.76637    216009.12   -20601.624    1309.1836   -21910.808   -2386.8488    9897.8237    79.324037    23.173319    25.402654 
 5199800    229.26927   -686.01673    216009.12   -20571.233    1333.3293   -21904.562   -2274.4139    9896.8674    79.323678    23.172554    25.405081 
 5200000    227.75892   -581.10499    216009.12   -20582.908    1324.5458   -21907.454   -1862.6872    9894.9569    79.322826    23.171435    25.411727 
Loop time of 7150.1 on 160 procs for 5200000 steps with 9248 atoms

Performance: 628.355 ns/day, 0.038 hours/ns, 727.263 timesteps/s
97.7% CPU use with 160 MPI tasks x no OpenMP threads

MPI task timing breakdown:
Section |  min time  |  avg time  |  max time  |%varavg| %total
---------------------------------------------------------------
Pair    | 0.24419    | 1454.1     | 5592.4     |5172.9 | 20.34
Neigh   | 0.31769    | 91.396     | 422.2      |1239.8 |  1.28
Comm    | 11.517     | 1789.5     | 5685.1     |4589.4 | 25.03
Output  | 89.265     | 89.339     | 91.334     |   1.7 |  1.25
Modify  | 256.11     | 3625.3     | 6956.6     |4789.6 | 50.70
Other   |            | 100.5      |            |       |  1.41

Nlocal:    57.8 ave 196 max 0 min
Histogram: 72 19 29 0 0 0 0 0 13 27
Nghost:    536.019 ave 908 max 0 min
Histogram: 17 7 0 8 8 32 34 15 24 15
Neighs:    0 ave 0 max 0 min
Histogram: 160 0 0 0 0 0 0 0 0 0
FullNghs:  5862.88 ave 23586 max 0 min
Histogram: 109 11 0 0 0 0 0 1 20 19

Total # of neighbors = 938060
Ave neighs/atom = 101.434
Neighbor list builds = 551618
Dangerous builds = 0
write_data 		${DIR}/data.${NAME}_run
write_data 		run_24/data.${NAME}_run
write_data 		run_24/data.ibeam_cooling_24_run
Total wall time: 1:59:25
