LAMMPS data file via write_data, version 7 Aug 2019, timestep = 5000000

4097 atoms
1 atom types

2.2598273351743359e-01 5.1194017266481907e+01 xlo xhi
2.2598273351743359e-01 5.1194017266481907e+01 ylo yhi
2.2598273351743359e-01 5.1194017266481907e+01 zlo zhi

Masses

1 18.15

Atoms # atomic

3575 1 4.4230024207210548e+00 2.9116221998623040e+00 2.6634289656729657e+00 0 2 4
3889 1 8.7482899061187549e+00 2.1030634715135483e+00 5.6944456790600984e-01 1 1 0
611 1 1.2636958375347129e+01 2.0707024294357326e+00 2.8767076391552000e+00 2 0 1
1616 1 1.3882691067692992e+01 3.3136440336655681e-01 1.2687340402072589e+00 0 1 1
3831 1 1.8665637603033673e+01 1.9398461336950570e+00 1.4756431244881776e+00 2 4 -1
1851 1 1.6500798198205267e+01 3.2743969914116806e+00 3.5971862344909289e-01 -1 -2 2
2872 1 2.1117302199949652e+01 2.5884393490407409e+00 4.5068198635711154e-01 -1 1 2
1459 1 2.3010016998413459e+01 1.0783112291058468e+00 1.6739818667390314e+00 -2 1 -2
1321 1 2.4708956646188064e+01 2.8928949652251350e+00 3.1390209239557167e+00 -3 1 3
3366 1 8.7718088390364113e-01 6.3787116041740974e+00 3.3080578092578259e+00 -1 -2 0
514 1 5.4492616213849221e-01 3.5938451532733127e+00 2.7363902639370492e+00 1 -3 3
607 1 7.2703553541715857e+00 6.0045236439735703e+00 2.8630515599668218e+00 1 3 0
555 1 7.2350180625267164e+00 6.2969997494868686e+00 3.4569701499126637e-01 2 -1 0
4030 1 1.0550479944073498e+01 3.5578977442133755e+00 1.8645567183202854e+00 0 1 1
1719 1 1.5125666328823232e+01 4.8732060242170565e+00 2.2233466547992244e+00 2 2 -1
3793 1 2.1464729375335938e+01 5.2663505134592175e+00 1.0234922943859672e+00 1 0 -2
1540 1 2.1328271430304714e+01 5.6464941995404514e+00 3.4397098063282794e+00 -2 2 0
1383 1 2.3914294429771605e+01 5.8409787498600778e+00 2.5196168878967029e-01 -1 2 1
272 1 3.3478444144171928e+00 7.1245343829033807e+00 2.5603501710715881e+00 -1 -2 0
589 1 3.7791060939197365e+00 9.6472682664263250e+00 2.9272334917872214e+00 0 0 1
2549 1 7.8159901805087628e+00 8.7526619522057274e+00 3.1576255864000462e+00 1 -1 0
543 1 1.0352005963451614e+01 9.6126431177151037e+00 2.3725174603378187e+00 3 1 1
1877 1 1.2155912371338491e+01 7.9870919675276193e+00 3.0897048942955090e+00 1 2 2
1902 1 1.3389572420653868e+01 6.6898085909720013e+00 1.0815044762179196e+00 -1 0 0
2089 1 1.8106017542089223e+01 7.9259086588055254e+00 1.9839231583565187e+00 -2 -1 0
877 1 1.6423706996564544e+01 9.6544574507945082e+00 1.0941354337299463e+00 0 -1 -1
1606 1 1.9918364067513551e+01 9.6707769519262428e+00 3.0760307205040198e+00 -3 -1 1
4071 1 2.4273314942063358e+01 8.7699347125360880e+00 3.4643588887284396e+00 -2 2 2
68 1 2.4193194917636323e+01 8.7630463703117183e+00 7.3687606098785685e-01 -1 1 0
634 1 1.7216909597516419e+00 1.1253736638064884e+01 1.7591742527385623e+00 0 -1 1
1076 1 6.1832378188048835e+00 1.0412357028278768e+01 1.9125371440144483e+00 2 2 0
1034 1 1.0588107279813467e+01 1.2288779008890350e+01 2.6589901274522898e+00 -2 0 2
1058 1 1.3075488829963739e+01 1.2766772721760617e+01 1.9454896732100460e+00 -2 1 1
86 1 1.4944148553001869e+01 1.1142037881887092e+01 2.8519131542844023e+00 0 0 1
313 1 2.1118165186938779e+01 1.1782383950662371e+01 1.5610870940005634e+00 -2 -2 -2
3683 1 2.9834548715199700e+00 1.5762462878657869e+01 3.5579907031760771e+00 0 2 -1
1710 1 3.0644418059974488e+00 1.3179362374716925e+01 2.7009283843951692e-01 -2 1 2
1018 1 4.5436552562073365e+00 1.4579076936976877e+01 1.7841515582973897e+00 1 1 2
3252 1 6.2920356195755129e+00 1.2986357194831664e+01 2.6988723836913451e+00 1 2 -2
2962 1 8.5347280019314695e+00 1.3570155786314977e+01 1.5448195395356279e+00 1 0 0
2111 1 9.0392230063194123e+00 1.6142492244888587e+01 2.0976023081278661e+00 1 -2 -1
82 1 1.3626073913165976e+01 1.5521053617093582e+01 2.5120398351637983e+00 -1 -1 2
1712 1 1.9099293060198928e+01 1.3285059379955653e+01 6.7349345189525278e-01 0 0 -1
3103 1 1.6231175099431404e+01 1.6140087321525236e+01 1.5364932676954419e+00 1 1 1
395 1 1.7787470455337992e+01 1.4499705121157014e+01 2.6006335268103555e+00 0 0 0
850 1 2.2941852354783961e+01 1.3091833028827402e+01 3.0612444428258589e+00 0 1 4
2797 1 2.3658670543975585e+01 1.4653808691348464e+01 1.2448079646187071e+00 0 1 1
3639 1 1.3788627058509040e+00 1.7427001321694732e+01 2.2261575398358473e+00 3 0 0
3480 1 5.6010082488771227e+00 1.9154441422865219e+01 3.5532477102870437e+00 0 0 1
1979 1 7.0606182190022482e+00 1.7962573865939479e+01 1.4929641145440957e+00 0 2 0
2598 1 1.1631429324611464e+01 1.6886464266543541e+01 1.3602538612138195e+00 2 2 0
632 1 1.6016605390154787e+01 1.8874643178680287e+01 2.0145927806089174e+00 0 -1 -1
1441 1 1.8533562132996817e+01 1.9087471537691250e+01 1.0673693466134984e+00 0 1 0
1289 1 2.0658227983990741e+01 1.7539163380700593e+01 1.9016696032584119e+00 -2 0 1
2246 1 2.2442082555756294e+01 1.9223021150122918e+01 3.1629940125302061e+00 -3 -2 -1
2430 1 2.5681674329212768e+01 1.6372823114015567e+01 2.3429873800757646e+00 -1 -1 0
2355 1 1.2914031787795419e+00 1.9766341979011813e+01 3.1700808977053372e+00 -1 0 -1
1740 1 3.6499024702862584e+00 2.0762294670742310e+01 2.2544507431830887e+00 0 -3 3
3689 1 8.4310420217607209e+00 2.2449460184980030e+01 3.1145800111131745e+00 -1 2 2
2955 1 9.8260167415289938e+00 2.1129836097170323e+01 1.2085200822895588e+00 -1 1 1
114 1 1.1905259931604199e+01 1.9526176963122907e+01 1.8386114851297870e+00 -1 -2 -1
2504 1 1.4275024169094669e+01 2.0502947445729820e+01 1.1053417919287312e+00 3 -1 2
3090 1 1.9480970601958866e+01 2.1798285230593869e+01 1.5215730672757506e+00 -1 1 1
378 1 2.3802566828512052e+01 2.0714519004894559e+01 1.3156246701173646e+00 -3 0 1
2378 1 2.5240612126153842e+01 2.2033335233603122e+01 2.9481452374283497e+00 -2 0 0
3772 1 2.1414266864241092e+00 2.4821533579647294e+01 1.5198594408834352e+00 0 -1 1
21 1 4.0517299246998952e+00 2.3291505423392060e+01 2.7403914618378482e+00 1 2 2
1323 1 6.6172694873652675e+00 2.4170461870900368e+01 2.0194040401593445e+00 -1 0 0
2166 1 1.1706546440829969e+01 2.5400322431547846e+01 2.6424629382242695e+00 2 -1 1
795 1 1.2745115981156404e+01 2.4290341664227132e+01 5.0565480945888464e-01 -1 -2 0
1005 1 1.4878409975300679e+01 2.3018202339391170e+01 1.7889513689764633e+00 -1 -2 3
2438 1 1.7379883127868553e+01 2.3152733322328647e+01 4.9117329552124428e-01 3 0 -1
869 1 2.1953004080559658e+01 2.5164137083785281e+01 1.4497515760064921e+00 1 2 5
3107 1 2.2016153987613581e+01 2.2589816024241834e+01 4.7454446847976112e-01 1 0 0
337 1 2.4433770868756060e+01 2.5512995250602490e+01 3.3083963454306087e-01 -2 -1 0
1964 1 2.3624924955444495e+00 2.2841046835550656e+00 4.1743626240512333e+00 2 2 1
195 1 1.9350798340395703e+00 2.8239519530144097e+00 6.9099470657807984e+00 1 1 3
230 1 6.5175731921844084e+00 1.7714708648727069e+00 4.0466479208040349e+00 -1 1 1
263 1 8.3638832750766365e+00 2.9266681932104621e+00 5.6146899330812783e+00 0 0 1
1463 1 1.0263259047383402e+01 1.5878489377336089e+00 6.6036511170842482e+00 1 3 2
3157 1 1.1429741086823221e+01 5.2138664816748559e-01 4.4928710860869181e+00 1 0 0
3940 1 1.6058244790750578e+01 1.8060614534198973e+00 5.1932299855699853e+00 -2 3 1
1430 1 1.8647037856165174e+01 2.1219773563011421e+00 4.1433746112120451e+00 -1 0 -1
2015 1 2.0668369763209615e+01 7.5467990978233479e-01 5.4529011567952530e+00 1 1 -1
2293 1 2.2336991210074792e+01 2.5943829663018199e+00 6.4847330288398046e+00 2 -2 -1
3979 1 4.9309389420527880e+00 5.2622673601451284e+00 3.6525467462638632e+00 0 0 3
2847 1 4.6543782176385973e+00 5.7382821352024136e+00 6.4012421921858875e+00 2 0 0
260 1 9.4209160846382307e+00 4.6743270642346433e+00 3.8169575750884466e+00 0 -1 -1
2799 1 1.1066055843655331e+01 6.4279328078411551e+00 5.1694187569497458e+00 1 -1 -2
2900 1 1.2891880345165996e+01 4.6279970807629542e+00 6.2991061013703789e+00 0 0 -1
852 1 1.4325882255754008e+01 3.4280764419345102e+00 4.2916782713057069e+00 -2 0 2
3446 1 1.9093461402818122e+01 4.7062114744699395e+00 4.5573481834923051e+00 3 2 1
901 1 1.6835546277269902e+01 6.3087073591235221e+00 3.8247269062663394e+00 1 -2 1
3 1 2.5140173590842576e+01 5.9435383235520476e+00 6.1558270481739905e+00 -1 1 -1
3656 1 2.3306687809064499e+01 4.3919091270711084e+00 4.7276655102897447e+00 -1 -2 2
1852 1 5.0512294082106124e-01 7.1859109268521495e+00 6.1121199068027474e+00 1 0 0
1609 1 5.4748216890990191e+00 8.4139845811098937e+00 6.7758981760714816e+00 1 1 0
3581 1 7.7361420988978358e+00 9.2270449677247957e+00 5.7603926163576364e+00 0 0 0
3658 1 1.5691553891074918e+01 7.8082255463783961e+00 5.8337787352083303e+00 0 0 1
2575 1 1.3914313709441810e+01 9.4504845665057484e+00 4.6189946133397290e+00 2 0 2
3119 1 2.1765703639283267e+01 8.2035212019252164e+00 4.1897021474840610e+00 0 0 0
3752 1 2.1889812713481174e+01 8.6537230433549972e+00 6.7273551520162416e+00 1 2 0
1632 1 8.3564015849244855e-01 9.8264943379005345e+00 6.8094241202898500e+00 0 1 0
1498 1 3.2924163355863740e+00 9.8869624160096965e+00 5.5596688523733242e+00 -2 2 0
2521 1 3.6809621220224527e+00 1.2440090619639900e+01 6.1758601279488072e+00 1 -1 4
2728 1 6.3659889417963109e+00 1.2879066774156888e+01 5.4625651529934132e+00 2 -1 0
340 1 8.6134336200148507e+00 1.1664749856054723e+01 6.7446299468115827e+00 0 -1 1
3503 1 1.0655361530090040e+01 1.2581795326836335e+01 5.4836500203525107e+00 1 3 -1
3400 1 1.2639970279098113e+01 1.1238228113594573e+01 6.3912061403483751e+00 2 0 0
3862 1 1.8524931537874096e+01 1.1234937608774386e+01 4.9822882345657975e+00 -1 1 1
430 1 1.6609121022079783e+01 1.2866433432770487e+01 4.1815173166432453e+00 -2 -1 0
3897 1 2.0318936384290922e+01 1.2835108551503827e+01 6.6139402239349412e+00 0 -1 0
3379 1 2.4782801335857137e+01 1.1574495948688996e+01 4.0621144363843209e+00 0 0 0
3596 1 2.4851988754410286e+01 1.1882435014176052e+01 6.7085343845784324e+00 0 -1 0
1281 1 1.5970642366370029e+00 1.4129659084339906e+01 5.0296453173337028e+00 0 -1 -1
1924 1 6.5868652967793304e+00 1.5551760410675504e+01 5.9417696085139973e+00 1 -1 -1
3183 1 1.1230504891966955e+01 1.5195935779275043e+01 5.9735866903358792e+00 1 2 -2
2098 1 1.5281213925133285e+01 1.3867167459414381e+01 6.4627518735160852e+00 0 0 -1
224 1 1.3586743610501038e+01 1.5722983868916286e+01 5.0670596698379127e+00 0 1 -1
1210 1 1.9575481223018759e+01 1.6070514169629984e+01 3.8135445483092787e+00 1 0 -2
2059 1 2.1423144575979805e+01 1.4540845067113461e+01 4.8632369191748186e+00 1 -1 -1
209 1 2.3154122810138052e+01 1.5908669186195997e+01 6.1776146425206129e+00 -1 0 -1
3475 1 4.4886875631025713e+00 1.7150613660295193e+01 5.1843112329526821e+00 -1 0 0
81 1 9.0549918662131805e+00 1.6562887069451374e+01 4.9670383193433434e+00 -3 -1 -1
210 1 9.7537423239363896e+00 1.9281311764729118e+01 5.5951821234953023e+00 -1 -2 -1
3452 1 1.4061299920981430e+01 1.8307713577774400e+01 5.7825647826358377e+00 0 -1 0
1505 1 1.6223724394937609e+01 1.8903047280866719e+01 4.5473064637832818e+00 1 1 2
452 1 1.8118994508647212e+01 1.7324579318414962e+01 5.6970747385894951e+00 2 0 1
1650 1 1.9745815031327481e+01 1.9018764310207992e+01 6.8595460815077463e+00 0 -3 0
1220 1 2.4149543815145812e+01 1.7546336800877729e+01 4.2839334836251393e+00 0 0 1
703 1 9.7606295241204011e-01 2.0664517570248677e+01 5.5210775961920193e+00 1 2 0
812 1 3.1080486127749007e+00 2.1894127435154047e+01 6.8137576139366507e+00 -1 -1 0
2112 1 7.3991181907968979e+00 2.0723981925947701e+01 4.8562120241987214e+00 -1 -1 1
281 1 1.2144838382287551e+01 2.0004790220433691e+01 4.5908991212100227e+00 0 0 1
2629 1 1.6782064632710473e+01 2.1378169072145745e+01 5.3867672256112309e+00 2 -2 1
2500 1 1.9024851492124998e+01 2.2080585182435907e+01 4.2330910434423030e+00 0 0 -2
1286 1 2.1140266086290868e+01 2.0485718521952879e+01 5.1072750720670506e+00 0 -3 1
1701 1 2.2824607104386558e+01 2.1947494928099573e+01 6.4521628306333696e+00 2 2 2
292 1 4.0116414675181495e+00 2.3801659215316086e+01 5.2276237569381951e+00 2 0 -2
904 1 5.9602588661776492e+00 2.4733226641257367e+01 6.6108549201454530e+00 2 1 1
1325 1 1.2332266878860930e+01 2.2691803764875367e+01 5.4743811434788059e+00 -1 1 1
1365 1 1.0460565234091353e+01 2.3975889583812688e+01 4.2818798859632539e+00 0 0 1
3346 1 1.5030064668906629e+01 2.3077761779573208e+01 4.3920560344051811e+00 1 -1 -1
586 1 2.1957963053722199e+01 2.5327421221473497e+01 4.0929254206834473e+00 2 -1 0
2937 1 1.9480761677410246e+01 2.4690164137888789e+01 4.9960589166344880e+00 -1 1 2
3055 1 2.3834962479755891e+01 2.3764166671277337e+01 4.8445670857531615e+00 1 -2 1
339 1 3.9462374173680392e+00 1.3515589810640214e+00 7.9286923839550383e+00 1 1 0
3569 1 5.6037916576285198e+00 3.0173088264420720e+00 9.1727536210510081e+00 3 0 -1
3720 1 7.5371415250688729e+00 1.5182146133698615e+00 9.9061186678928035e+00 1 1 1
66 1 1.1778299507366681e+01 3.0927607749801949e+00 7.9667594602669407e+00 1 -1 0
487 1 1.3964937813820894e+01 1.4387187132629549e+00 8.6913425009813956e+00 -1 -2 1
1189 1 1.6337577268331277e+01 1.9268841655175348e+00 7.7518971975374766e+00 0 2 0
903 1 1.8330677578894150e+01 8.2105510919688551e-01 9.1213429056721456e+00 0 -1 -1
352 1 2.0190711261882807e+01 2.4357007830561113e+00 1.0094676341535012e+01 -1 3 -1
545 1 2.4395388173939409e+01 1.1790865487172832e+00 7.6183268558884327e+00 4 -2 0
381 1 2.2931262639657146e+00 5.4660156497700241e+00 7.4172134001924865e+00 1 0 1
503 1 2.3234163665009486e+00 5.5440656036903340e+00 1.0209841955516573e+01 1 -1 0
1042 1 6.9215139500748455e+00 4.4303590029117768e+00 7.4358444347389758e+00 1 -2 0
2115 1 8.5491198428308710e+00 5.9549545307561909e+00 8.8707360510677713e+00 -1 -1 1
2621 1 1.0409656114023534e+01 4.3416772879750720e+00 9.8708447231291299e+00 0 2 2
2224 1 1.4846592409332780e+01 6.3604153666220435e+00 7.8243030084803493e+00 2 2 0
1260 1 1.6670478209127356e+01 4.6319621142431826e+00 8.1637939582707357e+00 1 -1 1
979 1 1.9004835625277696e+01 5.4041936796325700e+00 7.0977330619729653e+00 0 1 1
3717 1 2.1179297320271083e+01 4.1070371297481465e+00 8.1505404477457848e+00 -2 2 -2
1663 1 2.2703516101079067e+01 5.5821940464156619e+00 9.8780466573722876e+00 1 0 -2
723 1 3.5815428849548608e-01 9.3117371771383048e+00 9.7535663509381276e+00 0 -3 4
2740 1 5.2507600328950659e+00 8.9022863293294829e+00 9.4515115039856212e+00 2 -2 1
253 1 9.6093359783202033e+00 7.7352569119532424e+00 7.2114599861582871e+00 -1 0 -2
595 1 1.1010419003438704e+01 9.4861230297541610e+00 8.2352992097509112e+00 -1 -3 0
2843 1 1.3099769666916982e+01 7.6089094843026936e+00 9.5521754465889064e+00 3 -1 1
963 1 1.7379533755739338e+01 9.4349021381495337e+00 7.0400507099792389e+00 0 2 0
2391 1 1.9376611352749052e+01 7.8637084012135707e+00 7.8505258057909764e+00 3 0 0
3058 1 2.3859217876490209e+01 7.3538141150167071e+00 7.8261924063926038e+00 0 3 0
2602 1 2.5552225234930404e+01 8.8681017292464297e+00 9.3685009979451959e+00 1 2 1
3901 1 1.0532356127213522e+00 1.2440573637068969e+01 8.3986795406877466e+00 -1 1 2
2652 1 5.8180243920954027e+00 1.1554446982303764e+01 1.0031187370833514e+01 -1 0 1
2947 1 8.3324140750806919e+00 1.2098971112057775e+01 9.4162614653034762e+00 2 -1 1
2758 1 1.4144220340621702e+01 1.2200692662205444e+01 8.3153824798173446e+00 0 0 1
2892 1 1.6284163759459545e+01 1.0716883802872792e+01 9.2203238608507601e+00 2 -1 -1
2450 1 1.7770115007476829e+01 1.2552280172150283e+01 1.0402464326719299e+01 -1 0 -1
2957 1 2.2323581922428342e+01 1.1161089735635235e+01 7.4646236185910766e+00 -2 1 1
456 1 2.2303067830318561e+01 1.1116700574932370e+01 1.0089669411394942e+01 -3 0 1
1520 1 2.5409461214620666e+00 1.5510220395331713e+01 9.1804802068398725e+00 1 3 -1
3149 1 4.3697626004072090e+00 1.3237811946363520e+01 8.5990081122478834e+00 1 0 -2
371 1 6.2889947442333156e+00 1.5223777657611915e+01 8.6221827292004498e+00 -3 2 3
2170 1 8.8570858828680006e+00 1.4628645611117438e+01 9.7839120715951449e+00 1 2 -1
3618 1 1.0970983853982872e+01 1.5534450117210417e+01 8.7227918260000799e+00 1 0 1
2458 1 1.2697363638831227e+01 1.3681792443538775e+01 9.9004763647218397e+00 1 1 0
907 1 1.7078588943009304e+01 1.5599392841091895e+01 7.2531048975892878e+00 1 1 0
1809 1 1.9083355812204527e+01 1.4320815811952331e+01 8.5224244959218911e+00 -3 1 2
1665 1 2.0770804262349973e+01 1.5683408888240979e+01 9.8447470768503429e+00 2 0 0
2136 1 2.5260979294345884e+01 1.4427727386574356e+01 9.9795038968895540e+00 0 0 0
112 1 2.5109036216023821e+01 1.4354194103171235e+01 7.2890872377150551e+00 1 -1 0
3339 1 2.6202677308393514e+00 1.7510360604084916e+01 7.4853679944385538e+00 1 0 1
401 1 2.4317008873325793e-01 1.8622120710760019e+01 7.0745017842411588e+00 -3 -1 -1
1627 1 4.0098213883338589e+00 1.9147538336153797e+01 8.6726963538285702e+00 2 2 1
2484 1 1.1285059077559369e+01 1.8000588407676592e+01 9.2790423310062042e+00 -1 2 0
2679 1 1.3908913286581688e+01 1.8393047542388896e+01 8.3863044776616924e+00 0 0 -1
1642 1 1.5651147239845205e+01 1.6582122066288417e+01 9.5212690105935511e+00 -1 -2 -1
2531 1 2.1582433742591540e+01 1.7475014582800551e+01 8.2153322689670762e+00 1 2 1
3319 1 2.5646179208784496e+01 1.7268163071389015e+01 1.0381419954914925e+01 0 1 1
2169 1 2.3528763089412440e+01 1.8776804117685540e+01 9.3420807721216388e+00 2 2 -1
425 1 4.7194470498276198e-01 2.1806790454738131e+01 1.0371942145842295e+01 1 -2 1
4056 1 5.9245702931969886e+00 2.0623221648213342e+01 7.1254054117725039e+00 2 1 1
808 1 8.3288108545126907e+00 2.1113893573968568e+01 9.8228232800074977e+00 0 -1 0
441 1 1.0118481291543794e+01 2.0167721024662878e+01 8.1861695625956745e+00 0 0 -1
2553 1 1.2253562482491747e+01 2.1663885459320799e+01 8.2231499902445506e+00 1 -1 -1
3965 1 1.4698983150863709e+01 2.0832878311302345e+01 9.4264392924570455e+00 1 -1 1
3300 1 1.6773512885695506e+01 2.1744196452292343e+01 8.1321366235054668e+00 -1 4 1
3356 1 1.8859779723735343e+01 2.0241890113408466e+01 9.2214592687661181e+00 0 2 1
592 1 2.0761932330606857e+01 2.1470610768285411e+01 1.0419208998541166e+01 1 1 0
2588 1 2.4679588982364745e+01 2.0366170511891223e+01 7.2106088792575376e+00 0 0 0
2978 1 1.8949015557269016e+00 2.3326149581853446e+01 8.4706902496417715e+00 -1 1 1
1359 1 3.4331337852058095e+00 2.5105797598605442e+01 9.7769651852812931e+00 1 1 -1
765 1 6.7616780186801408e+00 2.3316025960105684e+01 8.6583895822454231e+00 0 0 0
3004 1 9.1559306177782958e+00 2.4715423956539460e+01 8.6112196050231802e+00 2 0 0
3551 1 1.1248375511139715e+01 2.3637135690494212e+01 9.7331644732001674e+00 0 -2 -1
1434 1 1.7641293612981205e+01 2.4123275324920829e+01 8.8618476937273325e+00 0 1 1
2612 1 2.2044548720421563e+01 2.3016641587244102e+01 8.8069857217731080e+00 1 0 0
2761 1 1.9992712912057517e+01 2.4647162860099129e+01 7.8814362353145935e+00 1 -1 1
547 1 2.3854524740371499e+01 2.5188184400800193e+01 9.7240388885644862e+00 -1 0 0
3722 1 1.3706558755487448e+00 8.4306023642330952e-01 1.1463903061452754e+01 1 2 1
3988 1 3.3038147303769478e+00 2.6283770105345714e+00 1.2721821909699251e+01 2 1 -1
3489 1 5.3248821813667409e+00 1.3975277406274775e+00 1.3729739913304302e+01 0 1 0
67 1 9.3130797927538715e+00 2.7807460317588397e+00 1.1506023483088725e+01 0 -3 0
1132 1 1.1083128792610035e+01 1.1761963275117548e+00 1.2653350566774087e+01 -1 3 -3
4049 1 1.3788117652539125e+01 1.9379870623990139e+00 1.1429529148603377e+01 0 0 -2
2690 1 1.8516040457656537e+01 3.2722009204242117e+00 1.2087165337503754e+01 1 -1 1
4087 1 2.2104746403547249e+01 7.8236220132480561e-01 1.1326280717303906e+01 0 1 0
1182 1 2.3878561073143388e+01 2.0521289083381213e+00 1.2786590833972861e+01 -1 0 -1
3576 1 4.3251932410257075e+00 4.2980035727255901e+00 1.1060811393431182e+01 -1 2 -1
3350 1 6.0018512027469688e+00 5.8573145336466892e+00 1.2603910736020346e+01 -2 2 0
3861 1 8.0477598550641360e+00 4.3176013843300289e+00 1.3585187420664075e+01 0 -1 -1
895 1 1.2055467479139219e+01 5.8107141887955800e+00 1.1462566562367645e+01 -1 3 1
3253 1 1.4230722262491657e+01 4.5898110290339043e+00 1.2031849667457973e+01 1 1 0
1834 1 1.6721588298973590e+01 4.9921777694941856e+00 1.0754373062372748e+01 1 -2 2
3372 1 2.0096018073584009e+01 4.8529845293255605e+00 1.3420464522910141e+01 -1 3 0
1692 1 2.4814726203915566e+01 4.2868939467106779e+00 1.1154329841751569e+01 0 2 0
1916 1 2.5909637924214652e+00 8.2977728747406445e+00 1.0489619246703347e+01 -2 0 2
2174 1 2.7627580982859614e+00 9.1625235619695857e+00 1.3138904427250303e+01 0 -1 -1
1199 1 7.1152848255043573e+00 7.3649949167262241e+00 1.0760700914441012e+01 0 1 -1
3612 1 9.1628930429228461e+00 8.7326347227748862e+00 1.2271812925850037e+01 0 0 0
2491 1 1.1153397699581241e+01 7.2918239080202465e+00 1.3236334571717327e+01 0 1 1
1282 1 1.5047870621779285e+01 9.1897294006713430e+00 1.0856475394881075e+01 2 0 0
53 1 1.6829144525059771e+01 7.4065745224808923e+00 1.1867757671788961e+01 0 0 0
3077 1 1.9057774327877897e+01 8.4217188422285574e+00 1.0552669477910325e+01 2 1 1
3113 1 2.1223595235081664e+01 6.6361152223312239e+00 1.1607061892836985e+01 1 1 1
3602 1 2.3199296159310020e+01 8.1431424715361551e+00 1.2991728264799745e+01 0 0 -1
1965 1 5.5991508281558238e+00 1.2140022351849968e+01 1.2859504156158911e+01 3 -1 1
1000 1 1.0359064898064680e+01 1.0353357808144587e+01 1.0465761441011921e+01 0 -1 0
2963 1 1.2185349114384938e+01 1.1897518876286163e+01 1.1857816843685992e+01 3 0 -2
3928 1 1.4098479951893898e+01 1.0456685919343530e+01 1.3000383301230652e+01 1 0 -1
3012 1 1.9762267209773270e+01 1.1059811817788709e+01 1.1197891262679294e+01 0 1 3
972 1 2.4331276301383575e+01 1.0032795419459527e+01 1.1500766831404311e+01 -1 1 2
1534 1 1.2352787203761375e+00 1.3467393612987511e+01 1.3194049830831164e+01 0 1 0
3081 1 2.5409025077838532e+00 1.5691001474454124e+01 1.2029178634317793e+01 1 1 0
1717 1 6.5308551272924413e+00 1.4620536464808524e+01 1.3810215711337156e+01 -1 2 -4
1913 1 9.0282589803709836e+00 1.4901895262500711e+01 1.2518343587290630e+01 0 2 1
3073 1 1.4710099483183857e+01 1.4932154162967088e+01 1.1482291257075348e+01 0 1 2
926 1 1.7164276918723363e+01 1.3886283744651687e+01 1.2689130088880907e+01 -3 3 2
921 1 1.9019670138617382e+01 1.5563724542427511e+01 1.3580434842717249e+01 -1 -1 2
1185 1 2.2710595878086494e+01 1.3743885864377255e+01 1.0765941644253468e+01 -1 -1 -1
1889 1 2.2760054438071574e+01 1.4300758356248863e+01 1.3372794153971675e+01 0 -1 -1
3204 1 1.7112371265624473e+00 1.8056989538074383e+01 1.2604365754806363e+01 1 1 1
3750 1 5.6045123997536788e+00 1.7600734304174061e+01 1.0534925261459659e+01 1 2 3
223 1 4.7781615576254923e+00 1.6519560481044628e+01 1.3177416680832152e+01 1 0 -1
2428 1 7.5937724869000363e+00 1.9023328527372925e+01 1.1407259820401418e+01 2 0 1
1888 1 9.3735157551298478e+00 1.7417195876816571e+01 1.3230298584514571e+01 -1 1 2
388 1 1.1602121914727260e+01 1.8213709209848144e+01 1.2109744320656743e+01 -2 2 2
1736 1 1.3546490959054573e+01 1.6704902352540614e+01 1.3163499966479543e+01 2 1 1
1330 1 1.7392567814918131e+01 1.8394669120296491e+01 1.0893927350286619e+01 2 1 -1
3182 1 2.0046902491991691e+01 1.7586845898811024e+01 1.1619861865070849e+01 0 2 -2
2642 1 2.1351771455334188e+01 1.8346666994880977e+01 1.3600398283188550e+01 -1 -2 1
2908 1 2.6053265556854850e+00 1.9924894391461212e+01 1.0830167980767259e+01 1 2 1
3854 1 4.4654523983700978e+00 2.1511698468735389e+01 1.2131041051889577e+01 2 1 0
1055 1 6.2977929670431303e+00 2.0261221243617594e+01 1.3483262579692354e+01 2 0 -1
2227 1 1.0209559185204567e+01 2.2268922158998087e+01 1.1737036779451586e+01 2 1 0
2513 1 1.2221732794728322e+01 2.0620236516236911e+01 1.2718396625854695e+01 3 1 -2
1987 1 1.4656490808291299e+01 2.1640095738511327e+01 1.1979290248511676e+01 0 3 1
1932 1 1.6492695909480400e+01 2.0009247487130015e+01 1.3340497994522968e+01 1 0 1
1808 1 2.2702712512832985e+01 1.9756094269933861e+01 1.1364282498883011e+01 2 1 2
2009 1 2.4099975226328873e+01 2.1933062946343913e+01 1.2631952296041929e+01 -1 1 1
3320 1 1.0279504269923017e+00 2.4465939820263923e+01 1.3399689051081415e+01 1 2 -2
2479 1 5.2593318795466235e+00 2.3641962074163708e+01 1.0787568546635544e+01 0 -2 -1
2379 1 6.9655903058782176e+00 2.5247539008524985e+01 1.2146165932878018e+01 -2 2 0
3891 1 9.0376599057661196e+00 2.3875223467011260e+01 1.3417467767379087e+01 0 -1 -2
484 1 1.2914654373845522e+01 2.5415640900571837e+01 1.1122994031751908e+01 -1 0 -1
1951 1 1.4828385083027669e+01 2.4027420934072499e+01 1.2527748051011159e+01 -1 -1 0
1402 1 1.7463551545992043e+01 2.4466019140149314e+01 1.1519192322311097e+01 -1 0 1
360 1 1.9475187994696245e+01 2.2742228973461184e+01 1.2193416882334542e+01 1 -1 0
3711 1 2.2063236043100762e+01 2.3909345934146828e+01 1.2843835749001643e+01 3 0 1
796 1 2.5535135475638608e+01 2.3421089097466950e+01 1.0939336560195457e+01 0 0 1
2118 1 6.6764974864995985e-01 1.9425215400843321e+00 1.6782216903995192e+01 2 0 1
817 1 6.9675630925860892e+00 2.6329804803620003e+00 1.5454447720313697e+01 0 0 3
1340 1 8.7058050290472426e+00 1.0047633300126471e+00 1.6361591227607398e+01 1 1 2
3044 1 1.1204378954558509e+01 1.7501549449257205e+00 1.5387110973466870e+01 3 0 0
1275 1 1.6085469208527162e+01 2.8657330292780347e+00 1.5816469206291057e+01 -2 1 1
386 1 1.3218493675628878e+01 2.7638567417295501e-01 1.6288670448451700e+01 -2 1 1
3803 1 1.7592801166634782e+01 1.4374656544275364e+00 1.3917188907503707e+01 0 1 -1
3198 1 1.9726922349702747e+01 3.6007567464026413e-01 1.5224163404068790e+01 2 0 1
731 1 2.1442106773244952e+01 2.2131617732467301e+00 1.6260285358128833e+01 -2 3 0
3699 1 1.6272732256861895e+00 3.4965976370889007e+00 1.4760510255408374e+01 0 1 0
2424 1 3.7534244406666151e+00 5.3374994169511556e+00 1.5659058168911525e+01 1 0 -2
2691 1 5.4932164737802047e+00 4.0725597174318890e+00 1.7023555900651747e+01 3 0 0
3023 1 9.9986579761186452e+00 5.6980361905962020e+00 1.5186662901215898e+01 0 -1 0
1714 1 1.1873492102756559e+01 4.1362185428798979e+00 1.5965330850038852e+01 -2 2 -1
1780 1 1.4311959981188133e+01 4.7973975533850277e+00 1.4845084950042528e+01 2 1 2
2287 1 1.9202500376152386e+01 6.2978467558854314e+00 1.5423540760810143e+01 2 2 -1
3376 1 1.7745328020062313e+01 4.7772787613026120e+00 1.7158089129057750e+01 0 2 -1
1191 1 2.2692933712714961e+01 3.5025730064955636e+00 1.4460814039194910e+01 1 1 1
317 1 2.4235398587405726e+01 5.2921627333842007e+00 1.5683624511900511e+01 1 -1 -2
3665 1 4.6125874854773280e-01 8.2173425497385946e+00 1.6916277410243040e+01 3 1 0
307 1 3.4878783399177316e-01 8.1873376637889965e+00 1.4311452091032253e+01 2 2 -1
1506 1 4.6600397122040729e+00 7.3944417627608026e+00 1.4310435408808408e+01 0 2 -1
157 1 6.2876151811636092e+00 8.6144614547155562e+00 1.5749204765417169e+01 -1 1 0
1338 1 8.4980355349261441e+00 7.2218873364063780e+00 1.6882336889848382e+01 -1 0 0
1911 1 1.3024715223172644e+01 8.9469903238950739e+00 1.4561762473309120e+01 0 3 1
3336 1 1.4893363856410517e+01 7.2915859713212239e+00 1.5467458006061589e+01 -1 1 0
599 1 1.7330387422882978e+01 7.8343644474166645e+00 1.4269769571816749e+01 0 0 -1
1103 1 2.0861408657821887e+01 7.9771545253139724e+00 1.6759162055590767e+01 0 1 -2
771 1 2.1822737927897816e+01 9.6499131877185285e+00 1.5145327547574832e+01 3 1 3
355 1 2.5508491507462299e+01 7.2745645482989767e+00 1.4059899220476764e+01 -1 2 1
2280 1 3.3397815707246163e+00 1.1745143441976168e+01 1.6516191181298623e+01 -1 -1 1
2840 1 3.2558077000990622e+00 1.1598256497987727e+01 1.3857902079338610e+01 2 0 -1
3727 1 7.4204241391445054e+00 1.0363347390419534e+01 1.4330665285826187e+01 1 0 0
3096 1 9.3715412212948923e+00 1.1899810246628254e+01 1.5475765369547593e+01 -1 1 2
3890 1 1.1634675286255142e+01 1.0689057972651959e+01 1.6177415196281562e+01 2 -1 -1
3483 1 1.6017276953398998e+01 1.2009612207655566e+01 1.4261100908414397e+01 0 0 0
2351 1 1.7783265045953055e+01 1.0548888951099466e+01 1.5449375852103449e+01 2 1 -1
2899 1 1.9766449809619562e+01 1.1149392550885164e+01 1.3915336692141324e+01 -1 0 -2
978 1 2.3648639760231660e+01 1.1327215520810924e+01 1.6452065673038010e+01 -2 1 0
4016 1 2.4510092139798019e+01 1.2962665014507829e+01 1.4705276947140444e+01 0 2 0
1426 1 1.8573680186487915e+00 1.5965993674806052e+01 1.6561245737725987e+01 0 2 1
1487 1 6.4228999245985063e+00 1.4824581589998724e+01 1.6441038041494629e+01 0 1 0
2412 1 3.7186257273244516e+00 1.4443079644091128e+01 1.7161862542742167e+01 1 1 -1
3739 1 1.1011086364452257e+01 1.3437841704651643e+01 1.3826715448398673e+01 -1 0 1
3456 1 1.2599085507590958e+01 1.5149557553107687e+01 1.4972257593712516e+01 1 1 0
1690 1 1.4624874270704904e+01 1.3763882947673135e+01 1.5971358984164050e+01 -3 1 -1
1729 1 2.0438793536092721e+01 1.3779840126014602e+01 1.4601557020660550e+01 -1 0 -1
1405 1 2.9164500626777028e+00 1.7987936662725740e+01 1.5181000243080312e+01 -1 3 2
188 1 5.2896391241407450e+00 1.8884954812521727e+01 1.5562211602427642e+01 0 1 0
2729 1 6.9789776327456998e+00 1.7304631270469947e+01 1.6888276243994710e+01 -2 0 0
2008 1 9.3047459382889777e+00 1.8189980738545156e+01 1.5647984269656055e+01 1 0 -2
1713 1 1.1022180965061558e+01 1.6372836360901299e+01 1.6928851493274173e+01 1 0 -1
1030 1 1.5197406214562127e+01 1.8133634111256754e+01 1.4891204940831582e+01 1 -2 1
3943 1 1.7670980565059203e+01 1.6884111242296573e+01 1.5459258143745927e+01 0 1 2
2912 1 1.9498610693191281e+01 1.9053706963112230e+01 1.5382577736232001e+01 -2 1 -2
273 1 2.3525060563950944e+01 1.6824965017793467e+01 1.4490966042266587e+01 2 -1 -2
3093 1 1.8565823579976624e+00 2.0600402771789032e+01 1.5766815722265889e+01 3 0 1
868 1 9.7260818461115139e+00 2.0641806061302979e+01 1.6361492306428183e+01 -1 0 0
2278 1 7.9288542820924732e+00 2.2100093074691451e+01 1.4832353117888010e+01 -2 0 1
554 1 1.2013728770386203e+01 2.1517969822661776e+01 1.5279286608675392e+01 1 0 1
2564 1 1.6136988867202930e+01 2.2094913930966648e+01 1.6262082973856899e+01 1 0 -3
3545 1 1.3909446216914439e+01 1.9847674556810802e+01 1.6775855045839215e+01 1 1 1
631 1 1.8421736685452942e+01 2.1494250641779427e+01 1.4543755142171710e+01 0 0 1
835 1 2.8947412497908092e+00 2.2591050205048166e+01 1.4256323239168843e+01 -1 1 0
2567 1 6.2870077534787949e+00 2.3056497142290635e+01 1.6684467497377838e+01 1 1 3
3597 1 4.4751548531669814e+00 2.4577218344533801e+01 1.5409267197859370e+01 0 1 1
1361 1 1.2850003358744930e+01 2.3823046905313522e+01 1.6182189059786431e+01 -1 0 1