LAMMPS data file via write_data, version 7 Aug 2019, timestep = 200000

4097 atoms
1 atom types

2.2598273351743359e-01 5.1194017266481907e+01 xlo xhi
2.2598273351743359e-01 5.1194017266481907e+01 ylo yhi
2.2598273351743359e-01 5.1194017266481907e+01 zlo zhi

Masses

1 18.15

Atoms # atomic

16 1 3.4485093004427010e+00 1.9626785642775462e+00 1.8781489586624744e+00 0 0 0
3527 1 6.2820343339722129e+00 2.2484133419484289e+00 2.8661756129499967e+00 1 1 0
1856 1 2.2264479926957645e+01 8.9454653925971392e+00 6.9900834673890810e-01 0 1 1
1413 1 1.5391827532314450e+00 2.5158619862336000e+01 1.5950965176529877e+01 0 0 0
1928 1 2.4264630155551391e+01 1.5927141105861148e+01 5.0155808730037821e-01 0 1 1
289 1 1.8060084860912525e+01 2.0229821490007467e+00 4.2035523133485579e+00 0 0 0
756 1 1.9961885797044776e+01 7.5967309010737178e+00 3.8815175347085418e-01 0 0 1
1215 1 2.5079760226092169e+01 7.4083640775572492e+00 7.9697399773724886e-01 0 1 0
4020 1 2.6121153368935883e+00 4.7714694371298210e+00 2.4988779960572827e+00 1 1 1
2123 1 3.5253627175611677e+00 2.5367042133432832e+01 9.3356877386346451e+00 1 0 0
271 1 1.7316312115849158e+01 1.7044987670887541e+00 1.3935610565620882e+00 0 0 0
2148 1 1.1101531339659958e+01 5.6189152420296864e+00 1.9763998568108718e+00 0 0 0
181 1 2.0159793127874392e+00 3.1663094023852634e+00 1.4406313365088357e+01 0 0 0
349 1 1.5342300144619434e+01 5.1667730485868102e+00 2.4759115755204153e+00 0 0 0
1210 1 2.1577364212283850e+01 4.0845350194283556e+00 2.5824946649280629e+00 0 1 0
2821 1 1.9155301064130200e+01 5.8674727306430619e+00 2.2476907248969349e+00 1 0 1
3340 1 2.3989932709336612e+00 2.2748038393457435e+01 1.5212683656208879e+01 1 0 0
367 1 5.6107513780804030e+00 9.9293040570905138e+00 1.6877703611581589e+00 0 0 0
4011 1 6.3650375742053260e+00 6.3161934078097781e+00 1.6236163888406401e+00 1 1 1
2279 1 9.9074081862588042e+00 1.0246749166601482e+01 3.0204853433252499e-01 1 0 0
2410 1 1.1892167176613127e+01 8.4534667420862402e+00 7.0606151784902504e-01 0 0 0
3493 1 1.5180026436660567e+01 7.7852574686898857e+00 3.5636858330318346e+00 1 1 0
4071 1 1.9189047614260204e+01 9.5358230276000011e+00 4.3545201030567187e+00 0 1 1
2965 1 1.7504034743844954e+01 1.1624168410675280e+00 8.0690708656501489e+00 1 0 1
930 1 5.8239237059415527e-01 1.7245316027254258e+01 1.2311207987595623e+01 0 0 1
1332 1 2.1344516499832835e+01 2.5584534413438622e+01 3.2261963465055965e+00 0 0 0
2070 1 1.6953361718906639e+00 1.1272608446602536e+01 2.4251479481836711e+00 1 0 0
4027 1 4.0815230450191065e+00 1.2902517989681504e+01 3.5117199781492365e+00 1 1 0
3557 1 8.1312041859374631e+00 8.6064149305108888e+00 2.2185074968929621e+00 1 1 1
1065 1 1.0768875142109678e+01 1.2965110403228111e+01 2.7891485381698402e+00 0 1 0
2594 1 1.3069439111517903e+01 1.4334237201348387e+01 2.3339827004374074e+00 0 0 0
3115 1 1.6871956083477407e+01 1.0117000723695016e+01 2.2555592831304057e+00 1 1 0
1390 1 1.7540157321978743e+01 1.2846666335836842e+01 4.5850031574579599e+00 0 0 1
744 1 3.2525447473640794e+00 9.3401936643687211e-01 1.6672765022213238e+01 0 0 0
1334 1 2.1620895698364119e+01 1.2133663217988099e+01 3.1231678228552302e+00 0 0 0
987 1 2.1694833109147869e+01 9.5264732566634471e+00 3.2263762470457089e+00 0 0 1
3612 1 1.5985579040128306e+01 2.2720053860276593e+01 1.4946706479203781e+01 1 0 0
3622 1 3.2517452629274501e+00 1.5612442777352300e+01 2.8640212458309864e+00 0 0 0
2126 1 5.8574179299607971e+00 1.5771367214555003e+01 9.4157748029495603e-01 1 0 0
1158 1 1.9855750797805992e+01 3.8498678128370369e+00 1.6550535178410982e+01 0 1 0
1440 1 1.3282512214444591e+00 5.7595007899626594e-01 2.3540982424853735e-01 0 0 0
434 1 1.2606565076721759e+01 1.4944322312342361e+01 5.2056804599706012e+00 0 0 0
102 1 1.8962775713746975e+01 1.4865800377884208e+01 1.2797042513355426e+00 0 0 0
47 1 1.9689893759866628e+01 1.3690053430646683e+01 3.4455437150551576e+00 0 0 0
96 1 2.3767879373666567e+01 1.3514051173294018e+01 3.7231501162008325e+00 0 0 0
1389 1 1.1083509243591656e+01 1.3875808399800866e+00 1.6747279495944532e+01 0 1 0
2316 1 2.9722216195163376e+00 1.9266134678700741e+01 3.9597034053223599e+00 0 0 0
654 1 5.2053654720552958e+00 1.7853488701384386e+01 3.1692724286766483e+00 0 0 0
4080 1 9.0185524995746675e+00 5.4094226556956748e+00 6.2146392621703317e-01 1 1 1
466 1 2.5868615372571063e-01 1.3240191928824494e+01 1.2139945672153980e+01 0 0 0
3523 1 1.6890610931677152e+01 1.6910655184450100e+01 4.9637045970767772e+00 1 1 0
3717 1 1.8354314141844696e+01 1.7139398652442800e+01 2.4442820283829363e+00 0 1 0
963 1 1.6762626153457688e+01 1.8212579309047346e+01 5.7926642704295905e-01 0 1 1
2910 1 2.1768353154373806e+01 1.6622815463298505e+01 1.8682440791691484e+00 0 0 1
467 1 2.2218903333582997e+01 1.9058709128203049e+01 3.5992348474061697e+00 0 0 0
721 1 2.4759499143957694e+01 2.1678734499259164e+01 5.5998112404343781e-01 0 0 1
2836 1 6.3559414503408096e+00 1.9697808591357425e+01 1.6466658422589298e+00 1 0 1
827 1 1.0334810044843904e+01 2.1000759658328391e+01 2.5918410667048253e+00 0 0 1
2340 1 1.0703610870493691e+01 1.8059684228308047e+01 2.1761923635032012e+00 1 0 0
347 1 1.5758805745718631e+01 2.0310168177335527e+01 2.4115226123667219e+00 0 0 0
3885 1 1.8315163454360171e+01 2.1702581365105143e+01 2.2937992399550287e+00 0 0 0
748 1 2.1842995102028240e+01 2.3210126104163162e+01 4.3043365567266401e+00 0 0 1
200 1 1.3839251687042752e+01 4.5646300824013952e-01 6.0365741434001237e+00 0 0 0
2167 1 2.2700200263884728e+01 2.1480261647271071e+01 2.4895331191656003e+00 0 0 0
420 1 8.2347884322505394e+00 8.6876016160048959e+00 1.3575165670542626e+01 0 0 0
1630 1 4.1761390893918415e+00 2.3509688086423694e+01 1.7935055520811933e+00 0 0 1
3925 1 7.7522600995626512e+00 2.1635960669652448e+01 2.9753465800538499e+00 1 0 1
3312 1 9.3218269809553824e+00 2.3874980165312277e+01 4.5914547109281356e+00 1 1 0
895 1 1.1727042962935734e+01 2.3486823280053763e+01 2.4110783683099091e+00 0 0 1
1807 1 1.3459729187163502e+01 2.2274498676309392e+01 3.9198629208878608e+00 0 0 1
1219 1 1.7713743789741233e+01 2.4202182740456148e+01 8.7865692500533943e-01 0 1 0
1013 1 6.3586951282353041e+00 2.3650317254980816e+01 1.6449097025612573e+01 0 0 1
623 1 2.5627077623626263e+01 5.6788764702425121e-01 1.7191654694380464e+01 0 0 0
183 1 3.1139112344503954e+00 8.2152134162531731e-01 6.4271607726151974e+00 0 0 0
71 1 1.0339542511070019e+00 2.2493796520556160e+00 5.8045776868475611e+00 0 0 0
7 1 5.3527626058886799e+00 2.3574713993405276e+00 5.9894362342483030e+00 0 1 0
3279 1 7.1273822791974819e+00 2.3658383904925586e+01 1.1086175797527571e+00 1 1 1
2597 1 8.7553599056669107e+00 1.7553739861796265e+00 4.1884192504185460e+00 1 0 1
1227 1 1.3520544849270989e+01 2.0071470129693489e+00 3.6243406187121914e+00 0 1 0
3985 1 7.0824296220332683e-01 1.3539032113690412e+00 3.4482633498559219e+00 1 1 1
532 1 1.8831614794648921e+01 3.3443531953055521e+00 6.5629418327001741e+00 0 0 0
3297 1 2.0855462285132806e+01 2.0976689129175323e+00 4.0881340765003404e+00 0 1 0
267 1 1.6174387486462802e+00 9.0179053350464127e+00 7.9292317898571776e+00 0 0 0
3454 1 2.5383944342959424e+01 1.3679306339593587e+01 9.0724036805715915e+00 1 0 0
968 1 1.7315339137183801e+00 4.6879992276943714e+00 5.2389563097735445e+00 1 0 1
164 1 6.1216948812143617e+00 4.7154338684306323e+00 3.7605410783497937e+00 0 0 0
939 1 4.3110551221300524e+00 5.6174830771462698e+00 6.0090116116206307e+00 0 0 1
1629 1 8.4736376467781973e+00 5.2317204746361634e+00 5.4158761220542360e+00 0 0 0
1388 1 1.0713932456474602e+01 3.9456677327612306e+00 4.0735411065755400e+00 0 1 0
1915 1 1.2412211598166552e+01 4.7737077704983797e+00 6.1812255847745945e+00 0 1 1
3480 1 1.5128265352028169e+01 5.0700360558955353e+00 6.8649494631288750e+00 1 1 0
825 1 1.5721097986872426e+01 3.7660264011159530e+00 4.7027887534533148e+00 0 0 1
2097 1 1.7906773909025517e+01 7.1328303520065459e+00 4.3518038772374963e+00 0 0 0
105 1 1.8036900386666616e+01 6.1545401702306464e+00 7.1059482096099611e+00 0 0 0
903 1 2.3303311765452914e+01 5.7192870822604469e+00 4.2538635196750629e+00 0 0 1
2477 1 1.3580350886178401e+00 8.5187279334840458e+00 4.9585532906091121e+00 1 0 0
2051 1 4.3945420464576372e+00 8.3178967420081040e+00 5.4930182957847373e+00 0 1 1
2087 1 6.8804720028644875e+00 9.4828646024726240e+00 5.5961023533875611e+00 1 0 0
516 1 9.1910141746916842e+00 8.1354423919968291e+00 4.8530880972501169e+00 0 0 0
2416 1 1.1797859531114581e+01 1.0795714309044374e+01 4.3925721352687646e+00 1 0 0
2265 1 1.3387856520707601e+01 9.7454651787656612e+00 2.3984000764932967e+00 0 0 0
85 1 1.4744032365626275e+01 7.9720239195155544e+00 6.6047709152031047e+00 0 0 0
2420 1 2.0215254613491830e+01 8.8887916775910600e+00 7.6525201155970901e+00 1 0 0
2173 1 2.2395187868514142e+01 8.4399067508541652e+00 5.9868571806864574e+00 1 0 0
2089 1 2.4815664844531611e+01 9.4480168235596835e+00 6.6472569768857870e+00 0 0 0
2203 1 2.0857978446181162e+00 1.2866263382264526e+01 5.6584184071382433e+00 1 0 0
300 1 4.3352510339842443e-01 6.6936122051671276e+00 9.0376765496292037e+00 0 0 0
268 1 6.1156346219610906e+00 1.3253589387419776e+01 7.0101958441924284e+00 0 0 0
375 1 6.4632560013004863e+00 1.2070108772412466e+01 4.6637170356821658e+00 0 0 0
2408 1 9.8685886776997798e+00 1.3962576111408252e+01 6.9149896687884524e+00 1 0 0
3903 1 1.2801559094428741e+01 1.2593217796551100e+01 6.1360677008757607e+00 0 0 1
251 1 1.8493269277642792e+01 1.0763613719940437e+01 6.7291791187561953e+00 0 0 0
949 1 1.3523244356904852e+01 2.4439086215281012e+01 1.6073800933307474e+01 0 0 1
3679 1 6.4438331970750626e+00 1.3045728974043335e+01 1.7034482351072132e+01 1 0 0
3469 1 9.3651208487906352e+00 1.6656797920297382e+01 4.4581409084093861e+00 1 0 0
98 1 6.3144322121743413e+00 1.6589220764309999e+01 7.4006830176787144e+00 0 0 0
3511 1 8.9216542037506201e+00 1.3846538309955880e+01 4.3238459326089469e+00 1 0 0
1929 1 1.5387471241921528e+01 1.4753414205585269e+01 5.1976113322749864e+00 0 0 1
166 1 1.6358336347466416e+01 1.4475446847995837e+01 7.8233996247121462e+00 0 0 0
341 1 1.8932511336618873e+01 1.3620847682099274e+01 7.4727659311739645e+00 0 0 0
1171 1 2.0541090780142774e+01 1.4971636175043741e+01 5.7565602172249646e+00 0 1 0
1792 1 2.3165597743652544e+01 1.4557193962769439e+01 6.2136702609859533e+00 0 0 1
1623 1 1.7239889542379465e+00 1.7033294520702540e+01 4.9566276943483656e+00 0 0 1
1864 1 6.9511735062097779e+00 1.7642214098947715e+01 4.9669082865298231e+00 0 0 1
3346 1 7.7469177696768190e+00 2.0346609182006759e+01 6.3189427179885351e+00 1 0 0
835 1 1.1632503509618594e+01 1.7452604310060806e+01 5.9120823648845748e+00 0 0 1
2629 1 1.4959855730790643e+01 1.8342429662056475e+01 4.0333705908905237e+00 0 0 1
131 1 1.6997063402652167e+01 1.7398146523984501e+01 7.7670397919487915e+00 0 0 0
398 1 1.9454241492387649e+01 1.8568372152516204e+01 7.3256313273443707e+00 0 0 0
2018 1 1.9919330248972933e+01 1.7271844400330998e+01 4.9218580996132539e+00 0 0 1
3524 1 2.3343709722132779e+01 1.9058393202337115e+01 6.5604352881528190e+00 0 1 0
4022 1 1.5076847165184499e+00 2.5599324648630130e+01 7.4441675800461322e+00 1 1 1
1988 1 4.2074519238198338e+00 2.1152718506773141e+01 5.6203276834679725e+00 0 1 1
2333 1 6.6260907513547025e+00 2.2684380896594359e+01 5.6953525789678325e+00 1 0 0
3293 1 1.0517736899001122e+01 2.0250660048315599e+01 5.4663498816530653e+00 1 0 0
3275 1 1.3124284199004494e+01 2.3045127332663199e+01 6.6905370224944498e+00 1 0 0
1819 1 1.3592117256148757e+01 1.9802234491713733e+01 5.9202082870202180e+00 0 1 0
3784 1 1.8440677916108392e+01 2.1547695673051940e+01 7.0349405139027965e+00 0 0 1
2261 1 1.9497675631833964e+01 2.2551213440849370e+01 4.6496988658140532e+00 0 0 0
2948 1 2.4510103927882739e+01 2.1193017972346329e+01 7.2793893730031316e+00 0 0 1
2570 1 1.3557424362735975e+00 1.3692230874178604e+01 9.5150863952013722e+00 1 0 0
2013 1 3.0753378476854025e+00 2.3246393414222997e+01 4.1754270767704327e+00 0 0 1
1361 1 6.9668466779067320e+00 2.3442875184128006e+01 8.3677164464460869e+00 0 0 0
63 1 1.0502224399270780e+01 2.2676977806877041e+01 6.6131371351608852e+00 0 0 0
1295 1 2.2802978898120337e+01 1.4973402159145652e+00 6.1939259239692017e+00 0 1 0
1433 1 2.1464036668363438e+00 1.9778235277891653e+01 1.3269296996256871e+01 0 0 0
2195 1 1.8032455931070530e+01 2.4789522741187543e+01 5.2877783050753226e+00 0 0 0
883 1 2.3740403189338750e+01 2.3631921363263853e+01 6.2367000942817938e+00 0 0 1
1080 1 1.6960763062477252e+01 1.2828578963796662e+01 7.1310300101182578e-01 0 1 0
400 1 2.1830264229326586e+00 2.2279816308382454e+00 9.0691297723560513e+00 0 0 0
1304 1 7.1041375360956360e+00 1.9702709172909376e+00 7.9851768042125562e+00 1 1 0
1415 1 1.0765520027249199e+01 1.3165074660396778e+01 1.6293328825041741e+01 1 0 0
1476 1 1.1307650382978796e+01 8.3216886186016692e-01 7.4266108805715447e+00 0 1 0
332 1 1.5096388262210331e+01 1.7717640465222464e+00 8.3704692493895241e+00 0 0 0
381 1 1.4690557945124493e+01 1.2328381810313250e+01 3.0359172035513113e+00 0 0 0
161 1 2.1149507458579624e+01 3.5876035212239534e+00 8.3058288813882246e+00 0 0 0
3533 1 4.3576689427286865e+00 2.5652454757919010e+01 1.5968035516933639e+01 1 0 0
2472 1 1.2053827984593268e+00 1.1271484095695574e+00 1.3060207162722556e+01 1 0 0
3773 1 5.1263825966886909e+00 4.7117896376823785e+00 8.3156993727574982e+00 1 0 1
1317 1 8.9445122835909263e+00 3.9778054081787881e+00 7.8543075367339528e+00 0 0 0
1541 1 1.1610737824268417e+01 3.2020730742275889e+00 8.2006951366763019e+00 0 1 0
2221 1 1.2696122875824264e+01 3.8566278840114756e+00 1.0557285305443997e+01 0 0 0
1727 1 1.5150365274462699e+01 4.2970927709943236e+00 9.3908724829165475e+00 0 1 1
118 1 1.8892128104309617e+01 7.2829924267652082e+00 9.6224022686533459e+00 0 0 0
64 1 1.7243474302253411e+01 5.0333060655648083e+00 1.1067903132549796e+01 0 0 0
3291 1 2.3072318757457086e+00 2.0961009734088819e+01 1.6569223468062573e+00 1 0 0
295 1 2.3445423315553146e+01 4.1647716598462949e+00 6.4672984935930975e+00 0 0 0
3414 1 7.0127507363337322e+00 2.0882162685658128e+00 1.5584874237094899e+01 1 1 0
1170 1 3.9261456850130565e+00 9.9538253231060647e+00 8.0113340268161046e+00 0 1 0
613 1 8.7533885316894828e+00 6.1715429845517509e+00 9.4686054301704239e+00 0 0 0
2187 1 1.0838965945209209e+01 8.4915784948360304e+00 9.1506433121649842e+00 1 0 0
1505 1 1.1852425847504596e+01 7.7048989581989176e+00 6.3607587415923881e+00 0 0 0
2788 1 1.5892009574993343e+01 1.0021810889041749e+01 7.9266951235692256e+00 1 0 1
312 1 1.6876957950137982e+01 9.3498942721800447e+00 1.0160731260768575e+01 0 0 0
1749 1 2.1248547225622730e+01 5.8530055314445502e+00 9.8364919277048699e+00 0 0 1
3444 1 2.3384073904905598e+01 6.5491989298880098e+00 8.1106161382581874e+00 1 0 0
3145 1 3.4417446930624425e+00 1.2458000482663845e+01 8.0222266945109659e+00 1 1 0
2376 1 7.9644040975772743e+00 1.1952903809419540e+01 9.0191387840280797e+00 1 0 0
27 1 7.8800773771270061e+00 8.8627890554020059e+00 8.3558998696717914e+00 0 0 0
1477 1 9.8496207964707079e+00 1.1044000838533940e+01 6.6574190630854968e+00 0 1 0
1493 1 1.3948824476906184e+01 1.1925066155280051e+01 8.3221256732973572e+00 0 0 0
116 1 2.1447505225779658e+01 1.0694741400607773e+01 9.1700925456595499e+00 0 0 0
3313 1 9.4237147179403102e+00 1.3324673251015653e+01 4.3936919225697335e-01 1 1 0
196 1 8.7736328217882971e+00 1.5650348473082643e+01 8.7045820742982194e+00 0 0 0
2069 1 7.3280886055059007e+00 1.5111278009615646e+01 1.1057658491923268e+01 1 0 0
1340 1 1.5274335270629582e+01 1.3357087172677668e+01 1.0128418854602847e+01 0 1 1
311 1 1.9834566611141053e+01 1.2851303067379357e+01 9.7752318566847229e+00 0 0 0
531 1 2.3556580642858169e+01 1.2027468705120466e+01 7.9558708674764222e+00 0 0 0
328 1 2.0989729741512946e+01 1.5129587941156036e+01 1.1062706251239481e+01 0 0 0
2980 1 2.4681163102369915e+01 1.6697870145710894e+01 6.7315126276499520e+00 0 0 0
3303 1 1.0792557359539456e+00 1.7380183568956003e+01 1.6163182473744261e+01 1 0 0
2566 1 8.5645579280472728e-01 1.8735015477310967e+01 7.4093942361567491e+00 1 0 0
1709 1 5.5421625341845386e+00 1.9206104413870772e+01 8.5781356690512887e+00 0 0 1
2028 1 1.0592408792975402e+01 1.7655360313163062e+01 9.1765732196294643e+00 0 0 0
1446 1 1.3017159299366453e+01 1.6648056530778906e+01 1.0295427423105467e+01 0 0 0
1945 1 1.5088950750944941e+01 1.8879826554343900e+01 9.7878487999841468e+00 0 0 1
327 1 1.8849345196877398e+01 1.6614799537981426e+01 1.0272977981355940e+01 0 0 0
97 1 1.6074171898671800e+01 1.5887161113665508e+01 1.1011222445247926e+01 0 0 0
51 1 2.1731601954512943e+01 1.8751048593995925e+01 8.4643818433111164e+00 0 0 0
34 1 2.2582013354014947e+01 1.7232347513437553e+01 1.0645828256810077e+01 0 0 0
568 1 3.2252260966680861e+00 2.0680328278732112e+01 8.2159713030894999e+00 1 0 0
1270 1 4.7384529517609399e+00 2.2759734716461015e+01 9.6743449299030466e+00 0 0 0
2423 1 8.2146965561282101e+00 2.0325039066707689e+01 9.3350554910012615e+00 1 0 0
3618 1 1.2421564719370945e+01 1.9780211920332622e+01 8.7484817251042344e+00 1 1 1
1356 1 1.1570169914235143e+01 2.1725262367981831e+01 1.0993520092777024e+01 0 0 0
1099 1 1.5773947214960968e+01 2.0142237296203920e+01 7.3986168544501059e+00 0 0 0
1718 1 2.0013242871161058e+01 2.1365258616136355e+01 9.3477453261776056e+00 0 0 0
3934 1 2.2834705257835896e+01 2.1537587617212559e+01 9.2052686729457704e+00 0 1 1
934 1 3.4147710932868647e-01 2.2337222210461494e+01 4.5458479817875341e+00 0 0 1
484 1 2.1924387879582905e+01 1.2130193543071655e+00 5.9978794731388185e-01 0 0 0
4088 1 9.5256327850078293e+00 2.2592273369080310e+01 9.1577226267110134e+00 1 0 0
2692 1 1.6613244427616255e+01 6.5129657404612837e+00 1.6704925203215272e+01 1 0 0
757 1 1.4837240317201708e+01 2.2435817516162984e+01 8.5092083658701032e+00 0 0 1
2245 1 1.7475000900735566e+01 2.3858728924715180e+01 8.1166876238248520e+00 1 0 0
1262 1 1.9684326871426133e+01 2.4126905767496616e+01 9.9141732650193042e+00 0 0 0
2724 1 4.9529498567941488e-01 2.0018704680851808e+01 1.5677055061364634e+01 1 0 0
3637 1 2.3603383379715115e+01 2.4286884163915069e+01 9.4692193320359301e+00 0 1 0
436 1 2.1487881909864278e+01 2.5280828127462666e+01 7.8416898067142755e+00 0 0 0
1026 1 1.1466639521553169e+01 1.0425033728518784e+01 1.6165097721531929e+01 0 0 0
1394 1 1.6694764699999521e+01 2.4940710032236332e+01 1.0892191658079682e+01 0 0 0
4086 1 1.1619268557947912e+01 9.6357266162090094e-01 1.2632531713174805e+01 1 1 1
2943 1 4.2969064136716746e+00 1.2828067492404026e+01 4.0596627904717070e-01 1 0 1
2004 1 1.8220602136007283e+01 2.5058859823998225e+00 1.2642103358837826e+01 0 0 1
2909 1 1.5884761579788439e+01 1.2561416954961240e+00 1.3228961720152988e+01 1 0 1
908 1 1.8922929034277839e+01 9.2079820369664123e-01 1.0394398436352397e+01 0 0 1
900 1 2.2283999663952841e+01 1.2163733697833923e+00 1.3774931887335667e+01 0 0 0
365 1 2.4888668983512641e+01 1.8557251631956632e+01 2.9253509800620270e+00 0 0 0
173 1 2.1478374437819301e+01 1.7272418548676447e+00 1.0029066264019997e+01 0 0 0
3398 1 6.2492377627626681e+00 6.2594685954865517e+00 1.0502531972181099e+01 1 1 0
1370 1 2.2616054032352770e+00 4.8116720069270515e+00 9.5851081993450542e+00 0 1 0
2755 1 1.3997825353293729e+01 1.1681229676657523e+00 1.1042008151360479e+01 1 0 0
1354 1 2.3000430182180907e+01 3.4265789740188506e+00 1.1611908090944732e+01 0 1 0
2896 1 2.3017191866064369e+01 7.7648606371015108e+00 1.2107833206075004e+01 0 0 1
1562 1 1.1201438228876315e+01 2.3789345201022467e+01 1.4808225520887360e+01 0 0 0
1584 1 2.0470072986834730e+01 2.0958969467102129e+01 7.7141717239379892e-01 0 0 1
3644 1 2.5431809926534834e+00 7.1886223079761082e+00 1.3014473271146512e+01 1 1 0
1944 1 3.4159431240119651e+00 9.2974528761557114e+00 1.2020602617428525e+01 0 1 1
2348 1 5.5641423458322441e+00 8.8087871943981675e+00 1.0169792367813129e+01 1 0 0
2282 1 8.6530627979986257e+00 5.7125512050056999e+00 1.3713302530732529e+01 1 0 0
2688 1 1.2052206046686896e+01 8.2865616312504393e+00 1.1970667525415111e+01 0 0 0
2637 1 1.4840761148935155e+01 8.9354383527646739e+00 1.2150313504620291e+01 1 0 0
1252 1 1.6565138777137516e+01 6.8335104584097657e+00 1.2762880776612906e+01 0 0 0
94 1 2.1928514027527743e+01 6.1610743605676834e+00 1.4371568131892246e+01 0 0 0
433 1 8.6093534248502888e+00 2.4787666966156863e+01 1.4836582439931435e+01 0 0 0
2384 1 4.6951303225461380e+00 1.2026082512596657e+01 1.5341074237209241e+01 1 0 0
2113 1 1.7840002752575046e+01 1.0372553380362456e+01 1.6630862623637743e+01 0 0 -1
3732 1 4.7352493893558245e+00 1.3509990573457685e+01 1.1042703837786904e+01 1 0 0
100 1 1.1137938440981372e+01 1.0707844308337688e+01 1.3469086378848539e+01 0 0 -1
1107 1 8.4885296789902114e+00 1.1696247615208089e+01 1.3165744941074912e+01 0 0 0
217 1 1.1371673035117045e+01 1.1374801262537510e+01 9.1497477138940226e+00 1 0 0
2495 1 1.7437766048038544e+01 1.1801887409923239e+01 1.0772342014823622e+01 0 0 0
1032 1 1.7829732598647162e+01 1.2147548408514263e+01 1.3530670396130704e+01 1 0 1
1644 1 2.2561647600603493e+01 1.0341010167720494e+01 1.1778872289627119e+01 0 1 0
659 1 2.1665478901740592e+01 1.1003659730407685e+01 1.4431751680212198e+01 0 0 0
1528 1 2.5148363687287269e+01 1.1518164449215551e+01 1.1072646392069574e+01 0 1 0
1543 1 4.1678048627158901e+00 1.5634935576347642e+01 9.2604417895259097e+00 0 1 0
2157 1 4.0756169404557845e+00 1.4095050626456631e+01 1.3497060702186110e+01 1 -1 0
189 1 8.1825377909114945e+00 1.3303638818503554e+01 1.5215330115285893e+01 0 0 0
54 1 9.7479044090423965e+00 1.3028659657978759e+01 1.0946283977095018e+01 0 0 0
872 1 1.2300656380917125e+01 1.4696151052724057e+01 1.1933806883518068e+01 0 0 1
1301 1 1.3139171059718269e+01 1.1914178393073287e+01 1.1503871705273616e+01 0 1 0
961 1 1.4883486784089984e+01 1.4100892424614248e+01 1.5230262315354471e+01 0 0 1
2179 1 2.1171146366434868e+01 1.3953717548074358e+01 1.3627447224699818e+01 0 0 -1
216 1 2.4257441345230589e+01 1.4321578403516460e+01 1.2150514281678532e+01 0 0 0
333 1 2.1660862192330930e+00 1.7507039556665028e+01 9.7604425233849064e+00 0 0 0
3250 1 5.3078294309375043e+00 1.7851249670379246e+01 1.0872993077553746e+01 1 0 0
416 1 5.4084278060757081e+00 1.6117232754987747e+01 1.4726339855424364e+01 0 0 0
10 1 7.7570985268682380e+00 1.5827563453140586e+01 1.3810398005187645e+01 0 0 0
111 1 9.0887557766437617e+00 1.8061326955982313e+01 1.1556750481317758e+01 0 0 0
2496 1 1.1989396618541861e+01 1.8010225557279913e+01 1.2833100205003413e+01 1 0 0
747 1 1.6444074603145147e+01 1.5734189102210665e+01 1.3855384840079390e+01 0 0 1
360 1 2.2820317662917240e+01 1.8651552358583871e+01 1.2899969032276713e+01 0 0 0
275 1 1.0855553723745611e+01 2.1220671273746543e+01 1.5434006917718154e+01 0 -1 0
3058 1 1.6985262007344233e+00 2.0936779158806512e+01 1.0679616662140994e+01 1 0 1
2012 1 4.7973370752260598e+00 1.8825266891221606e+01 1.3996757599803145e+01 0 0 1
1178 1 7.0780382101354622e+00 1.9875491451145528e+01 1.2402226538580615e+01 0 0 0
230 1 1.6323685632507232e+01 1.9429301700645041e+01 1.2483735118484708e+01 0 0 0
1115 1 1.2420623654919993e+01 2.0308852716185502e+01 1.3167058828061208e+01 0 0 0
1789 1 1.4754872643386756e+01 2.1605206641678102e+01 1.2734930893297145e+01 0 0 1
1116 1 1.8835606696763342e+01 1.8996910351770005e+01 1.1353336613350864e+01 0 0 0
129 1 2.0623523900522613e+01 1.9972523114583925e+01 1.3340561871896041e+01 0 0 0
3472 1 2.0320550231739826e+01 2.2556747940852762e+01 1.2890280457729556e+01 0 1 0
2334 1 2.4240364189834445e+01 2.0680835147220467e+01 1.1404281552314144e+01 0 0 0
152 1 5.8477894492768012e-01 5.3439611552354922e+00 8.4975976497927164e-01 0 0 0
2641 1 2.7065841420918875e+00 2.3312768224661749e+01 1.2050897037037277e+01 1 0 0
894 1 6.2814698103846709e+00 2.2686515148313276e+01 1.2079654841622958e+01 0 0 0
3345 1 7.9745790971838559e+00 2.4962883551470942e+01 1.2431164404920727e+01 1 0 0
224 1 9.9532383040510108e+00 2.4892400474097158e+01 1.0507165345156803e+01 0 0 0
1738 1 1.2223306010099183e+01 2.4902765715295292e+01 1.2016058350067443e+01 0 0 1
2111 1 2.9194823546738360e+00 9.2096083796231820e+00 8.8473416367138491e-01 1 0 0
3130 1 1.4369178821403697e+01 2.3471833583050298e+01 1.0887242584957312e+01 0 0 0
2285 1 2.9179088113332341e-01 1.0922520431404900e+01 9.2287687656210267e+00 1 0 0
527 1 1.7951580469768501e+01 2.4003541261669572e+01 1.3673369043817429e+01 0 0 0
228 1 2.3141362013627880e+01 2.2882198324184454e+01 1.2492550813280078e+01 0 0 0
1574 1 1.9405327102636054e+01 6.2274907184270560e+00 1.5981145957625527e+01 0 0 0
2341 1 5.2907402387915994e+00 2.6091957122874532e+00 1.2262250335545914e+01 1 0 0
1068 1 9.5745398302542046e+00 3.9031656725660313e+00 1.5424614668797044e+01 0 1 0
2813 1 6.4785367386332551e+00 3.1937639421777447e-01 1.3725813870050880e+01 0 1 1
2502 1 2.5018384764446918e+01 1.6462991591731242e+01 9.5426811777907030e+00 0 0 0
2017 1 2.5478938588817751e+01 1.1816308149053324e+01 4.8746402233100747e+00 0 1 1
323 1 9.0401182224298147e+00 1.9748882060791995e+01 1.4509614651799833e+01 0 0 0
1102 1 1.6687392105447245e+01 2.0072297122984352e+01 1.5914768155134290e+01 0 0 0
570 1 1.9869330186049428e+01 1.7368869633854280e+00 1.4725681300138183e+01 0 0 0
962 1 1.3126878876838921e+01 1.7275838528990768e+01 2.1574921202583801e+00 0 0 1
313 1 1.3781660834812691e+01 1.9662511478997602e+00 1.6975548131476934e+01 0 0 0
2612 1 1.0575601730627580e+00 7.2533124906677982e+00 1.5480670907479125e+01 1 0 0
567 1 2.8780207304784753e+00 4.6145502808634049e+00 1.2102481702807586e+01 0 0 0
1854 1 4.6905542216513654e+00 3.8109292781011286e+00 1.5612708576738637e+01 0 1 0
1460 1 5.8616326107549446e+00 5.4739580003034671e+00 1.2988138846587583e+01 0 1 0
158 1 1.0517365303791607e+01 6.0643966345451954e+00 1.1624159051436568e+01 0 0 0
2200 1 1.1711302100359047e+01 3.5240480440754767e+00 1.3362067819143368e+01 1 0 0
547 1 1.4183449463222480e+01 2.9624151187529195e+00 1.4548884502756094e+01 -1 0 0
1167 1 1.9033753372165435e+01 7.4448858969128144e+00 1.3666516238875715e+01 0 1 0
1190 1 2.0556551628406332e+01 4.8366331703695939e+00 1.2379665989261742e+01 0 1 0
3757 1 2.3690215713216169e+01 4.0751728960924147e+00 1.5155054919544941e+01 0 1 0
653 1 3.2836585192156322e+00 1.0385806779485465e+00 1.1227719598908429e+01 0 1 0
190 1 5.4959903750192352e+00 9.8652025689434044e+00 1.3873333394645964e+01 0 0 0
1034 1 5.3592983628271256e+00 7.4383369338118870e+00 1.5120116349280806e+01 0 0 1
437 1 1.0833942198941708e+01 6.5806186278409724e+00 1.6514726395238807e+01 0 1 1
1325 1 1.3069946323944615e+01 7.4040948817913659e+00 1.4939606695440308e+01 0 0 0
3641 1 1.4850257075088924e+01 5.5150331619421333e+00 1.4732937106692344e+01 0 1 0
2665 1 1.9225743950428036e+01 1.0157486072385202e+01 1.4392675587715866e+01 0 0 0
1840 1 1.7105890117034718e+01 4.3841440736633297e+00 8.1906552365459995e-01 0 1 1
1315 1 7.1335292955653742e+00 2.0470080050633431e+01 1.6824016375006615e+01 0 0 0
2845 1 1.3143758621276131e+01 3.7659610166704196e+00 1.3721640504437627e+00 0 0 1
454 1 6.4782119084066059e+00 1.1334892957975711e+01 1.1287292037373838e+01 0 0 0
501 1 1.5052368286777664e+01 1.1607563154291338e+01 1.3929728609752861e+01 0 0 0
1326 1 1.4381490576527668e+01 9.8809602497357609e+00 1.5919454909107072e+01 1 0 0
2683 1 2.5597518615149848e+01 1.4680543443973777e+01 1.4328964748910451e+01 0 0 0
2104 1 2.2748734621432778e+01 8.8720160248600752e+00 1.5907689954747680e+01 0 0 0
2542 1 2.5304556770041760e+01 8.6073705476772027e+00 1.4493288304697865e+01 1 0 0
3306 1 9.0721772361171826e+00 8.6317523232792528e+00 1.6179582984056072e+01 1 0 0
3976 1 2.2689690870138751e+01 1.2511899315964882e+01 1.6662339180327908e+01 1 1 1
2643 1 1.4700419239382583e+00 1.4881696803866170e+01 1.3773297114732644e+01 1 0 0
1815 1 8.6187466507692285e+00 5.6300482393294571e-01 6.5550683359912840e+00 0 1 1
2114 1 1.5303380945623124e+01 2.4679000780764191e+01 3.7834254737437640e+00 0 0 0
714 1 1.2372988777401584e+01 1.4710535677828359e+01 1.4752821500500769e+01 0 0 1
477 1 1.8605842612751484e+01 1.4716496258857729e+01 1.4640604529537628e+01 0 0 0
2854 1 2.2279158391020591e+01 1.5203397442961116e+01 1.6105974760533371e+01 0 0 1
2450 1 2.3217873321086799e+01 1.6502266148177953e+00 1.6506918719209054e+01 0 0 0
2981 1 8.6992972024775437e+00 1.6172964765484711e+01 1.0148450334353449e+00 1 0 1
2217 1 2.5324921997735505e+01 1.2543535502495613e+01 1.6001942247104509e+01 0 0 0
447 1 9.6669199221356230e+00 1.7227983325831076e+01 1.5197748811236266e+01 0 0 0
2046 1 3.9019550092059956e+00 7.4067072092365160e+00 2.8125367884375874e+00 0 1 1
822 1 1.2724941845933660e+01 1.7031918460721727e+01 1.5801576453094206e+01 0 0 0
985 1 1.5255927006879666e+01 1.7974991388922898e+01 1.4707227373764402e+01 0 0 1
1097 1 1.9273377805732643e+01 1.9610337743761200e+01 1.5793423600867474e+01 0 1 0
2447 1 1.9924275502887149e+01 1.6677186415245181e+01 1.5970337900295851e+01 0 0 0
1268 1 2.3968481332599961e+01 1.7094246546266476e+01 1.5295872805679803e+01 0 1 0
231 1 3.5695859801894381e+00 1.7845452731072914e+01 1.6427232671999196e+01 0 0 0
2084 1 4.8786637436742755e+00 2.1830957963742936e+01 1.4424858957298310e+01 1 0 0
2426 1 1.1164547287417026e+00 1.0738162800573983e+01 1.2854025787025899e+01 1 0 0
2249 1 2.4049339562178311e+01 3.8721635586492598e+00 7.5916963375949975e-01 0 0 0
273 1 4.8041737665306827e-01 1.0092907322449744e+01 1.5507356498148956e+01 0 0 0
3263 1 2.0612843013393629e+00 1.2144491562034425e+01 1.7080449396157160e+01 0 0 0
4 1 1.8871055816672266e+00 1.6098016264395490e+01 4.8868895699812903e-01 1 0 0
3264 1 4.9350698869714611e+00 5.8732823915105514e-01 1.9066480362282014e+01 0 1 0
3627 1 4.7405317046594639e+00 3.3731037736231531e+00 2.0665214169765324e+01 1 1 0
425 1 1.1971169237904231e+01 4.9968252819231068e-01 2.4522699737693692e+01 0 0 0
625 1 6.7691633871198311e+00 7.6864209493374158e+00 1.8025728597702390e+01 0 0 0
624 1 1.6873887238658327e+01 1.2580678410356350e+00 1.8840493861227937e+01 0 0 0
3057 1 1.9124775807153320e+01 1.5902309685635585e+01 3.3790363290520737e+01 1 0 0
1809 1 4.8992254286978654e-01 9.8246466255972216e+00 2.6983334506215442e+01 0 1 0
538 1 5.8192502492530984e+00 5.0147070540876637e+00 1.8294504882236591e+01 0 0 0