
# Create simulation box and atoms
lattice		    sc 1
Lattice spacing in x,y,z = 1 1 1
region 		    all block 0 51.42 0 51.42 0 51.42 units box
create_box 	    1 all
Created orthogonal box = (0 0 0) to (51.42 51.42 51.42)
  2 by 2 by 3 MPI processor grid

create_atoms	1 random 4457 ${SEED} all
create_atoms	1 random 4457 6729 all
Created 4457 atoms
  create_atoms CPU = 0.000423431 secs

mass		    1 18.15

# Define potential

pair_style 	    sw
pair_coeff	    * * mW_real.sw mW
Reading potential file mW_real.sw with DATE: 2019-02-27

# Run minimization

minimize 	    1.0e-8 1.0e-8 10000 1000
WARNING: Using 'neigh_modify every 1 delay 0 check yes' setting during minimization (../min.cpp:168)
Neighbor list info ...
  update every 1 steps, delay 0 steps, check yes
  max neighbors/atom: 2000, page size: 100000
  master list distance cutoff = 6.3065
  ghost atom cutoff = 6.3065
  binsize = 3.15325, bins = 17 17 17
  1 neighbor lists, perpetual/occasional/extra = 1 0 0
  (1) pair sw, perpetual
      attributes: full, newton on
      pair build: full/bin/atomonly
      stencil: full/bin/3d
      bin: standard
Per MPI rank memory allocation (min/avg/max) = 4.227 | 4.229 | 4.23 Mbytes
Step Temp E_pair E_mol TotEng Press 
       0            0    2402824.7            0    2402824.7    1742779.7 
     722            0   -50290.236            0   -50290.236   -1304.5976 
Loop time of 1.86472 on 12 procs for 722 steps with 4457 atoms

99.1% CPU use with 12 MPI tasks x no OpenMP threads

Minimization stats:
  Stopping criterion = max force evaluations
  Energy initial, next-to-last, final = 
         2402824.72417     -50289.9900459     -50290.2355438
  Force two-norm initial, final = 2.00769e+07 3.39951
  Force max component initial, final = 1.15904e+07 0.827548
  Final line search alpha, max atom move = 0.105458 0.0872719
  Iterations, force evaluations = 722 1001

MPI task timing breakdown:
Section |  min time  |  avg time  |  max time  |%varavg| %total
---------------------------------------------------------------
Pair    | 1.4452     | 1.581      | 1.7448     |   8.0 | 84.78
Neigh   | 0.025621   | 0.027439   | 0.029055   |   0.6 |  1.47
Comm    | 0.058081   | 0.22182    | 0.35709    |  21.6 | 11.90
Output  | 0          | 0          | 0          |   0.0 |  0.00
Modify  | 0          | 0          | 0          |   0.0 |  0.00
Other   |            | 0.0345     |            |       |  1.85

Nlocal:    371.417 ave 387 max 353 min
Histogram: 1 1 1 0 1 4 0 1 1 2
Nghost:    1064.5 ave 1076 max 1040 min
Histogram: 1 1 0 0 0 1 2 1 2 4
Neighs:    0 ave 0 max 0 min
Histogram: 12 0 0 0 0 0 0 0 0 0
FullNghs:  12019.7 ave 12703 max 11203 min
Histogram: 1 0 2 2 1 0 2 0 2 2

Total # of neighbors = 144236
Ave neighs/atom = 32.3617
Neighbor list builds = 41
Dangerous builds = 0

# Create Cavity with Hard sphere "indent" potential

region		    cavity sphere 25.71 25.71 25.71 13.8 side in
delete_atoms	    region cavity
Deleted 360 atoms, new total = 4097
fix 		    5 all indent 10.0 sphere 25.71 25.71 25.71 13.8

# Equilibration of molecular water

# Add velocity/set timestep

velocity	    all create ${TEMP} ${SEED} rot yes dist gaussian
velocity	    all create 215 ${SEED} rot yes dist gaussian
velocity	    all create 215 6729 rot yes dist gaussian
timestep	    5.0

# Define output

compute			1 all msd
thermo	    	50
thermo_style	custom step temp press vol etotal ke pe c_1[4]

# Neighbor lists

neigh_modify    delay 0 every 1 check yes

# Set fixes

fix             1 all momentum 10 linear 1 1 1 rescale
fix             2 all nve
fix             3 all temp/csvr ${TEMP} ${TEMP} 500.0 ${SEED}
fix             3 all temp/csvr 215 ${TEMP} 500.0 ${SEED}
fix             3 all temp/csvr 215 215 500.0 ${SEED}
fix             3 all temp/csvr 215 215 500.0 6729
fix             4 all press/berendsen iso ${PRES} ${PRES} 1000.0 modulus 20000
fix             4 all press/berendsen iso 1.0 ${PRES} 1000.0 modulus 20000
fix             4 all press/berendsen iso 1.0 1.0 1000.0 modulus 20000

# Run 1 ns equilibration

dump		    1 all atom 2000 ${DIR}/eq.${NAME}-${TEMP}.dump
dump		    1 all atom 2000 run_1/eq.${NAME}-${TEMP}.dump
dump		    1 all atom 2000 run_1/eq.hardcavity_freeze_nvt_1-${TEMP}.dump
dump		    1 all atom 2000 run_1/eq.hardcavity_freeze_nvt_1-215.dump

reset_timestep  0

run	            200000
Per MPI rank memory allocation (min/avg/max) = 4.492 | 4.493 | 4.494 Mbytes
Step Temp Press Volume TotEng KinEng PotEng c_1[4] 
       0          215    -500.5552    135955.32   -43096.856    2625.0206   -45721.877 1.1103288e-33 
      50    135.51042   -306.36942    135788.54   -42531.829    1654.5007    -44186.33   0.21311888 
     100    152.18435   -169.70311     135493.1    -42073.04    1858.0793   -43931.119   0.38308275 
     150    165.63873   -127.47881    135186.49   -41740.068    2022.3492   -43762.417   0.55157593 
     200     176.0332    6.3684883    135111.05   -41416.147    2149.2594   -43565.407   0.73067362 
     250    186.08311    -53.94374    134955.61   -41233.737    2271.9627   -43505.699   0.88550567 
     300    193.30364   -111.95151    134937.03   -41024.629     2360.121    -43384.75    1.0543799 
     350    195.23585   -18.891177    134829.95   -40974.309    2383.7122   -43358.021     1.220608 
     400    200.47649   -129.07736    134732.05   -40920.428    2447.6972   -43368.126    1.3758446 
     450    204.96875    44.848911    134585.28   -40824.376     2502.545   -43326.921    1.5482749 
     500    209.59826   -164.45823    134624.63   -40710.759    2559.0685   -43269.827    1.7114602 
     550    206.28314    -88.14785    134447.83   -40669.744     2518.593   -43188.337    1.9029949 
     600    207.53034   -191.01559     134267.5   -40687.207    2533.8205   -43221.027    2.0841612 
     650    206.32864   -154.84352    134032.07   -40661.402    2519.1485    -43180.55    2.2502721 
     700    212.49226   -166.30789    133878.34   -40657.822    2594.4026   -43252.225    2.4168932 
     750    211.74899   -55.570514    133703.96   -40632.223    2585.3277   -43217.551    2.6081365 
     800    215.83658   -44.356484    133673.17   -40602.123    2635.2347   -43237.358    2.7749626 
     850    220.07483   -83.560587    133520.66   -40595.635    2686.9812   -43282.616    2.9710187 
     900     217.2995   -62.154453    133556.39   -40575.031    2653.0961   -43228.127    3.1553331 
     950     216.0574   -73.853516    133385.04   -40595.137    2637.9308   -43233.068    3.3263911 
    1000     218.1478   -116.53005    133297.91    -40567.95    2663.4533   -43231.403    3.5399497 
    1050    217.12121    10.671021    133282.76    -40563.94    2650.9193   -43214.859    3.7519542 
    1100    217.06028   -15.332922    133119.46   -40593.935    2650.1753   -43244.111    3.8860853 
    1150    214.42807      5.30243    133138.25    -40580.86    2618.0377   -43198.897    4.0328756 
    1200    211.33944    -34.83264    133044.86    -40622.97    2580.3274   -43203.297    4.2200937 
    1250    212.47429    92.724578    133039.35   -40650.658    2594.1831   -43244.841    4.4166924 
    1300    214.31889    48.572927    133091.03   -40657.399    2616.7046   -43274.104    4.5369681 
    1350    210.91719    87.010413    133142.16   -40675.299    2575.1719   -43250.471    4.6789195 
    1400    215.43172   -61.329514    133169.91   -40663.806    2630.2916   -43294.097    4.8219171 
    1450    215.01571   -118.70263    133119.35   -40653.252    2625.2124   -43278.465    5.0552379 
    1500    213.23246   -29.281126    133011.48   -40627.641    2603.4399   -43231.081    5.2510603 
    1550    214.19552   -13.741589    132787.23   -40610.926    2615.1984   -43226.125    5.4067391 
    1600    215.18693    57.891604    132794.41   -40655.012    2627.3028   -43282.315    5.6219542 
    1650    214.82763    39.771405    132950.67   -40671.536    2622.9161   -43294.453    5.8189933 
    1700    215.73472    95.276906     132941.4   -40656.715    2633.9911   -43290.706     5.984305 
    1750    214.97676   -20.292159     132937.8   -40691.711    2624.7368   -43316.448    6.1648971 
    1800    215.30828   -92.638765    132873.63   -40670.776    2628.7845   -43299.561    6.2543626 
    1850    214.09341   -58.298734    132755.39   -40656.648    2613.9517   -43270.599    6.4039331 
    1900     215.8536    21.210003    132692.39   -40679.702    2635.4425   -43315.144    6.5444552 
    1950    215.75173    31.500033    132752.47   -40648.966    2634.1987   -43283.165    6.7034764 
    2000    217.39573   -4.2445896    132783.98   -40722.685     2654.271   -43376.956    6.8624562 
    2050    214.26089    -2.336308    132820.39   -40745.756    2615.9965   -43361.753    7.0701288 
    2100    214.35946   -8.9737915    132951.62   -40754.794    2617.1999   -43371.994    7.2083546 
    2150    212.54899   -5.9825952    132877.36    -40759.99    2595.0952   -43355.086    7.4020808 
    2200    216.59333   -102.46469    132783.04   -40762.031    2644.4742   -43406.505    7.5471714 
    2250    219.30194   -57.344764    132781.96     -40759.1    2677.5447   -43436.645    7.6962364 
    2300    209.12176   -164.33017    132673.01   -40785.704    2553.2508   -43338.954    7.8266885 
    2350    209.91158    38.971401    132488.55   -40809.132     2562.894   -43372.026     7.895883 
    2400     211.4138    164.51734    132436.89   -40777.888    2581.2352   -43359.123    8.0711425 
    2450    213.69529   -84.702134     132556.4   -40751.889    2609.0909   -43360.979    8.2961452 
    2500    213.01724    -112.2813    132404.49   -40729.298    2600.8122    -43330.11    8.4381664 
    2550     213.8529    -92.48781     132330.2   -40738.235    2611.0151    -43349.25    8.6023294 
    2600    210.21394   -71.553225    132442.73   -40777.582    2566.5857   -43344.167    8.7501822 
    2650    212.33454    12.858281    132306.86   -40762.144     2592.477   -43354.621    8.8736663 
    2700    214.65251    5.8769353     132279.2   -40689.216    2620.7779   -43309.993    9.0660187 
    2750    216.51218    12.249764    132272.79   -40683.272    2643.4833   -43326.756    9.1730665 
    2800     213.1146   -68.621212    132172.87   -40676.746     2602.001   -43278.747    9.2744351 
    2850     217.2932    87.554023    132271.47   -40690.774    2653.0191   -43343.793    9.4131142 
    2900    209.80346    126.16052     132321.4   -40692.814    2561.5739   -43254.387    9.6003069 
    2950    215.50983   -47.070332    132392.33   -40675.725    2631.2452    -43306.97    9.7516788 
    3000    211.99142    -103.5546    132381.29   -40683.024    2588.2876   -43271.312    9.9676919 
    3050    217.43244   -127.10526    132225.79   -40653.179    2654.7192   -43307.899    10.131221 
    3100    216.35274   -47.986792    132165.38   -40662.654    2641.5367   -43304.191    10.321383 
    3150    216.85384    32.041241    132163.16   -40649.132    2647.6549   -43296.787    10.479173 
    3200    217.78077    45.666059    132127.83   -40649.188    2658.9721    -43308.16    10.698057 
    3250    217.94734    -264.0749    131981.64   -40619.972    2661.0058   -43280.978    10.884577 
    3300    220.61665    7.3800855    131987.03   -40618.326    2693.5965   -43311.923    11.017244 
    3350    215.58543    19.568028    132026.51    -40663.54    2632.1683   -43295.708     11.17475 
    3400     216.7416   -88.905895    132031.94   -40683.009    2646.2845   -43329.293    11.283919 
    3450    210.99369   -170.81416    131894.78   -40686.586    2576.1059   -43262.692    11.309782 
    3500    216.49045   -15.253684    131916.78   -40639.158    2643.2181   -43282.376    11.412524 
    3550    211.92346   -63.702826    131939.26    -40666.17    2587.4578   -43253.628    11.493825 
    3600    217.66378   -51.420011    131906.17   -40616.662    2657.5437   -43274.206    11.582782 
    3650    212.71029    78.761992    131861.26   -40595.502    2597.0646   -43192.567    11.648181 
    3700    214.28584   -27.588778    131942.13   -40581.939    2616.3012    -43198.24    11.803732 
    3750      217.014    200.49608    132002.55   -40576.233    2649.6102   -43225.843    12.006827 
    3800    217.05008    148.02171    132187.18       -40558    2650.0508   -43208.051    12.211626 
    3850    221.15662    24.898605    132285.95   -40563.488    2700.1892   -43263.677    12.340751 
    3900    213.51228    114.96761     132382.3   -40608.347    2606.8564   -43215.204    12.516111 
    3950    213.09367  0.063114381    132463.81   -40590.985    2601.7454    -43192.73    12.731737 
    4000    216.01804   -125.20389    132473.69   -40647.228    2637.4503   -43284.678    12.984777 
    4050    214.57039   -70.174179    132295.84   -40673.053    2619.7753   -43292.828    13.103602 
    4100    212.44915    126.94837    132297.62   -40686.416    2593.8762   -43280.292    13.281886 
    4150    212.03282   -203.91258    132317.89   -40712.409    2588.7931   -43301.203    13.576763 
    4200    213.48775    127.11245    132178.49   -40707.821    2606.5569   -43314.378    13.688361 
    4250    215.93045    53.175893    132251.03   -40681.612    2636.3807   -43317.992    13.845531 
    4300    214.23813    51.645124    132262.73   -40705.351    2615.7186    -43321.07    13.960349 
    4350    217.21605   -177.83702    132229.27   -40673.202    2652.0772   -43325.279    14.012128 
    4400     213.9334   -26.877152    132183.01   -40672.771     2611.998   -43284.769    14.163787 
    4450    214.14033   -19.758392    132101.63   -40664.098    2614.5246   -43278.622    14.323143 
    4500    216.05143    11.897098    131979.55   -40677.173    2637.8579   -43315.031    14.519442 
    4550    221.00393    18.984309    132023.55   -40630.902    2698.3249   -43329.227      14.5962 
    4600    217.13965    16.716396    132098.83   -40607.742    2651.1444   -43258.886     14.86024 
    4650    213.61777    -46.56144     132044.7   -40574.745    2608.1443   -43182.889    15.174794 
    4700    216.27937    204.92075    132095.54   -40615.704    2640.6409   -43256.345    15.461658 
    4750    215.77797     50.26132    132098.11   -40646.233    2634.5191   -43280.752    15.795753 
    4800    213.03109    212.32686     132279.3   -40641.772    2600.9813   -43242.754    15.996069 
    4850    213.79041    88.073683    132402.75   -40693.534    2610.2522   -43303.786    16.130432 
    4900    219.14846     34.84769    132329.57   -40678.096    2675.6707   -43353.767    16.211761 
    4950    211.21239    -11.10002    132222.75   -40732.218    2578.7762   -43310.994    16.197397 
    5000    210.51625    103.79579    132258.64   -40758.877    2570.2767   -43329.154    16.368344 
    5050    210.22907   -64.788317    132177.52   -40786.263    2566.7704   -43353.034    16.557121 
    5100    216.43359   -82.368718     132120.7   -40775.582    2642.5239   -43418.106    16.679045 
    5150    211.88875     202.1308    132192.48   -40765.481    2587.0341   -43352.515    16.738058 
    5200    216.63363   -16.422644    132302.95    -40702.94    2644.9662   -43347.906    16.818726 
    5250    219.57056   -20.304288    132238.35   -40706.422    2680.8244   -43387.247    16.991032 
    5300    214.34357   -9.9423965    132285.53   -40751.779    2617.0059   -43368.785    17.248694 
    5350    217.23278    105.45476    132330.88   -40719.979    2652.2815    -43372.26    17.436474 
    5400    218.54239    41.645903    132306.97   -40681.932     2668.271   -43350.203    17.661393 
    5450    215.01851   -148.62239    132296.19   -40708.089    2625.2465   -43333.335    17.799031 
    5500    211.77586   -56.555997    132240.13   -40695.382    2585.6557   -43281.038     17.99227 
    5550    215.52584    221.69884    132296.41   -40701.641    2631.4408   -43333.082    18.092627 
    5600    216.90522   -9.1167327    132255.52   -40696.098    2648.2821    -43344.38    18.152448 
    5650     212.0539    66.706291    132404.11   -40713.004    2589.0504   -43302.054    18.334981 
    5700    213.55729   -11.506205    132336.74   -40709.303     2607.406   -43316.708    18.438254 
    5750    213.55866    56.216677    132413.17   -40739.881    2607.4226   -43347.304    18.510518 
    5800    213.48371   -50.038992    132419.11   -40766.714    2606.5076   -43373.221    18.627775 
    5850    215.75537   -194.32017     132444.9   -40733.561    2634.2432   -43367.804    18.876693 
    5900    214.17593   -13.651369    132408.09   -40775.414    2614.9592   -43390.374    18.940495 
    5950    214.63521   -78.595402    132360.87   -40838.844    2620.5667   -43459.411    19.144847 
    6000    215.24755   -14.946109    132300.19   -40815.395     2628.043   -43443.438    19.409314 
    6050    211.94791    180.67829    132433.77   -40791.576    2587.7564   -43379.332    19.660105 
    6100    214.88133    22.738864    132495.31   -40794.911    2623.5717   -43418.482    19.813123 
    6150    212.11396    108.06125    132509.79   -40779.732    2589.7838   -43369.516    20.002643 
    6200    214.07551    73.720493    132471.09   -40768.234    2613.7331   -43381.967    20.267446 
    6250    211.50783   -124.55998    132368.32   -40792.008    2582.3833   -43374.391    20.335183 
    6300    216.47722   -170.30364    132208.81     -40765.6    2643.0565   -43408.657    20.469721 
    6350      213.414    117.65271    132196.09   -40774.103    2605.6565    -43379.76    20.616203 
    6400    216.04659   -22.089715    132171.78     -40777.8    2637.7989   -43415.598    20.671353 
    6450    217.02925    2.2514122    132332.22   -40744.134    2649.7965   -43393.931    21.006146 
    6500    214.01068   -42.841908    132360.48   -40732.399    2612.9416    -43345.34    21.173917 
    6550    212.22085  -0.91678967    132203.25   -40757.285    2591.0889   -43348.374    21.239787 
    6600     214.5285    -113.1807    132049.46   -40759.426    2619.2639    -43378.69    21.430321 
    6650    215.28337    93.105659    132145.85   -40728.589    2628.4804   -43357.069    21.544713 
    6700    216.89842   -149.19579    131949.37   -40725.004    2648.1991   -43373.203    21.545681 
    6750    217.04036    89.859911    131800.11   -40725.928    2649.9322    -43375.86     21.66235 
    6800    217.25728    240.98145    132080.51    -40674.78    2652.5805   -43327.361    21.777298 
    6850    216.56718   -26.197482    132135.96    -40680.44    2644.1549   -43324.595     21.87703 
    6900    215.65514    15.944529    132177.15   -40641.753    2633.0194   -43274.773    22.151723 
    6950    220.96112   -2.9839554    132216.28   -40630.355    2697.8023   -43328.157    22.288025 
    7000    216.99893   -48.916614    132188.97       -40656    2649.4263   -43305.427    22.457583 
    7050    216.88517    44.696694    132107.18   -40660.943    2648.0373   -43308.981    22.681863 
    7100    219.15482    30.282663    132086.27   -40638.372    2675.7484   -43314.121    22.869282 
    7150     216.4805   -30.631801    132050.24   -40699.985    2643.0966   -43343.082    23.080026 
    7200    216.09228   -212.42276    132002.22    -40708.19    2638.3567   -43346.547    23.090002 
    7250    215.03484    48.707924    132002.47   -40732.094     2625.446    -43357.54    23.180913 
    7300    213.19956    177.88516    132122.95   -40693.399    2603.0383   -43296.437    23.385858 
    7350    218.29543    30.321595    132262.54   -40659.976    2665.2558   -43325.232    23.646701 
    7400     214.2474    17.704723    132255.57   -40706.815    2615.8318   -43322.647    23.950926 
    7450    214.60791   -100.99936    132243.73   -40726.141    2620.2334   -43346.374    24.251784 
    7500    215.09762     -43.1814    132089.37   -40738.931    2626.2124   -43365.143    24.509111 
    7550    214.39169    4.5582163    132087.87   -40745.499    2617.5935   -43363.093    24.774584 
    7600    215.38237   -91.948473    132001.07   -40747.538    2629.6891   -43377.227    24.964045 
    7650    214.88159   -27.913387    132033.82    -40856.37    2623.5748   -43479.945    25.092349 
    7700    208.35352    238.12828    132171.93   -40834.465    2543.8711   -43378.336    25.311288 
    7750    214.65585   -91.622384    132110.01   -40758.014    2620.8187   -43378.832    25.263564 
    7800     213.2662   -123.60368    131972.74   -40750.753    2603.8519   -43354.605    25.387026 
    7850    214.92145   -64.909046    131894.43   -40748.701    2624.0615   -43372.763    25.513161 
    7900    215.21757   -62.168458    131752.19   -40806.691     2627.677   -43434.368    25.635833 
    7950    212.37675   -147.15135    131674.33   -40841.551    2592.9922   -43434.543    25.682031 
    8000    210.71434   -99.212314    131584.27   -40853.396    2572.6953   -43426.091     25.73909 
    8050    213.89927    65.157422    131613.13     -40805.6    2611.5813   -43417.182    25.920933 
    8100    212.39485    61.591111    131597.61   -40825.225    2593.2133   -43418.438    26.038678 
    8150    214.89583    116.89316     131766.6   -40776.825    2623.7487   -43400.573    26.117861 
    8200    215.99051     -73.4332    131834.16   -40758.585    2637.1141   -43395.699    26.329872 
    8250    215.33652    99.885237    131902.08   -40782.315    2629.1293   -43411.444    26.544319 
    8300    211.63084    79.660154    132058.41   -40766.517    2583.8852   -43350.402    26.761453 
    8350    214.55215   -9.5035218    132057.77   -40728.351    2619.5526   -43347.904    26.901582 
    8400    210.80255   -12.002858    131948.95   -40801.958    2573.7722    -43375.73       26.913 
    8450    210.02743    17.042351    131842.35    -40795.02    2564.3085   -43359.328     26.95507 
    8500    207.98334   -147.29486    131764.51   -40799.929    2539.3514    -43339.28     27.27693 
    8550    210.24993    28.779008    131666.58   -40791.785    2567.0251    -43358.81    27.502905 
    8600    208.57091   -64.472021    131633.89   -40777.766    2546.5252   -43324.291     27.65008 
    8650    210.91112    70.452614    131624.44   -40743.287    2575.0979   -43318.385    27.737437 
    8700      215.175    94.170817    131647.69   -40718.566    2627.1572   -43345.723    27.858047 
    8750    212.84026     201.5475    131726.93    -40742.14    2598.6514   -43340.791    27.993725 
    8800    211.29711    1.5160413    131850.26   -40758.348    2579.8105   -43338.159    28.248409 
    8850    214.10944   -77.597583    131754.12   -40817.506    2614.1474   -43431.653    28.319963 
    8900    210.87561    92.071658    131785.62    -40814.98    2574.6643   -43389.644    28.432637 
    8950    217.49849   -174.16535    131712.13   -40762.009    2655.5257   -43417.535    28.561057 
    9000    216.64537     217.5157    131787.77     -40772.4    2645.1095    -43417.51     28.69285 
    9050    216.00182    11.609794    131955.91   -40750.147    2637.2521     -43387.4    28.815585 
    9100    213.68439   -124.26806    131894.38   -40768.068    2608.9577   -43377.026    29.068897 
    9150    211.09903   -100.36677    131801.92   -40761.963     2577.392   -43339.356    29.141065 
    9200    213.15786    102.09391     131792.6   -40739.174    2602.5291   -43341.703    29.202008 
    9250      215.908   -179.21786     131763.9   -40712.859    2636.1067   -43348.966    29.193239 
    9300    216.51178   -105.86843    131603.57   -40665.581    2643.4784   -43309.059    29.310175 
    9350    217.13762    74.558653    131567.58   -40675.936    2651.1196   -43327.055    29.406326 
    9400    222.10375    -147.9184    131620.31   -40667.377    2711.7531    -43379.13    29.517613 
    9450    218.21527    14.896046    131715.19   -40682.473    2664.2771    -43346.75    29.722707 
    9500    216.31758    43.339149    131743.21   -40668.473    2641.1075   -43309.581    29.874443 
    9550    213.98236   -27.315662     131916.7   -40651.958    2612.5957   -43264.554    30.171177 
    9600    218.92338    193.75359    131983.27   -40620.661    2672.9226   -43293.584    30.452005 
    9650    221.78692   -3.4907144    132112.33     -40634.1    2707.8848   -43341.984    30.704584 
    9700    217.69891    159.70104    132159.42   -40681.186    2657.9726   -43339.159    30.990766 
    9750    212.44801    69.748279    132253.33   -40715.074    2593.8624   -43308.937    31.262037 
    9800    213.14576   -8.3354182    132244.51   -40690.816    2602.3814   -43293.197     31.41737 
    9850    211.53522    13.614973    132225.22   -40716.071    2582.7177   -43298.789    31.533536 
    9900     216.7946    50.631118    132231.34   -40724.513    2646.9316   -43371.445    31.624001 
    9950    216.52556   -5.6895797    132325.13   -40670.333    2643.6468   -43313.979    31.786495 
   10000     214.3234    48.670514    132477.02   -40653.928    2616.7597   -43270.688    31.920721 
   10050    217.80084    73.423483    132457.13   -40670.405    2659.2172   -43329.622     32.06931 
   10100    221.97192    3.6329128    132488.18   -40632.286    2710.1435   -43342.429    32.119832 
   10150    214.36207   -108.30661    132426.35   -40676.503    2617.2318   -43293.735    32.239514 
   10200    214.34869    78.304666     132429.9    -40721.45    2617.0685   -43338.518    32.363231 
   10250    216.40011    24.594327    132541.31   -40702.277    2642.1151   -43344.392    32.541596 
   10300    220.40188   -35.674575    132463.41   -40680.063    2690.9743   -43371.037    32.703506 
   10350    215.30382   -149.48306    132503.51   -40717.289      2628.73   -43346.019    32.865393 
   10400    217.62746   -134.70427    132311.12    -40711.78    2657.1003    -43368.88    33.054271 
   10450    217.33677   -19.591758    132330.65   -40644.027    2653.5511   -43297.578     33.24475 
   10500    215.89401   -70.791944    132326.09   -40697.087    2635.9359   -43333.023    33.525096 
   10550     214.4143    9.8564428    132303.39   -40737.366    2617.8695   -43355.235    33.780827 
   10600    213.60718   -39.229621    132287.84   -40772.412     2608.015   -43380.427    33.973168 
   10650    213.83525   -127.33189    132109.62   -40746.723    2610.7996   -43357.522    34.139621 
   10700    209.70057   -26.450317    131955.14   -40762.483    2560.3177   -43322.801    34.335088 
   10750    214.26543   -89.055959    131854.88   -40787.564    2616.0519   -43403.616    34.357356 
   10800    211.11232    44.727044    131852.07   -40795.061    2577.5543   -43372.615    34.333382 
   10850    214.42981    41.153476     131893.9   -40771.686    2618.0589   -43389.745    34.684717 
   10900    214.74554    86.167781    131913.72    -40696.73    2621.9137   -43318.644    34.854451 
   10950    218.20894    148.48429    132037.09   -40681.668    2664.1998   -43345.868    34.968576 
   11000    216.47616    44.188277    132132.18   -40646.009    2643.0436   -43289.052    35.060995 
   11050    221.71814   -47.282444     132058.1   -40658.356     2707.045   -43365.401    35.238164 
   11100    216.72987    58.816534    131821.89   -40636.369    2646.1413   -43282.511    35.313408 
   11150    215.23404    97.446168    131981.79    -40659.08     2627.878   -43286.958    35.352188 
   11200    218.54909   -77.515863    131942.32   -40664.622    2668.3528   -43332.975    35.420067 
   11250    216.51906    50.970149    132033.47   -40696.526    2643.5673   -43340.093    35.688814 
   11300    216.57836    34.593205    132127.14   -40677.399    2644.2914   -43321.691    35.995267 
   11350    218.42616    53.606196    132306.66   -40658.668    2666.8519    -43325.52    36.224762 
   11400     217.1336    83.633776    132346.82   -40637.703    2651.0705   -43288.774    36.472614 
   11450     210.2859   -103.71764    132320.03   -40703.126    2567.4642    -43270.59     36.53502 
   11500    212.35845   -113.68556    132217.97   -40693.264    2592.7688   -43286.033    36.675076 
   11550    216.88202   -51.173472    132033.29   -40662.501    2647.9989     -43310.5    36.839699 
   11600    211.54278    51.688791    132008.17   -40666.075      2582.81   -43248.885    37.023257 
   11650    210.08784    -37.18116    132098.97   -40704.364    2565.0461   -43269.411     37.13449 
   11700    215.73823    56.645344    132156.44   -40695.947    2634.0339   -43329.981    37.260345 
   11750    213.26071   -33.034942    132164.46   -40648.544    2603.7848   -43252.329     37.36485 
   11800    214.39992   -49.620077    132249.06   -40662.223     2617.694   -43279.917    37.521068 
   11850    214.89182    8.2428352    132078.13   -40696.846    2623.6997   -43320.545    37.657851 
   11900    213.78994   -122.39538    131986.62   -40666.316    2610.2465   -43276.562    37.836071 
   11950    213.66902    60.953919    131944.05   -40702.422    2608.7701   -43311.192    38.036002 
   12000    214.18003   -17.732806    131902.64     -40711.1    2615.0093   -43326.109    38.203917 
   12050    217.32998    99.451871    131954.28   -40658.374    2653.4682   -43311.842    38.269177 
   12100    214.99589      20.9778    131824.31   -40671.545    2624.9704   -43296.515    38.453471 
   12150     217.2715   -92.803082    131899.81   -40626.973    2652.7542   -43279.727    38.681052 
   12200    217.19033    116.17709    132009.71   -40603.739    2651.7632   -43255.502    38.747758 
   12250     218.1912    67.146631    132117.59   -40619.197    2663.9833    -43283.18    38.884114 
   12300    219.50286    53.718989    132251.61   -40619.132    2679.9978   -43299.129    39.053784 
   12350    218.44111    157.94331    132397.87   -40631.883    2667.0345   -43298.918    39.200343 
   12400    214.40893   -187.28622     132246.9   -40670.248    2617.8039   -43288.051    39.375805 
   12450    210.58562    13.174899    132098.42   -40667.402    2571.1237   -43238.526    39.469832 
   12500    215.08926    97.462434    132073.78   -40687.973    2626.1104   -43314.084    39.548772 
   12550    214.63981   -168.90241    131920.73   -40690.651    2620.6229   -43311.274    39.688839 
   12600    218.63793   -78.696885    131790.85   -40662.517    2669.4375   -43331.954    39.783827 
   12650    217.67291   -39.659832    131808.21   -40695.548    2657.6552   -43353.204    39.881692 
   12700     212.4927    284.32216    131818.51   -40700.522     2594.408    -43294.93    40.046861 
   12750    212.11279    129.69922    131973.38   -40690.891    2589.7695   -43280.661    40.097693 
   12800    213.40614   -25.007617    131909.42   -40714.363    2605.5605   -43319.924    40.060751 
   12850    222.65869    -23.82671    131881.46    -40630.29    2718.5286   -43348.818    40.098387 
   12900    213.27526   -94.386941    131921.98   -40715.551    2603.9625   -43319.513     40.30677 
   12950    212.15589    100.97697    132025.28   -40773.123    2590.2957   -43363.418    40.497251 
   13000    208.73752    44.726659    132290.96   -40760.933    2548.5594   -43309.493    40.732073 
   13050    216.62213   -100.08583     132410.1    -40719.72    2644.8258   -43364.546    41.057952 
   13100    212.54865   -120.68621    132328.57   -40767.752    2595.0911   -43362.843    41.156573 
   13150     215.8241   0.28876574     132228.7   -40789.373    2635.0823   -43424.455    41.265272 
   13200    218.89066   -88.248939    132193.22   -40746.089    2672.5232   -43418.612    41.497658 
   13250     215.5159   -126.06207    132219.38   -40754.446    2631.3194   -43385.765    41.783295 
   13300    211.95691    30.777847    132085.82   -40829.122    2587.8663   -43416.988    41.948936 
   13350    215.71806    58.086607    132039.77   -40832.525    2633.7876   -43466.313    42.009997 
   13400     214.4615    57.938721    132127.45     -40785.6    2618.4458   -43404.046    42.235968 
   13450    214.20199   -37.227519    132114.54   -40832.424    2615.2773   -43447.702    42.363354 
   13500    213.85984    121.95435    132091.67   -40791.015    2611.0998   -43402.115    42.553395 
   13550     220.3809   -6.3306313    132029.73   -40769.582    2690.7181     -43460.3    42.850781 
   13600    216.07895   -6.5327523    132066.93   -40738.977    2638.1938    -43377.17    43.030279 
   13650    219.63624   -51.612924    131964.08   -40709.235    2681.6262   -43390.862    43.233816 
   13700    215.58617    136.43876    132046.39   -40704.284    2632.1773   -43336.461    43.452353 
   13750    214.85116   -5.2873689     131991.8   -40708.154    2623.2034   -43331.357    43.602869 
   13800    222.01213    37.675363    132004.43   -40672.506    2710.6345    -43383.14    43.730026 
   13850    218.40241    34.379438    132079.84   -40689.556     2666.562   -43356.118    43.976981 
   13900    218.51896    -5.292965    132107.76   -40651.137    2667.9849   -43319.122    44.162842 
   13950    220.95546    6.3247459    132100.41   -40634.068    2697.7332   -43331.801    44.468752 
   14000    218.23304    175.63548    132058.55   -40624.914    2664.4941   -43289.408    44.573301 
   14050    219.74263   -84.602003    132126.62   -40625.221    2682.9252   -43308.146    44.649197 
   14100    222.07391    136.52276    132238.19   -40678.198    2711.3887   -43389.587    44.851492 
   14150    213.40996   -74.253785    132330.42   -40671.207    2605.6072   -43276.814    44.927003 
   14200    215.11739     159.9712    132413.31       -40699    2626.4538   -43325.453    45.154295 
   14250    219.56048    -56.59036    132407.39   -40679.272    2680.7013   -43359.973    45.158705 
   14300    219.90905    123.87066    132298.34   -40696.037    2684.9571   -43380.994    45.371391 
   14350    214.35451   -150.42704    132208.73   -40740.877    2617.1395   -43358.017    45.489892 
   14400     217.9851   -112.70578    132120.19   -40715.022    2661.4668   -43376.489    45.454253 
   14450    220.11912    49.558094    132151.83   -40688.172    2687.5219   -43375.694    45.712398 
   14500    214.97725   -23.995718     132039.6   -40734.057    2624.7428     -43358.8     45.98045 
   14550    216.99605   -56.397363    131993.31   -40729.446    2649.3912   -43378.837    45.921779 
   14600    217.83928   -46.793827    131936.74   -40751.506    2659.6865   -43411.193     45.88241 
   14650    213.86512    46.464716    132030.63   -40798.156    2611.1644   -43409.321    46.105136 
   14700    215.74268    10.546867    132045.61   -40834.213    2634.0883   -43468.301    46.255951 
   14750    212.61939   -64.398964    132032.24   -40808.185    2595.9548    -43404.14     46.44035 
   14800    214.91651   -84.700674    132086.37   -40841.842    2624.0012   -43465.844    46.747658 
   14850    217.34653   -67.158917    132120.56   -40819.972    2653.6703   -43473.642    47.068413 
   14900    213.90493    141.24268     132240.2   -40878.423    2611.6504   -43490.073    47.270894 
   14950    212.77305    60.713233    132285.77   -40848.246    2597.8309   -43446.077    47.388437 
   15000    215.83044   -131.33238    132285.58   -40886.918    2635.1598   -43522.078    47.478161 
   15050    215.36505   -61.790328    132268.09   -40895.086    2629.4776   -43524.564    47.618241 
   15100    212.20426    278.88037    132242.61   -40965.485    2590.8862   -43556.371    47.874619 
   15150    212.17938    -21.16176    132385.73   -40943.572    2590.5824   -43534.154    48.020121 
   15200    210.31696   -69.177276    132298.84   -40928.416    2567.8435    -43496.26    48.276377 
   15250    209.08607    109.64988    132169.08   -40940.981     2552.815   -43493.796    48.582186 
   15300    211.93566    32.175802    132185.15   -40923.458    2587.6069   -43511.065    48.731387 
   15350    214.01806   -57.601101    132201.79   -40854.202    2613.0317   -43467.234    48.813955 
   15400    216.69519    51.980011    132298.29   -40841.615    2645.7179   -43487.333    48.820933 
   15450    212.20605    116.00761    132471.52    -40840.11    2590.9081   -43431.018    49.041244 
   15500    211.92523    36.523281     132447.2   -40888.431    2587.4795    -43475.91    49.023348 
   15550    212.60466    42.507657     132435.1   -40932.093    2595.7749   -43527.868     49.32446 
   15600    212.94254   -43.225382    132384.84    -40854.07    2599.9002    -43453.97    49.547415 
   15650    218.07681   -182.91221    132334.16     -40780.7    2662.5866   -43443.286    49.621235 
   15700    215.52192    59.122734    132243.66   -40810.983    2631.3929   -43442.376    49.811726 
   15750    218.85905    183.51913    132397.04   -40833.034    2672.1372   -43505.171    49.714875 
   15800    217.08093    26.593885    132676.87   -40845.635    2650.4275   -43496.063    49.891186 
   15850    212.96625    71.897194    132818.42   -40815.482    2600.1897   -43415.671    50.006558 
   15900    208.51304   -145.44811    132765.07   -40871.608    2545.8187   -43417.426    50.223878 
   15950    220.81049   -9.3164479     132709.4   -40862.687    2695.9632    -43558.65    50.325078 
   16000    213.45165   -46.293328    132824.47   -40861.142    2606.1161   -43467.258    50.386762 
   16050    214.16738    43.188055     132776.9   -40828.923    2614.8547   -43443.778    50.359544 
   16100    211.05909   -13.132139    132739.64   -40836.834    2576.9044   -43413.738    50.239587 
   16150    211.32297   -144.07856    132615.38   -40869.561    2580.1262   -43449.687    50.341652 
   16200    214.77485   -266.03824    132526.47   -40862.901    2622.2716   -43485.173     50.49732 
   16250    209.73512    69.395894    132373.21   -40896.638    2560.7395   -43457.377     50.53172 
   16300    209.69976    124.77513    132326.88   -40848.245    2560.3078   -43408.553     50.56307 
   16350    210.64908   -25.713707    132255.04   -40890.297    2571.8984   -43462.196    50.841985 
   16400    211.28312    8.5282504    132312.64   -40901.261    2579.6397   -43480.901    51.101848 
   16450    216.37996    76.487152    132343.35   -40897.533     2641.869   -43539.402    51.313199 
   16500     214.1161    31.507932     132395.7   -40931.189    2614.2287   -43545.418    51.565427 
   16550    210.93222   -126.74742    132503.12   -40869.978    2575.3554   -43445.333     51.73033 
   16600    211.63663   -44.289375    132401.06   -40880.295    2583.9559   -43464.251    51.877851 
   16650    210.97752    114.59382    132381.46   -40935.523    2575.9085   -43511.431    52.039544 
   16700    214.91258    26.030689    132498.78   -40876.962    2623.9533   -43500.915     52.24246 
   16750    217.46966    92.183205    132645.39   -40879.177    2655.1736   -43534.351    52.396786 
   16800    217.74973    42.791738    132651.15   -40886.282    2658.5931   -43544.876    52.408674 
   16850    215.35662   -34.002025    132618.16   -40919.799    2629.3747   -43549.173    52.351828 
   16900    211.38605   -51.205226    132468.36   -40915.858    2580.8964   -43496.754    52.280997 
   16950    212.79507   -37.494387    132525.52   -40928.534    2598.0997   -43526.634    52.387082 
   17000    212.18657   -11.111921    132502.73   -40916.407    2590.6702   -43507.077    52.468062 
   17050    213.62606    5.3601416    132501.26   -40877.886    2608.2456   -43486.132    52.508585 
   17100     214.9458   -44.270848    132531.39   -40876.278    2624.3588   -43500.636    52.740082 
   17150    213.66166    -51.19375    132524.31   -40878.292    2608.6802   -43486.972    53.128772 
   17200    213.86019    76.516489    132646.44   -40877.051    2611.1042   -43488.155    53.276971 
   17250    216.97409   -103.68547    132570.77   -40905.179     2649.123   -43554.302    53.401326 
   17300    211.32943   -6.4252065    132443.59   -40863.062    2580.2051   -43443.267    53.439362 
   17350    215.12711    88.829587    132419.15   -40882.606    2626.5726   -43509.179     53.44519 
   17400    212.52701   -13.381117    132428.28   -40964.741    2594.8269   -43559.568     53.52261 
   17450    211.89842    91.995338    132475.36   -40935.309    2587.1521   -43522.461    53.631453 
   17500    208.47299    53.451576    132570.21   -40938.238    2545.3297   -43483.567    53.850157 
   17550    216.73999    59.476234    132504.04   -40869.489    2646.2648   -43515.754    53.910562 
   17600    212.51182    37.526175    132611.59   -40897.251    2594.6414   -43491.893    54.027886 
   17650    211.51163    -90.81046     132612.1   -40910.525    2582.4296   -43492.955    54.305481 
   17700    210.95013   -35.667529     132503.8   -40902.964    2575.5741   -43478.538    54.500357 
   17750    213.57328   -142.12752    132469.74   -40818.523    2607.6012   -43426.124    54.678256 
   17800    217.16896    160.79742    132383.34   -40858.549    2651.5023   -43510.052    54.819856 
   17850    214.82069   -21.015146    132402.46   -40859.472    2622.8313   -43482.303    54.779367 
   17900    215.38405   -81.881393    132318.43    -40861.97    2629.7096    -43491.68    54.878096 
   17950    212.39001   -44.102284    132275.81   -40875.292    2593.1541   -43468.446    55.042784 
   18000    209.46167   -102.80114    132150.85   -40863.689    2557.4008    -43421.09    55.176565 
   18050    212.72097    39.762038    132073.98   -40808.759     2597.195   -43405.954    55.314227 
   18100    216.11836   -69.761064    132005.15   -40807.671     2638.675   -43446.346    55.481485 
   18150    217.16918    186.16131    132069.09   -40818.346    2651.5049   -43469.851    55.703961 
   18200    217.85343    128.55187    132287.27   -40756.414    2659.8593   -43416.273    55.822742 
   18250    215.97207     23.37363    132388.71   -40746.494    2636.8889   -43383.383    55.843283 
   18300     215.5981    4.0542507    132404.09   -40754.929     2632.323   -43387.252    56.102523 
   18350    215.94235   -51.203946    132338.51   -40750.631    2636.5261   -43387.157    56.154654 
   18400    219.48601   -53.613759    132145.34   -40745.631    2679.7921   -43425.423     56.27514 
   18450     210.9451    43.523012    132049.67   -40778.416    2575.5127   -43353.929    56.143829 
   18500    218.57272   -8.5279583    132008.45   -40783.368    2668.6413   -43452.009    56.348511 
   18550    217.56988   -17.953536    132195.36    -40806.71    2656.3973   -43463.108    56.617595 
   18600    214.69584    81.141749    132284.16   -40779.534     2621.307   -43400.841    56.682792 
   18650    214.59288   -6.4782508     132306.9   -40801.733    2620.0499   -43421.782    56.856541 
   18700    211.31293    171.18775    132330.19   -40824.193    2580.0036   -43404.197     57.08902 
   18750    216.14957    33.868652    132361.05   -40787.049    2639.0561   -43426.105    56.990648 
   18800    216.35246    261.75795     132318.8   -40790.273    2641.5333   -43431.807    57.044505 
   18850    217.00602   -50.654375    132623.92   -40799.996    2649.5129   -43449.509    57.288893 
   18900    217.08004   -160.60265    132489.75   -40824.425    2650.4166   -43474.841    57.487032 
   18950    213.04122    62.176138    132470.72   -40879.473    2601.1051   -43480.578    57.806522 
   19000    215.10209   -129.89282    132559.31   -40880.454     2626.267   -43506.721    57.974757 
   19050    212.70763    166.62632    132604.63   -40841.947    2597.0321   -43438.979    58.247628 
   19100    216.83586    20.773287    132632.68    -40842.91    2647.4353   -43490.346    58.445187 
   19150    213.20668   -20.878679     132634.3   -40828.428    2603.1252   -43431.554    58.604699 
   19200    214.78663    96.143657    132776.01   -40853.431    2622.4154   -43475.846    58.992974 
   19250    214.03096    54.332368    132779.42   -40837.597    2613.1891   -43450.786    59.304301 
   19300    212.87834    68.998171    132867.86   -40832.214    2599.1164    -43431.33    59.590538 
   19350    216.15373    21.711368    132857.36   -40805.144    2639.1069   -43444.251    59.737182 
   19400    212.40278   -46.782754    132787.85   -40848.475    2593.3101   -43441.785    59.913901 
   19450    214.39272    13.131323    133002.41   -40819.943    2617.6061   -43437.549    60.121742 
   19500    213.19932    20.749256    133049.25   -40788.218    2603.0353   -43391.254    60.060368 
   19550    213.65588   -116.89046    133079.15   -40786.408    2608.6096   -43395.018    60.092349 
   19600    218.44151   -163.55245    132907.13   -40826.188    2667.0394   -43493.227    59.962261 
   19650    215.68476   -125.96226    132677.17   -40841.479    2633.3811    -43474.86    60.035894 
   19700     213.9091    -140.5981    132542.99   -40865.642    2611.7013   -43477.344    60.106174 
   19750    212.92784     52.47158     132535.2   -40893.892    2599.7207   -43493.612    60.311123 
   19800    213.76494   -10.832487    132631.74   -40849.126    2609.9412   -43459.067    60.461373 
   19850     209.9217   -94.235796    132603.64   -40851.636    2563.0176   -43414.653    60.800207 
   19900    216.88475    71.651365    132572.66   -40860.494    2648.0322   -43508.527    60.941688 
   19950     212.5296    32.431927    132628.85   -40837.098    2594.8585   -43431.956    61.014373 
   20000    210.16462    137.56368    132721.68   -40830.912    2565.9835   -43396.896    61.155024 
   20050     218.7675   -279.44177    132697.37   -40818.913    2671.0194   -43489.932    61.316554 
   20100    215.18398   -126.87638    132569.03   -40757.483    2627.2668    -43384.75    61.525665 
   20150    215.87995   -209.07723    132454.18    -40769.53    2635.7643   -43405.295    61.422828 
   20200    214.06679   -140.18098    132343.53   -40829.907    2613.6267   -43443.534    61.289406 
   20250    214.97668    114.18196    132295.64    -40801.91    2624.7358   -43426.646    61.277312 
   20300    215.19988   -60.457078    132369.05   -40820.522     2627.461   -43447.983    61.316193 
   20350     213.6609    44.363553    132243.16   -40801.966     2608.671   -43410.637    61.331034 
   20400    219.14315    48.050999    132426.45   -40801.071     2675.606   -43476.677    61.372982 
   20450    210.42236    -13.69972    132418.75   -40802.911    2569.1304   -43372.041    61.469686 
   20500    212.70369   -62.896778    132398.37   -40786.258    2596.9841   -43383.242    61.459788 
   20550    213.62268   -67.577939    132306.39   -40844.587    2608.2043   -43452.791    61.409992 
   20600    217.19643    181.24799    132395.61    -40807.62    2651.8377   -43459.458    61.473229 
   20650     221.4502    115.72287    132447.82   -40771.325    2703.7736   -43475.099    61.595761 
   20700    216.52682   -37.141223    132465.24   -40797.484    2643.6621   -43441.146    61.843494 
   20750    213.82515    113.66669     132531.4   -40750.265    2610.6764   -43360.941    62.103642 
   20800    218.46064   -36.988686    132435.53   -40710.172    2667.2729   -43377.445    62.335746 
   20850    216.19259    69.507563    132605.43   -40724.301    2639.5814   -43363.882    62.607522 
   20900    219.04386   -14.196157    132631.66   -40734.861    2674.3937   -43409.255    62.476111 
   20950    215.38034   -11.412712    132687.04   -40753.046    2629.6643   -43382.711    62.784065 
   21000    213.74551   -53.911075    132653.26   -40773.852     2609.704   -43383.556     63.03409 
   21050    214.23598    47.132215    132467.06   -40795.895    2615.6923   -43411.587    63.003735 
   21100    210.95448    5.7336188    132403.61   -40819.503    2575.6272    -43395.13    62.901917 
   21150    218.18602   -124.19354    132348.71   -40776.461      2663.92   -43440.381     62.76547 
   21200    216.76202    -48.97372    132152.53   -40769.924    2646.5337   -43416.458    62.937917 
   21250    215.15262    32.765205    132170.51   -40772.438    2626.8839   -43399.322    63.217223 
   21300    214.20361    6.1346776    132202.45    -40797.32    2615.2971   -43412.617    63.445046 
   21350    214.99612   -32.025723    132137.97   -40800.097    2624.9732    -43425.07    63.619448 
   21400    214.63438   -6.0433903     132139.8   -40799.786    2620.5566   -43420.343    63.791104 
   21450    220.52961    83.602411    132132.14   -40718.485    2692.5338   -43411.019    64.001987 
   21500     217.6851    5.2583058    132244.32   -40715.478    2657.8041   -43373.282    64.151211 
   21550    217.38139   -161.91575    132117.12   -40768.633    2654.0959   -43422.729    64.269694 
   21600     215.8436   -163.47726    132003.18   -40796.057    2635.3204   -43431.377    64.449358 
   21650    216.33454    31.508931    131961.74   -40807.078    2641.3144   -43448.393     64.50864 
   21700    214.87581    129.74764    132079.75   -40866.678    2623.5042   -43490.182      64.3058 
   21750     211.9926   -47.142572    132136.47   -40856.678    2588.3021    -43444.98    64.555999 
   21800    211.55454   -141.01714    131919.49    -40864.38    2582.9535   -43447.334    64.679367 
   21850    211.52723   -6.7850046    131850.66   -40839.858    2582.6202   -43422.478    64.886048 
   21900    216.01438    49.911257    131929.88   -40835.417    2637.4055   -43472.823    65.146365 
   21950    208.31878    60.522266    131908.96   -40844.337    2543.4469   -43387.784    65.321174 
   22000    210.85392    60.067648    131940.85   -40835.152    2574.3994   -43409.552    65.669764 
   22050    212.67099    81.278686    131937.91   -40802.238    2596.5848   -43398.823    66.013617 
   22100    208.38259   -41.740673    131899.14   -40850.486    2544.2259   -43394.711    66.127265 
   22150    208.06384   -22.953032    131784.72   -40797.495    2540.3343    -43337.83    66.378056 
   22200    212.02899    157.31083    131789.52   -40796.286    2588.7463   -43385.033    66.685935 
   22250    214.04616    136.93395    131922.25    -40792.83    2613.3747   -43406.205     66.82193 
   22300    216.22399   -30.899453    132027.56   -40793.214    2639.9648   -43433.178    67.003627 
   22350    212.99472   -34.639874    131976.86   -40801.782    2600.5373   -43402.319    66.752829 
   22400    215.24764   -23.159843    131992.35   -40831.573    2628.0441   -43459.617     67.00229 
   22450    207.99035   -42.000771    132012.62   -40858.107     2539.437   -43397.544     67.25569 
   22500    214.60257    109.58522    131985.83   -40789.565    2620.1682   -43409.733    67.289238 
   22550    210.74412   -35.953218    132002.16   -40802.284    2573.0588   -43375.343    67.289422 
   22600    212.35465    90.502615    132018.62    -40804.92    2592.7225   -43397.642    67.397591 
   22650    207.92123    107.42185    132198.78   -40790.688    2538.5931   -43329.281    67.514681 
   22700    215.79462    242.03671    132192.16    -40738.56    2634.7223   -43373.283    67.605779 
   22750     212.5724   -136.84376    132284.03   -40834.034     2595.381   -43429.415    67.769296 
   22800     209.4135   -11.646918    132182.61   -40874.505    2556.8127   -43431.317    67.698818 
   22850    210.87047   -187.16769    131973.13   -40838.255    2574.6015   -43412.857    67.780232 
   22900     215.1756   -26.504548    131841.54   -40810.409    2627.1645   -43437.573    67.607185 
   22950    215.39782    95.944391    131911.92   -40782.566    2629.8777   -43412.444    67.668339 
   23000    216.85494    141.32757    132061.15   -40732.197    2647.6683   -43379.866    67.805111 
   23050     217.2321   -27.097216    132224.08   -40690.341    2652.2731   -43342.614    68.136519 
   23100    217.90745   -128.23758     132267.8   -40681.417    2660.5188   -43341.935    68.393738 
   23150    217.79961   0.74927747    132204.11   -40693.898    2659.2021     -43353.1    68.534029 
   23200    213.97782    51.958283    132287.21   -40707.202    2612.5403   -43319.742    68.648218 
   23250    219.18375   -78.634585    132184.74   -40698.143    2676.1016   -43374.245    68.571012 
   23300    216.64683   -58.420039    132353.14   -40735.455    2645.1274   -43380.582    68.677727 
   23350     210.5543    7.1255108    132204.48   -40781.696    2570.7412   -43352.437    68.625675 
   23400    215.63827    -114.8563    132156.59   -40778.325    2632.8134   -43411.138    68.673341 
   23450    214.11629    174.87036    132160.98    -40756.19     2614.231   -43370.421    69.058036 
   23500    215.88074    76.129856    132200.19   -40778.302    2635.7739   -43414.076    69.224487 
   23550    215.71487     45.50101    132163.62   -40769.055    2633.7487   -43402.804    69.566197 
   23600    215.73646    4.4279222    132210.61   -40772.237    2634.0122   -43406.249    69.676886 
   23650     212.4028  -0.59820427     132165.3   -40791.154    2593.3103   -43384.464    69.609976 
   23700    216.07751   -70.300259    132172.53   -40798.403    2638.1763   -43436.579    69.685504 
   23750    216.61439   -173.88561    132281.07   -40790.479    2644.7313    -43435.21    69.673529 
   23800    217.56651    183.05632    132314.26   -40775.476    2656.3561   -43431.832    69.664541 
   23850    216.98503   -4.8661858    132515.43   -40776.367    2649.2565   -43425.624    69.936542 
   23900    211.92453   -118.07319    132368.93   -40811.077     2587.471   -43398.548     69.97225 
   23950    214.65975   -185.49642    132187.57   -40820.568    2620.8663   -43441.434    70.400873 
   24000    213.74788   -45.409397    132117.45    -40811.12    2609.7329   -43420.853    70.559598 
   24050    211.82768    58.036506    132113.93    -40827.94    2586.2884   -43414.229    70.758302 
   24100    214.30624    47.980539    132099.49   -40804.517    2616.5501   -43421.067    71.002101 
   24150     214.4923   -96.729461    132051.38   -40857.404    2618.8218   -43476.226    71.134354 
   24200     208.1304   -128.20395     132030.6   -40878.511    2541.1469   -43419.658    71.217295 
   24250    215.03727    3.2826473    131978.89   -40868.467    2625.4756   -43493.942    71.046802 
   24300    211.88539    111.67835    132079.66   -40873.383     2586.993   -43460.376    71.088632 
   24350    215.53238     55.40452    132132.33   -40909.105    2631.5206   -43540.625    71.212255 
   24400    209.97947   -77.242972    132150.51   -40927.322    2563.7229   -43491.045    71.378998 
   24450    210.79301    -14.15202    132171.91   -40937.919    2573.6558   -43511.575    71.421401 
   24500    212.49341   -24.394349    132167.23   -40950.744    2594.4166    -43545.16    71.641745 
   24550    209.20308   -35.503422    132087.48   -40961.636    2554.2436   -43515.879    71.717567 
   24600    209.23955    86.238306    132121.32   -40920.451    2554.6889    -43475.14    72.021653 
   24650    212.50761    194.78005    132272.11   -40888.227    2594.5899   -43482.817     71.97688 
   24700    211.90014    -153.0146       132209    -40894.69    2587.1731   -43481.863    72.062847 
   24750    211.59009   -23.190343    132320.74   -40863.422    2583.3876    -43446.81    72.450828 
   24800    211.87915   -7.8279726    132302.77   -40896.816    2586.9169   -43483.733    72.501331 
   24850    213.91166   -22.075109    132379.75   -40869.163    2611.7326   -43480.896    72.788734 
   24900    215.58622    120.38082    132442.85   -40831.849    2632.1779   -43464.027     72.78035 
   24950    211.27656   -107.73034    132348.42   -40829.008    2579.5595   -43408.568    72.937004 
   25000    216.99346   -109.66583     132270.2   -40835.768    2649.3595   -43485.127    73.021752 
   25050    216.54027    11.026619    132113.95   -40820.128    2643.8263   -43463.955    72.747957 
   25100    214.70323    33.466683    132271.92   -40838.881    2621.3972   -43460.278    72.980502 
   25150    213.93096   -93.140213    132179.72   -40817.828    2611.9682   -43429.796    73.004018 
   25200    217.76604    -61.39426    132230.34    -40784.37    2658.7923   -43443.162    73.243409 
   25250    211.87006    6.4558844    132031.99   -40811.114    2586.8058    -43397.92    73.219165 
   25300    214.91551    68.713253    132136.84   -40801.416     2623.989   -43425.405    73.229437 
   25350    218.65295    -162.1654    132261.59   -40781.935    2669.6208   -43451.556     73.38586 
   25400    216.39516    43.386836    132177.37   -40779.243    2642.0546   -43421.298    73.565681 
   25450    210.82605     69.72142    132217.75   -40797.911    2574.0592    -43371.97     73.52543 
   25500    218.53829   -34.987229    132201.13   -40718.879     2668.221     -43387.1     73.61749 
   25550    220.19433    4.4645768    132237.54   -40773.142    2688.4402   -43461.582    73.663108 
   25600    219.28418    28.828985    132407.56   -40760.169    2677.3279   -43437.497    73.872173 
   25650    217.67732    41.652088    132527.62   -40727.811     2657.709    -43385.52     74.04135 
   25700    214.76994   -75.457786    132394.65   -40709.165    2622.2116   -43331.377    74.140301 
   25750    218.65254   -76.598198     132461.7    -40674.42    2669.6158   -43344.036    74.273051 
   25800    215.92147   -76.730487    132426.09   -40656.185    2636.2711   -43292.456    74.432712 
   25850    220.13694   -274.18381    132279.39   -40658.857    2687.7395   -43346.597    74.569127 
   25900    218.08918    5.6511303    132001.62   -40700.674    2662.7376   -43363.412    74.760361 
   25950    213.79582    129.36777    132025.77   -40734.146    2610.3183   -43344.464    74.919229 
   26000    219.25704    71.093264    132102.14   -40689.173    2676.9964   -43366.169    75.074177 
   26050    217.48382    11.100705    132204.33   -40721.109    2655.3466   -43376.456    75.236966 
   26100    216.83045     97.12471    132244.58   -40710.948    2647.3692   -43358.317    75.438907 
   26150    217.24579    53.451718    132422.35   -40753.827    2652.4403   -43406.268    75.791915 
   26200    216.48075    120.21661    132619.08   -40746.709    2643.0996   -43389.808    76.192712 
   26250     218.1152   -67.837744    132529.82    -40706.33    2663.0553   -43369.385    76.263804 
   26300    222.02809   -23.801219    132515.62   -40723.326    2710.8294   -43434.156    76.408465 
   26350    222.28762    101.12891    132613.14   -40709.685     2713.998   -43423.683    76.639373 
   26400    219.49496   0.90538688    132651.52   -40724.341    2679.9013   -43404.243    76.734717 
   26450    218.43487   -121.16718    132672.85   -40738.592    2666.9582   -43405.551    76.766021 
   26500    221.20273    39.477366    132562.84   -40712.486    2700.7522   -43413.238    76.947625 
   26550    217.78222    40.344657     132587.9   -40738.347    2658.9898   -43397.337    77.062686 
   26600     218.5376    65.271815    132655.74   -40752.585    2668.2126   -43420.798    77.148418 
   26650    214.90177   -175.75018    132617.92   -40798.474    2623.8212   -43422.295    77.293294 
   26700    214.89569    87.526236    132668.54   -40778.835     2623.747   -43402.582    77.425025 
   26750    215.64877    66.370932    132588.15   -40789.142    2632.9416   -43422.083     77.40972 
   26800    215.02813    78.490604    132668.07   -40805.413    2625.3641   -43430.777    77.551339 
   26850    214.28607   -94.130841    132709.03   -40808.504    2616.3039   -43424.808    77.691108 
   26900    214.63371    -27.80448    132597.38   -40846.337    2620.5484   -43466.886    77.880195 
   26950    213.82215   -140.22572    132517.54   -40918.929    2610.6397   -43529.569    78.047856 
   27000    209.90488   -2.4179722    132473.49   -40894.169    2562.8122   -43456.981    78.138284 
   27050    211.83463    11.793817    132440.48   -40904.926    2586.3733     -43491.3    78.299905 
   27100    214.39616    107.32228    132565.01   -40899.159    2617.6481   -43516.807    78.831647 
   27150    214.52857   -117.24682    132551.78   -40885.597    2619.2647   -43504.862    78.938559 
   27200    212.43832    56.745247    132481.04   -40873.287     2593.744   -43467.031    79.041798 
   27250    212.92869   -15.256673    132359.79   -40887.294    2599.7311   -43487.026    78.986492 
   27300    212.98562    5.6227054    132590.05   -40856.828    2600.4262   -43457.255    79.172943 
   27350    213.05342   -67.749556     132551.3    -40819.74    2601.2539   -43420.994     79.29975 
   27400    214.33822   -59.371279    132489.94   -40814.958    2616.9406   -43431.899    79.383377 
   27450    217.24166   -57.163782    132475.57   -40800.598    2652.3899   -43452.988    79.298521 
   27500     217.5138     118.4329     132452.6   -40786.005    2655.7125   -43441.718    79.421996 
   27550    212.53229    15.942209    132539.99   -40832.584    2594.8913   -43427.475    79.541214 
   27600    209.55395    95.916653    132495.47   -40854.953    2558.5276   -43413.481    79.765024 
   27650    212.72865    5.3361212    132516.72   -40841.196    2597.2888   -43438.485    79.878916 
   27700    216.82777    -51.23326    132476.41    -40796.65    2647.3365   -43443.987    79.854846 
   27750    216.35547    46.313004    132541.76   -40755.852      2641.57   -43397.422    79.848087 
   27800    216.18244   -22.552484    132534.06   -40747.074    2639.4574   -43386.531    79.949758 
   27850    214.64035   -60.509149    132444.99    -40778.59    2620.6295    -43399.22    80.199002 
   27900    214.87139   -34.441736    132313.62   -40779.573    2623.4503   -43403.023    80.337085 
   27950    213.78223   -71.307188    132195.41   -40815.374    2610.1523   -43425.527     80.35995 
   28000    217.08524    98.511016    132167.47   -40763.342      2650.48   -43413.822    80.456453 
   28050    213.81941   -18.814548    131985.69   -40744.015    2610.6063   -43354.621    80.402399 
   28100    210.22578   -63.446079    131876.69   -40842.589    2566.7302   -43409.319    80.229854 
   28150    213.74763    75.026523    131862.17     -40813.9    2609.7299    -43423.63    80.470573 
   28200    214.67199   -87.063407    131829.84   -40806.048    2621.0157   -43427.064    80.685567 
   28250    211.50311    19.577658    131589.54   -40820.054    2582.3257   -43402.379    80.687477 
   28300    211.06031    130.26144    131618.57   -40791.552    2576.9193   -43368.471    80.780407 
   28350    214.22673   -78.434254    131726.46   -40809.736    2615.5794   -43425.315    80.801575 
   28400    215.09887     181.8895    131709.47   -40783.545    2626.2276   -43409.773    80.808029 
   28450    212.98998    -95.74766    131645.23   -40771.529    2600.4794   -43372.008    80.876572 
   28500    216.49287    124.11094    131678.52   -40715.033    2643.2476   -43358.281    81.148592 
   28550    217.02947   -45.903146    131670.53   -40686.234    2649.7992   -43336.033     81.37311 
   28600    213.49415    89.042213     131600.5   -40740.446     2606.635   -43347.081    81.725422 
   28650     217.4419    88.660304    131764.81   -40734.214    2654.8347   -43389.049    82.111371 
   28700    218.37436    106.05648    131883.99   -40754.687    2666.2194   -43420.906    82.353221 
   28750     216.6039   -152.25783    131914.43   -40747.605    2644.6033   -43392.209    82.450948 
   28800    214.86395    16.479595    131878.36   -40757.636    2623.3595   -43380.996    82.672697 
   28850    218.82223    83.801797    131891.01   -40783.249    2671.6877   -43454.937    82.735928 
   28900    216.53162   -141.45679     132015.3   -40826.437    2643.7207   -43470.158    82.967076 
   28950    211.94987   -52.005025     131863.1   -40893.377    2587.7803   -43481.157    83.024438 
   29000     212.8123   -107.19456       131934   -40907.766    2598.3101   -43506.076    83.350261 
   29050    209.12638    127.46492    132011.84   -40859.618    2553.3072   -43412.925    83.369947 
   29100    217.14712    47.934359    132040.74   -40791.411    2651.2356   -43442.647    83.610079 
   29150    214.01661    -82.52812     131943.4   -40832.516    2613.0139    -43445.53    83.816001 
   29200    212.42626   -98.763035    131952.19   -40852.185    2593.5968   -43445.782    83.923735 
   29250    208.70448    46.596646       131937   -40847.501    2548.1561   -43395.657    84.182123 
   29300    217.91503   -55.794429    132060.03   -40830.753    2660.6113   -43491.364    84.449532 
   29350    213.63373     1.158092    132099.87   -40766.552    2608.3392   -43374.891    84.594818 
   29400    213.27642   -11.834482    132119.21   -40756.108    2603.9767   -43360.085    84.653055 
   29450    217.73572    84.814244    132182.74   -40773.872     2658.422   -43432.294    84.810246 
   29500    214.50698   -8.1055008    132230.05   -40794.396    2619.0011   -43413.397    84.963269 
   29550    212.37992    -11.06121    132196.69   -40853.918    2593.0309   -43446.949    85.121509 
   29600    213.61126   -96.657566    132127.25    -40843.44    2608.0649   -43451.505    85.194983 
   29650    214.39807    86.479829    132133.24   -40814.508    2617.6714   -43432.179    85.314566 
   29700    212.22659    80.958511     132227.6   -40805.687    2591.1589   -43396.846    85.490432 
   29750    216.10318    1.2504102    132119.02   -40748.394    2638.4897   -43386.884    85.502533 
   29800    214.34524    199.53537    132326.63   -40719.946    2617.0264   -43336.973    85.620252 
   29850    223.19229   -22.668993    132366.87    -40723.61    2725.0435   -43448.654     85.92114 
   29900    213.79424    21.666422    132300.99    -40731.31     2610.299   -43341.609    85.986931 
   29950    217.69776   -61.317638    132337.03   -40725.272    2657.9586    -43383.23    85.975628 
   30000    219.98435   -85.890734    132210.46    -40703.44    2685.8764   -43389.316    85.964521 
   30050    219.61116    66.236695    132287.98   -40706.739    2681.3201   -43388.059    86.293164 
   30100    217.85347   -72.930682    132252.18     -40726.6    2659.8598   -43386.459    86.860962 
   30150    216.10863    37.217066    132280.15    -40702.86    2638.5563   -43341.417    87.330432 
   30200    212.16664    -92.41305    132184.67    -40749.05     2590.427   -43339.477    87.496788 
   30250    213.99912    10.818935    132078.31   -40695.647    2612.8005   -43308.447    87.749793 
   30300    216.31437    78.680427    131952.12   -40713.707    2641.0682   -43354.776    87.996969 
   30350    217.65753    13.492999    132046.18   -40739.639    2657.4674   -43397.106     88.42084 
   30400    218.06222    130.91009    132120.05   -40761.365    2662.4084   -43423.774    88.703403 
   30450    215.88739   -121.96867    132165.77   -40769.581     2635.855   -43405.436    88.827361 
   30500    213.84471    99.573689    132219.24   -40775.578    2610.9152   -43386.493    89.027583 
   30550    217.33652   -146.78503    132206.27   -40772.925    2653.5481   -43426.473    89.020865 
   30600    208.53314    22.731827    132165.45   -40839.254    2546.0641   -43385.318    89.056288 
   30650    217.63231    11.730602    132191.81   -40816.044    2657.1594   -43473.203    89.163336 
   30700    212.50303   -144.25673     132087.1     -40826.8    2594.5341   -43421.334    89.232149 
   30750    212.02011    101.05548    132066.26   -40830.962    2588.6379     -43419.6    89.339575 
   30800     219.4404   -9.2496733    132031.48   -40791.886    2679.2352   -43471.122    89.512312 
   30850    216.03373   -32.867072    131993.08   -40788.897    2637.6418   -43426.538    89.808676 
   30900    218.44023    22.350563    132082.48   -40805.425    2667.0236   -43472.448    90.321507 
   30950    213.92163   -51.575848    132117.74   -40840.096    2611.8543   -43451.951    90.430544 
   31000     212.5298    20.438425    132185.95    -40809.07    2594.8609   -43403.931    90.453224 
   31050    213.42137   -21.853087    132183.07   -40845.753    2605.7465     -43451.5    90.765756 
   31100    219.55921    19.938484    132192.06   -40815.376    2680.6858   -43496.062    90.825114 
   31150    217.41371   -133.62989    132092.32    -40766.73    2654.4905    -43421.22    90.962054 
   31200    219.11122   -59.924986    132198.17   -40762.409    2675.2161   -43437.625    91.401478 
   31250    218.40807   -23.782315    132139.37   -40710.958    2666.6311   -43377.589    91.499442 
   31300    218.17858   -85.239697    132176.45   -40719.866    2663.8291   -43383.695    91.442253 
   31350    215.93513    31.276825    132222.02   -40674.784    2636.4379   -43311.222    91.490939 
   31400    220.84456    50.896057    132274.54   -40670.699    2696.3791   -43367.078    91.712123 
   31450    216.92328    104.89608    132377.61   -40711.016    2648.5026   -43359.518    91.947253 
   31500    217.61261     96.84821    132323.93   -40694.343    2656.9189   -43351.262    91.999854 
   31550    214.13512   -67.382054     132384.2   -40692.132    2614.4609   -43306.593     92.15289 
   31600    217.03516    55.547781    132423.01    -40681.31    2649.8687   -43331.178     92.28533 
   31650    217.99834   -46.607631    132545.62   -40650.663    2661.6285   -43312.291    92.591382 
   31700    218.84774   -35.160843    132456.17     -40664.5    2671.9992   -43336.499    92.901373 
   31750    214.90256   -106.82628    132354.72   -40654.903    2623.8308   -43278.733    93.052107 
   31800     217.9462    53.399461    132484.91   -40665.166    2660.9919   -43326.158     93.10023 
   31850     215.3271    94.860302    132589.57   -40663.672    2629.0143   -43292.686    93.345725 
   31900    212.43738    40.915062    132673.88   -40650.252    2593.7325   -43243.984    93.598661 
   31950    219.66158    -10.40711    132673.18   -40647.147    2681.9356   -43329.082    93.741112 
   32000    216.15895   -80.678631    132634.68   -40645.223    2639.1707   -43284.394    94.210854 
   32050    218.34344    43.848537    132571.54   -40609.329     2665.842   -43275.171     94.29238 
   32100    216.08614   -81.514062    132494.02   -40627.521    2638.2817   -43265.803    94.530361 
   32150    216.34579   -3.8133376    132374.73   -40652.739    2641.4518   -43294.191    94.683512 
   32200    216.19895   -27.217007    132403.55   -40694.436     2639.659   -43334.095    95.061615 
   32250    213.98421   -78.365312    132317.24   -40686.383    2612.6184   -43299.001    95.086349 
   32300    215.04393    8.6840722    132282.44    -40664.34    2625.5569   -43289.897    95.261946 
   32350    221.17434   -1.0362079    132222.99   -40634.242    2700.4055   -43334.647    95.348493 
   32400    217.68259   -38.935315    132247.34    -40681.11    2657.7733   -43338.883    95.441854 
   32450    220.15162   -10.932874    132340.42   -40640.596    2687.9187   -43328.515    95.624068 
   32500    214.12634    3.2811525    132276.68   -40709.045    2614.3536   -43323.398    95.920958 
   32550    218.75123   -64.723993    132330.97   -40659.024    2670.8208   -43329.845    96.071135 
   32600    218.36409   -135.94219    132244.27   -40700.887     2666.094   -43366.981    96.134491 
   32650    208.49684    6.8183027    132079.67   -40743.424    2545.6209   -43289.045    96.272908 
   32700    215.97683    111.78996    132180.13   -40697.257     2636.947   -43334.204    96.540471 
   32750    217.88642   -56.446575    132199.86   -40684.882    2660.2621   -43345.144    96.501082 
   32800      218.494    87.861051    132239.37   -40706.989    2667.6802   -43374.669    96.628674 
   32850    215.76532    3.8359509    132255.93    -40694.89    2634.3647   -43329.255    96.876446 
   32900    218.92378   -125.33571    132197.46   -40669.175    2672.9275   -43342.103    96.779857 
   32950    213.22822   -221.76777    132071.33   -40668.727    2603.3882   -43272.115    96.639963 
   33000    214.00683  -0.26678812     132013.6   -40661.288    2612.8946   -43274.182    96.803293 
   33050    217.80916   -31.487838    132053.85    -40672.21    2659.3187   -43331.528    96.716663 
   33100    213.59488    30.560347    131964.44   -40728.302    2607.8649   -43336.167    96.568317 
   33150    214.59317     148.4962    132070.68   -40742.434    2620.0534   -43362.488    96.864466 
   33200    216.10352     113.0327    132084.06   -40736.395    2638.4939   -43374.889    96.751764 
   33250    218.54347   -103.33245    131962.81   -40744.036    2668.2842    -43412.32    96.763531 
   33300    214.05228   -154.25304     131830.5   -40779.211    2613.4495    -43392.66    96.990469 
   33350    212.69198   -93.741716     131707.6   -40738.186    2596.8411   -43335.027    97.163604 
   33400    218.13491    116.57998    131861.16   -40726.787    2663.2959   -43390.083    97.197264 
   33450    214.18111    58.350567    131770.15   -40700.115    2615.0224   -43315.137    97.246165 
   33500     218.0629   -133.81309    131729.67   -40731.324    2662.4168    -43393.74    97.257225 
   33550    215.26215    6.6232369    131825.66   -40716.551    2628.2212   -43344.773    97.501018 
   33600    217.96639   -87.812873    131855.34   -40693.855    2661.2384   -43355.093    97.770335 
   33650    213.48685   -47.969253    131753.16   -40714.535    2606.5459    -43321.08    98.139271 
   33700    215.70881     16.38126    131655.47   -40756.859    2633.6747   -43390.533    98.306321 
   33750    215.27297    -70.42168    131552.13   -40768.483    2628.3534   -43396.836     98.47861 
   33800    213.16284   -11.685842    131638.18    -40808.73    2602.5899    -43411.32    98.652729 
   33850    212.50716    125.81452    131675.56   -40751.852    2594.5845   -43346.437    98.993749 
   33900    212.52472   -61.815396    131756.46   -40778.335    2594.7989   -43373.134    98.857862 
   33950    212.93462    74.509151    131637.04   -40764.013    2599.8035   -43363.816    98.691069 
   34000    214.82876    26.580793    131753.09   -40808.698    2622.9298   -43431.628     98.68547 
   34050    212.14354    51.519014    131694.64   -40825.196    2590.1449   -43415.341    98.703492 
   34100    213.58354   -17.382826    131633.13   -40853.631    2607.7265   -43461.357    98.615723 
   34150    214.77106   -16.499622    131561.81   -40827.299    2622.2253   -43449.524    98.635865 
   34200    211.00489    10.462719    131616.37    -40842.37    2576.2427   -43418.613    98.923062 
   34250    215.72125   -216.64582    131485.97   -40823.847    2633.8266   -43457.673    99.052005 
   34300    212.09203    35.492388    131427.93   -40785.367     2589.516   -43374.883    99.153293 
   34350    218.56363    193.97744    131618.42   -40751.314    2668.5303   -43419.844    99.381636 
   34400    215.47498    84.426473    131751.85   -40720.358    2630.8198   -43351.178    99.417406 
   34450    214.75021   -98.113465    131755.07   -40730.704    2621.9708   -43352.675    99.407264 
   34500    216.79626   -9.2004009    131700.35    -40717.21    2646.9518   -43364.161    99.619698 
   34550    216.58467    78.845451    131626.42   -40683.415    2644.3684   -43327.783    99.372856 
   34600    217.75879    -173.2774    131650.89   -40706.244    2658.7038   -43364.948    99.421486 
   34650    223.40971   -93.723891    131478.14   -40725.272     2727.698    -43452.97    99.398158 
   34700    212.76611   -186.22328    131473.24   -40758.094    2597.7461    -43355.84    99.609233 
   34750    216.76806   -24.150823    131358.84   -40779.013    2646.6075   -43425.621    99.680148 
   34800    218.23094    67.961171    131393.51   -40782.225    2664.4683   -43446.694    99.905524 
   34850    218.02183    67.045576    131560.64   -40780.505    2661.9153   -43442.421    100.06259 
   34900    214.27009   -81.111456    131553.73    -40817.01    2616.1089   -43433.119    99.987091 
   34950    212.50122    179.40345    131538.28   -40875.251    2594.5119   -43469.762      100.072 
   35000    214.02847   -13.957213    131626.05   -40904.646    2613.1587   -43517.804    100.24748 
   35050    214.52355   -50.941171    131622.99   -40928.175    2619.2034   -43547.379    99.895723 
   35100    215.34123   -10.176756     131794.9   -40912.063    2629.1867    -43541.25    100.29151 
   35150    213.91727     76.70708    131830.52   -40918.099    2611.8011     -43529.9    100.22524 
   35200    213.78734   -129.13734     131782.5   -40914.347    2610.2147   -43524.561    100.32101 
   35250    214.50604    129.53465    131837.62   -40876.319    2618.9896   -43495.309    100.66984 
   35300    211.94471   -58.643198    131727.32   -40902.388    2587.7173   -43490.105    100.57676 
   35350    209.47818    109.45099    131812.54   -40862.808    2557.6025   -43420.411    100.75316 
   35400    210.88275   -48.879357    131708.58   -40890.867    2574.7514   -43465.619    101.00987 
   35450    213.08809    137.41594     131794.5   -40858.129    2601.6773   -43459.807     101.0839 
   35500    216.38513    23.865875    132020.13   -40839.975    2641.9321   -43481.907    101.35602 
   35550    212.10239    272.28752    132110.59   -40805.688    2589.6425   -43395.331    101.41873 
   35600    218.12005    26.809748    132290.31   -40768.534    2663.1145   -43431.649    101.80289 
   35650    213.00539   -73.941685    132267.35    -40797.69    2600.6676   -43398.357    101.85922 
   35700    215.86225    70.687527    132216.14   -40826.112    2635.5481    -43461.66    102.14494 
   35750    211.38389   -108.78163    132241.35   -40861.094    2580.8701   -43441.964    102.09542 
   35800    211.40617    33.758189    132164.08   -40822.301     2581.142   -43403.443    102.11652 
   35850    209.35097    77.395044    132177.82   -40854.917    2556.0494   -43410.966    102.39154 
   35900    215.38468   -85.930889    132072.59   -40870.359    2629.7173   -43500.076    102.58505 
   35950    215.37037   -156.04318    132090.06   -40864.648    2629.5425   -43494.191    102.67078 
   36000    214.32581     135.1738    132096.74   -40769.053    2616.7891   -43385.842     102.9527 
   36050    215.91023    40.911126    132088.77   -40737.588    2636.1339   -43373.722    103.08189 
   36100    215.60352  -0.74899912    132218.11   -40735.491    2632.3892    -43367.88    103.34117 
   36150    216.33279    3.6685031    132141.99   -40685.162    2641.2931   -43326.455    103.51945 
   36200    217.16202    12.596323     132058.3   -40654.772    2651.4175    -43306.19    103.78332 
   36250    219.44892    -1.473097    132037.75   -40622.429    2679.3392   -43301.768    103.94031 
   36300    219.59677   -47.297813    132110.13   -40657.051    2681.1443   -43338.195    104.19958 
   36350    215.20722   -97.554971       131995   -40715.184    2627.5506   -43342.734    104.40197 
   36400    217.37281   -29.970523    131806.08   -40734.696    2653.9912   -43388.687    104.29658 
   36450     214.6805     123.3272    131888.69   -40752.809    2621.1197   -43373.928    104.40636 
   36500    211.69539    7.6658739    131954.19   -40795.491    2584.6732   -43380.165    104.57198 
   36550    214.91055    117.29548    131977.85   -40820.224    2623.9285   -43444.153    104.84566 
   36600    211.42153   -92.409051    131912.32   -40801.926    2581.3295   -43383.255    104.96567 
   36650    212.54445   0.73053824    131776.93   -40840.839    2595.0397   -43435.879    105.00351 
   36700    211.81017    70.641615    131710.79   -40777.516    2586.0747   -43363.591    105.19998 
   36750    210.42659    25.875301    131808.57   -40771.345    2569.1819   -43340.527    105.35662 
   36800    213.16312   -29.200798       131733   -40768.538    2602.5933   -43371.131    105.53961 
   36850    215.73633   -9.7434992    131675.89   -40759.708    2634.0107   -43393.719       105.48 
   36900    215.30652   -77.813204    131570.44   -40728.876     2628.763   -43357.639    105.62741 
   36950    213.31319   -126.95418    131502.49   -40732.043    2604.4256   -43336.469    105.79551 
   37000    221.17567   -51.767587    131487.37   -40671.019    2700.4218    -43371.44     105.9781 
   37050    216.72392   -1.0221408    131534.36   -40664.138    2646.0686   -43310.206    105.99083 
   37100    217.65548   -41.223481    131517.06   -40672.052    2657.4424   -43329.495    106.05825 
   37150    213.09491   -49.068981    131652.38   -40687.908    2601.7606   -43289.669    106.10706 
   37200    212.71003   -218.61305    131547.91   -40714.827    2597.0614   -43311.889     106.3253 
   37250    211.33734    121.62919    131409.76   -40707.994    2580.3017   -43288.296    106.43403 
   37300    215.50937    21.660086    131506.78   -40715.391    2631.2397   -43346.631    106.55661 
[...]
  191000    213.24681   -70.660326    132058.58   -40946.893    2603.6152   -43550.508    550.05867 
  191050    211.35061    128.68805    132098.33   -40900.711    2580.4637   -43481.175    550.09579 
  191100    216.67502   -20.863675     132039.3   -40921.219    2645.4715    -43566.69    549.57993 
  191150    211.38412   -43.004188    132133.87   -40944.964    2580.8728   -43525.836    550.03489 
  191200    211.20938    30.690116     132104.5   -40958.711    2578.7394    -43537.45    550.10229 
  191250    214.71278   -106.79855    132113.89   -40933.687    2621.5137     -43555.2    550.49935 
  191300    211.43487    32.157076    132004.72   -40883.304    2581.4925   -43464.796    550.16045 
  191350    215.51474    59.539531    131972.86   -40859.253    2631.3052   -43490.559    550.46497 
  191400    212.69032   -13.003435    131997.78   -40857.494    2596.8208   -43454.315    550.94307 
  191450    211.17424    67.231673    131918.13   -40922.666    2578.3104   -43500.977    550.88481 
  191500     209.5896   -40.165267    131967.49   -40915.525    2558.9628   -43474.487    551.24814 
  191550    207.40496    89.178892    132008.28   -40904.312    2532.2897   -43436.602    550.97112 
  191600    213.14466   -55.517769    131929.28   -40915.943    2602.3679   -43518.311     551.3579 
  191650    209.26215    57.425191    131979.81   -40888.752    2554.9649   -43443.717    552.05118 
  191700    213.11592    57.072199    132215.16    -40873.06    2602.0171   -43475.078    552.83556 
  191750     216.3128    -27.16387    132191.34   -40869.605    2641.0491   -43510.654    552.14906 
  191800    214.32595    113.92762    132154.84   -40840.635    2616.7908   -43457.426    552.39414 
  191850    215.17819   -113.56743     132359.1   -40797.964    2627.1961    -43425.16    552.92133 
  191900    214.43616    78.953921     132231.4   -40834.141    2618.1364   -43452.278    552.66405 
  191950    214.49147    52.828641    132218.45   -40831.843    2618.8117   -43450.654    552.66886 
  192000    216.84284  -0.22632446    132222.49   -40795.995    2647.5205   -43443.516    553.22738 
  192050     214.2507 -0.015602222     132282.9   -40799.237     2615.872   -43415.109    553.32736 
  192100    215.25198   -154.94238    132199.49   -40775.824    2628.0971   -43403.921     553.6409 
  192150    212.54937    2.7095295    132261.09   -40781.863    2595.0999   -43376.963    553.92514 
  192200    213.26664   -123.51375    132202.31   -40786.742    2603.8573   -43390.599     553.9493 
  192250    215.85419    113.75916    132072.83   -40765.513    2635.4497   -43400.963    553.80548 
  192300    215.66048     63.46059     132188.1   -40722.659    2633.0846   -43355.743    554.38048 
  192350    220.09297    81.373864    132240.04   -40716.837    2687.2026    -43404.04    553.83773 
  192400    221.16888     28.57893    132143.73   -40707.302    2700.3388    -43407.64    554.00533 
  192450    214.37759   -5.3985352    132271.18   -40767.194    2617.4213   -43384.616    555.01322 
  192500    220.12538    124.57055     132357.6   -40751.189    2687.5984   -43438.788    555.30625 
  192550    217.11288   -2.4754385    132442.11   -40719.921    2650.8175   -43370.738    555.41551 
  192600    218.76405    67.276924    132547.48   -40665.478    2670.9774   -43336.456    555.96719 
  192650     219.5095   -33.762228    132499.92   -40684.931    2680.0788    -43365.01    556.01235 
  192700    214.27525   -143.24966    132288.27    -40719.22    2616.1718   -43335.391    555.28642 
  192750    218.06117    1.8210059    132190.59   -40698.515    2662.3956   -43360.911    555.16306 
  192800    219.03991   -71.202842     132291.9   -40734.957    2674.3454   -43409.303    555.68301 
  192850    218.97464    57.886078    132236.26   -40704.875    2673.5485   -43378.423    555.56041 
  192900    216.17108    101.85234    132274.87   -40669.368    2639.3188   -43308.687    555.43764 
  192950    216.07455   -118.61434    132346.78   -40724.152    2638.1402   -43362.292    555.68518 
  193000    217.57291    250.36853    132323.18   -40723.768    2656.4343   -43380.202     555.9529 
  193050    218.89713   -175.24335    132414.24   -40742.658    2672.6021    -43415.26    556.34325 
  193100    217.12876   -92.990274     132360.5   -40732.232    2651.0115   -43383.244    556.03428 
  193150    216.09892    11.458478     132383.6   -40690.224    2638.4377   -43328.661    556.27842 
  193200    217.34964   -60.034871    132398.09   -40678.927    2653.7082   -43332.635     555.9227 
  193250     220.5067     15.20577    132467.89   -40682.199    2692.2541   -43374.453    556.29185 
  193300     215.3753   -26.518816    132367.62   -40723.126    2629.6027   -43352.729     556.0063 
  193350    218.35589   -159.62987    132275.73   -40684.014    2665.9939   -43350.007    555.78923 
  193400    220.03392   -114.41613    132256.38   -40688.189    2686.4817    -43374.67    556.64069 
  193450    212.88338    60.824612    132327.92   -40661.113    2599.1779   -43260.291    557.33553 
  193500    219.62464    80.954564    132311.69   -40624.375    2681.4846   -43305.859    557.46102 
  193550    220.07091   -93.940691    132356.12   -40642.998    2686.9333   -43329.932    557.07575 
  193600    218.81218   -34.897441    132452.76   -40614.933     2671.565   -43286.498    557.13267 
  193650    217.95275    57.585746    132528.22   -40620.351    2661.0719   -43281.422    557.65254 
  193700    220.42367   -210.52351    132410.32   -40640.676    2691.2403   -43331.917    557.93834 
  193750    221.90708    130.54409    132253.81   -40653.432    2709.3518   -43362.784    558.04187 
  193800    217.80726    11.064571    132229.72   -40669.833    2659.2955   -43329.129    557.69285 
  193850    216.04685    168.94551     132339.6   -40700.567     2637.802   -43338.369    558.29809 
  193900    220.74642   -56.628902    132268.01    -40683.18    2695.1809   -43378.361     558.6194 
  193950    216.91824   -93.057509     132172.4   -40735.663    2648.4411   -43384.104    558.53232 
  194000    216.18073    7.6688928    132276.94   -40694.398    2639.4366   -43333.834    559.09992 
  194050    216.80699    8.7223367    132313.14   -40690.664    2647.0828   -43337.747    559.62106 
  194100    215.18445   -23.704865    132254.35   -40747.666    2627.2726   -43374.939     559.5739 
  194150    217.62945   -35.376936    132214.54   -40789.136    2657.1246   -43446.261    559.82066 
  194200    214.48324    115.62759    132258.51   -40793.315    2618.7112   -43412.026    559.93135 
  194250    209.65355    9.8773037    132405.55    -40790.23    2559.7436   -43349.974    560.95653 
  194300    218.20564    -65.04166    132416.07   -40735.218    2664.1595   -43399.378    560.46834 
  194350    216.73361    94.555765    132326.54     -40751.3    2646.1869   -43397.487    560.52831 
  194400    213.74467    54.416879    132339.16   -40756.005    2609.6937   -43365.699    560.63895 
  194450    216.58245    35.589674    132459.75   -40782.653    2644.3413   -43426.995    561.19343 
  194500    215.59899    19.517516    132492.48   -40751.747    2632.3339   -43384.081    561.64978 
  194550    215.58745    94.253905     132496.7   -40744.039     2632.193   -43376.232    561.79487 
  194600    217.06458   -139.25468    132499.55   -40812.147    2650.2278   -43462.375    562.15506 
  194650    216.38011    139.47011    132506.37   -40824.446    2641.8709   -43466.317    561.81342 
  194700    217.36129   -112.16539    132761.98     -40793.6    2653.8505    -43447.45    562.65888 
  194750    216.73429    -84.90568    132721.68   -40822.204    2646.1952   -43468.399    562.64485 
  194800    218.21526     51.11035    132724.76       -40814    2664.2769   -43478.277    563.39528 
  194850    209.97535    59.232437    132818.52   -40806.534    2563.6726   -43370.207    563.36362 
  194900    212.21371   -93.808846    132711.81   -40814.497    2591.0017   -43405.498     563.3143 
  194950    212.87363     87.57328    132681.73   -40833.134    2599.0588   -43432.193    563.63185 
  195000    217.32637    24.347541    132780.17   -40780.255    2653.4241   -43433.679    563.70493 
  195050     214.3871   -12.533438    133006.63   -40794.209    2617.5375   -43411.747     564.4783 
  195100    212.81999   -212.92832    132901.05   -40839.038    2598.4039   -43437.442    564.20244 
  195150     216.2619    104.96744    132912.84   -40792.981    2640.4276   -43433.409    564.05097 
  195200    214.50813   -115.48288     132914.4   -40791.612    2619.0151   -43410.627    563.74003 
  195250     216.2249      -137.25    132754.34   -40780.846    2639.9758   -43420.822    563.24312 
  195300    215.39466   -55.747121    132753.33    -40748.18    2629.8391   -43378.019    563.62457 
  195350    217.04005    2.1359936    132700.75   -40663.643    2649.9284   -43313.572     563.5668 
  195400    218.68605    134.49672    132802.35   -40644.738     2670.025   -43314.763    564.11518 
  195450     215.2033   -89.330182    132852.82   -40660.024    2627.5027   -43287.527    564.44754 
  195500      219.164   -61.707706    132680.27     -40698.2    2675.8605   -43374.061    564.16828 
  195550    218.20511    62.029737    132671.79   -40694.051     2664.153   -43358.204    564.35382 
  195600    218.96311    -68.47573    132789.22   -40698.739    2673.4077   -43372.147    564.35381 
  195650     218.2555   -43.336543    132625.62   -40733.733    2664.7682   -43398.501    563.99712 
  195700    218.29179   -87.487617    132535.94   -40723.819    2665.2113    -43389.03    564.28068 
  195750    214.88587   -193.72581     132366.5   -40750.425    2623.6271   -43374.052    563.06055 
  195800    217.84733    21.961929    132372.07   -40715.999    2659.7847   -43375.784    563.63834 
  195850    219.95589    4.4322819    132379.44   -40702.606     2685.529   -43388.135    563.76142 
  195900    213.61486   -93.268542    132260.66   -40700.754    2608.1088   -43308.863     563.7096 
  195950    217.36307     94.59409    132334.95   -40676.784    2653.8722   -43330.656     564.2854 
  196000    213.52442    122.12206    132400.75   -40665.812    2607.0046   -43272.817    564.24634 
  196050    217.03266   -98.620223    132489.86    -40676.03    2649.8381   -43325.868    564.68078 
  196100    212.26388   -79.235062    132262.48   -40720.241    2591.6141   -43311.855    564.32872 
  196150     216.8632   -25.617174    132195.98   -40673.167    2647.7691   -43320.936    564.05797 
  196200    213.86114    32.097906     132192.7   -40700.025    2611.1157   -43311.141    564.51668 
  196250    215.97977    12.218527    132218.98   -40688.449     2636.983   -43325.432    564.43656 
  196300    217.15053    50.202478    132285.46   -40629.801    2651.2773   -43281.078      564.654 
  196350    217.64261    48.890108    132407.31   -40625.525    2657.2853    -43282.81    565.35694 
  196400    213.63516   -1.3876443     132377.3   -40653.191    2608.3567   -43261.547    565.36038 
  196450    216.60446   -10.769392    132416.98   -40641.245      2644.61   -43285.855    565.53812 
  196500     211.6027    123.75967    132361.03   -40690.766    2583.5416   -43274.307    565.50187 
  196550    216.77281   -34.162766    132300.01   -40712.727    2646.6655   -43359.393    565.13111 
  196600    212.89839   -4.6718524    132231.04    -40737.67    2599.3611   -43337.032    564.82883 
  196650    213.49172    139.68464    132302.86   -40751.793    2606.6054   -43358.398    565.02547 
  196700     214.8617    22.855446    132317.81    -40735.36    2623.3321   -43358.692    565.46041 
  196750    216.14396    55.975065    132236.51    -40734.15    2638.9877   -43373.138    565.03815 
  196800    218.03452    15.828524    132304.87   -40694.391    2662.0702   -43356.461    565.77893 
  196850    218.31597   -42.855698    132318.52   -40649.908    2665.5065   -43315.414    566.27579 
  196900    218.89046   -172.05282    132439.67   -40682.437    2672.5208   -43354.958    566.41836 
  196950    218.65103   -4.8834293    132421.22   -40678.575    2669.5975   -43348.172    565.99197 
  197000    217.93142   -41.572604    132427.67   -40679.801    2660.8114   -43340.613    566.10347 
  197050    219.11181    1.3101109    132525.49   -40675.622    2675.2233   -43350.846    566.80144 
  197100    215.46128   -78.267031     132367.7    -40726.44    2630.6525   -43357.093    566.42167 
  197150    215.80345    16.950095    132260.74   -40750.482    2634.8303   -43385.312    566.33233 
  197200    216.92677    26.940664    132391.12   -40753.788    2648.5453   -43402.334    566.63461 
  197250    220.45816   -20.241279    132508.15   -40740.506    2691.6614   -43432.168    566.79644 
  197300    214.92789   -19.426311    132568.98   -40747.617    2624.1401   -43371.757    566.65347 
  197350    218.90897   -10.457035    132573.29   -40754.138    2672.7467   -43426.885    566.74116 
  197400    215.80291    7.2779883    132592.96   -40760.512    2634.8236   -43395.336    566.86909 
  197450     210.4428    24.489983    132472.47   -40743.741    2569.3799   -43313.121    566.16722 
  197500    213.09194    26.692733    132518.33   -40782.954    2601.7242   -43384.678    566.33449 
  197550    214.24944   -16.974852     132624.2   -40775.752    2615.8566   -43391.608    567.26853 
  197600    213.01946   -62.164956    132488.33   -40798.667    2600.8393   -43399.506    567.65823 
  197650    212.94235    48.157754    132539.19   -40848.357    2599.8979   -43448.255    567.27875 
  197700    215.66817   -36.963682    132554.06    -40847.46    2633.1785   -43480.638     567.4031 
  197750    213.60638    11.706027    132433.16   -40832.493    2608.0052   -43440.499      567.225 
  197800    215.27393    141.63937    132497.65   -40807.659    2628.3651   -43436.024    567.45869 
  197850     213.3533    89.475182    132712.29   -40803.905    2604.9153   -43408.821    568.06917 
  197900    212.41614   -138.39975    132645.48    -40818.66    2593.4731   -43412.133    568.33187 
  197950    216.49827   -22.562905     132435.9   -40855.664    2643.3135   -43498.978    567.76333 
  198000     212.8668    97.574576     132359.8   -40809.312    2598.9755   -43408.288    567.55598 
  198050    213.66123     79.51456    132424.27   -40850.255     2608.675    -43458.93    568.47118 
  198100     212.0983   -143.09381    132474.02   -40827.251    2589.5926   -43416.843    569.42149 
  198150    211.90312    164.53756    132447.42   -40814.494    2587.2095   -43401.703    569.19714 
  198200    212.46534    6.7111581    132435.32   -40858.358    2594.0738   -43452.432    568.88823 
  198250    213.60433   -94.571507    132341.14   -40835.598    2607.9802   -43443.578    568.83355 
  198300    214.96396   -218.72811    132082.85   -40839.779    2624.5806    -43464.36    568.30568 
  198350    214.09542    124.07428    131995.96   -40813.108    2613.9761   -43427.084    568.17591 
  198400    213.09224    162.99434    132175.82   -40815.657    2601.7279   -43417.385    568.04557 
  198450    212.83252    16.240032    132298.13   -40821.536    2598.5569   -43420.093    568.67615 
  198500    213.94657   -20.780166    132348.84   -40812.993    2612.1588   -43425.152    569.65095 
  198550    214.22634   -164.88499    132060.44   -40771.759    2615.5747   -43387.334    568.53568 
  198600    215.97309    24.909156    132025.48    -40812.91    2636.9014   -43449.811    568.54891 
  198650    213.06858    5.9976116    131937.74   -40824.398    2601.4391   -43425.837    568.55344 
  198700    212.86376     21.86346    132098.76   -40785.051    2598.9383   -43383.989    569.25847 
  198750    212.89295    61.686539     132210.8   -40784.952    2599.2948   -43384.247    569.98938 
  198800    213.49378   -15.617439    132117.49   -40782.577    2606.6305   -43389.208    569.95594 
  198850    213.73628    70.751733    132260.92   -40789.022    2609.5913   -43398.613    570.32608 
  198900    211.55666    99.134877    132328.81   -40776.609    2582.9794   -43359.589     570.5444 
  198950    215.81211   -144.26684    132354.57   -40759.666     2634.936   -43394.602    570.55175 
  199000    217.91148    22.320193    132239.08   -40813.305     2660.568   -43473.873    570.18339 
  199050    212.40578    78.110012    132434.48   -40792.047    2593.3467   -43385.394    571.62854 
  199100    216.38744    77.113445    132413.44   -40787.348    2641.9604   -43429.309     571.6345 
  199150    216.58766   -81.504452    132452.51   -40801.577    2644.4049   -43445.982     572.0322 
  199200    216.28044   -204.42879    132190.25   -40801.784     2640.654   -43442.438    571.68262 
  199250    216.17634   -53.598884    132159.31   -40783.867    2639.3829   -43423.249    571.76046 
  199300    212.73298    45.291171    132128.87   -40876.034    2597.3416   -43473.376    571.84974 
  199350    217.86715     120.3337    132213.16   -40827.519    2660.0267   -43487.545    572.94151 
  199400    213.96376    -15.35015    132234.33   -40820.387    2612.3686   -43432.756    573.49084 
  199450    216.25049   -27.359943    132210.86    -40776.23    2640.2882   -43416.519    573.57283 
  199500    212.10894   -36.200613    132235.16   -40808.192    2589.7225   -43397.914     573.5109 
  199550    216.24464   -92.901432    132230.25   -40761.096    2640.2168   -43401.313    573.54304 
  199600    214.06111    132.44268    132323.02   -40767.038    2613.5573   -43380.596    573.78924 
  199650    214.17534   -8.7047953    132427.22   -40799.296     2614.952   -43414.248     574.1487 
  199700    214.91632    84.377876    132517.92   -40760.641    2623.9989    -43384.64    574.42438 
  199750    215.84439    145.91789    132508.94   -40770.006    2635.3301   -43405.336    573.94758 
  199800    212.21288   -151.86756    132428.85   -40758.727    2590.9915   -43349.719    574.17872 
  199850    216.87403   0.72583523    132363.35   -40800.955    2647.9014   -43448.857    573.90011 
  199900    214.31478    5.1718312    132295.39   -40747.434    2616.6545   -43364.089    573.78799 
  199950    213.86958    -37.72689    132416.37   -40774.819    2611.2189   -43386.038    574.13798 
  200000    216.85488    73.181663    132401.73    -40768.44    2647.6676   -43416.107     574.7282 
Loop time of 347.054 on 12 procs for 200000 steps with 4097 atoms

Performance: 248.953 ns/day, 0.096 hours/ns, 576.280 timesteps/s
99.0% CPU use with 12 MPI tasks x no OpenMP threads

MPI task timing breakdown:
Section |  min time  |  avg time  |  max time  |%varavg| %total
---------------------------------------------------------------
Pair    | 239.44     | 278.13     | 302.96     | 160.2 | 80.14
Neigh   | 6.247      | 7.2505     | 8.1005     |  22.8 |  2.09
Comm    | 27.919     | 53.416     | 93.067     | 373.0 | 15.39
Output  | 0.17112    | 0.20075    | 0.51393    |  21.1 |  0.06
Modify  | 6.3695     | 6.5026     | 6.6755     |   3.3 |  1.87
Other   |            | 1.553      |            |       |  0.45

Nlocal:    341.417 ave 368 max 297 min
Histogram: 4 0 0 0 0 0 0 0 4 4
Nghost:    963.5 ave 992 max 913 min
Histogram: 4 0 0 0 0 0 0 0 2 6
Neighs:    0 ave 0 max 0 min
Histogram: 12 0 0 0 0 0 0 0 0 0
FullNghs:  11101.7 ave 12121 max 9389 min
Histogram: 2 2 0 0 0 0 0 0 5 3

Total # of neighbors = 133220
Ave neighs/atom = 32.5165
Neighbor list builds = 11812
Dangerous builds = 0

write_data		${DIR}/data.eq-${NAME}-${TEMP}
write_data		run_1/data.eq-${NAME}-${TEMP}
write_data		run_1/data.eq-hardcavity_freeze_nvt_1-${TEMP}
write_data		run_1/data.eq-hardcavity_freeze_nvt_1-215
undump          1

reset_timestep  0

unfix           2
unfix           3
unfix           4


################################################
#######         Run Simulation         #########
################################################

log				${DIR}/log.run_${NAME}
log				run_1/log.run_${NAME}
log				run_1/log.run_hardcavity_freeze_nvt_1
