LAMMPS data file via write_data, version 7 Aug 2019, timestep = 5000000

4088 atoms
1 atom types

9.8506930155910055e-02 5.1321493069838041e+01 xlo xhi
9.8506930155910055e-02 5.1321493069838041e+01 ylo yhi
9.8506930155910055e-02 5.1321493069838041e+01 zlo zhi

Masses

1 18.15

Atoms # atomic

3467 1 1.7869763079336842e+00 1.5628582223299792e+00 1.2887382400100860e+00 2 -1 -1
1161 1 5.9153166511520832e+00 3.3489587494799435e+00 1.1462477950619105e+00 -2 1 -1
786 1 9.1718645577010545e+00 2.6407264087556519e+00 3.2655841061881761e+00 -1 1 0
1941 1 1.2147242526018456e+01 1.7583464689733004e+00 1.3506122644880156e+00 1 1 2
296 1 6.2714997321190868e-01 2.1172119072509819e+01 1.1239430984886553e+01 2 1 0
3622 1 1.3717178706696979e+01 3.2744955245340681e+00 3.0651075512083774e+00 1 -1 1
3766 1 1.7271687751161330e+01 2.8019524766619552e+00 1.5434499962580337e+00 1 0 -1
2468 1 1.9921569389997345e+01 2.5375639194074031e+00 1.6205510551680513e+00 0 0 2
1374 1 2.7528213621033473e+00 5.6882959160128976e+00 2.9730295679295695e+00 -1 0 0
2765 1 3.0549915822701226e+00 3.9692602244982766e+00 8.7297941364517639e-01 0 0 1
3412 1 1.8358293069511841e+01 2.5573595461604612e+01 6.4119829948543883e+00 -1 -1 0
2390 1 9.9040200150618656e+00 4.8349348803247878e+00 1.7967201551833152e+00 1 4 0
3567 1 1.0951157962787857e+01 6.1623834686066994e+00 3.4611363044136110e+00 -2 -1 3
3081 1 1.3652363456742703e+01 5.9819013985660217e+00 2.7043181170007027e+00 1 0 1
3141 1 1.4477444052674262e+01 5.9020401848640356e+00 3.0550871637981858e-01 1 2 -2
3876 1 1.7016498591801195e+01 5.2986372847946894e+00 9.7100935622937790e-01 2 2 2
673 1 2.0788080351026331e+01 6.3819892887472696e+00 3.0680255303192716e+00 0 1 1
2966 1 2.4875805652097309e+01 3.6860387717743710e+00 1.1338469646329210e+00 0 -1 1
2741 1 2.4848005940159315e+01 6.4071816649868767e+00 7.3262548278074247e-01 1 -1 2
1506 1 4.0601089596383151e+00 8.1815796193878914e+00 2.5854868517427878e+00 0 0 -1
2061 1 6.1880663937355891e+00 4.4210756263535291e+00 1.6920706899983539e+01 2 0 1
4018 1 1.1257578601644036e+01 8.4982738427574542e+00 2.3576678495555448e+00 1 0 0
1614 1 1.8025971844677620e+01 6.8392417495181368e+00 2.8700800073578905e+00 1 0 2
2035 1 1.8008679246984055e+01 9.4835868872982232e+00 2.4769739960126431e+00 3 2 1
3134 1 2.5429649586800483e+01 1.6244772795760500e+01 1.5731989220606808e+01 2 0 0
2829 1 2.0854560333940483e+01 2.5361548124402784e+01 6.5585434020938020e+00 2 -1 0
2413 1 2.2329885488249661e+00 9.9422197250407915e+00 2.2019126417366448e+00 1 -1 -1
872 1 4.2506261866510391e+00 1.2155748613045612e+01 1.8916520556649283e+00 1 2 2
1076 1 5.8201746112797403e+00 1.2376597051136756e+01 4.0299194203740898e+00 0 1 1
2236 1 8.8728589412389187e+00 1.0144478032221073e+01 2.0938331486535073e+00 2 1 -2
1622 1 1.0519819989487283e+01 1.2536952776382350e+01 1.6899013346498410e+00 1 0 0
3753 1 1.5261521195044574e+01 1.0250415258292202e+01 2.0497366764868605e+00 2 -1 1
156 1 1.4882442102958008e+01 1.2749556603738609e+01 9.5748282289598463e-01 0 2 0
1400 1 2.2767449744537423e+01 1.0922644594933677e+01 2.0742537462700286e+00 -1 1 -2
472 1 1.8908708437235862e+01 1.6546134421192296e+01 1.6365241650772404e+01 0 0 1
1759 1 2.3305618985619052e+00 1.3980386515671206e+01 1.3151939161680708e+00 2 1 1
3459 1 8.1359624334447866e-01 1.4463182369133699e+01 3.2590730865610640e+00 3 -1 1
241 1 8.5728392548896259e+00 1.4353867696955597e+01 1.1807084936746144e+00 0 1 0
3838 1 7.2295000925945452e+00 1.4898098384048543e+01 3.5324634912588557e+00 -1 -1 1
3491 1 1.4271458313055057e+01 1.4015921467293136e+01 3.6022965680791943e+00 2 2 0
1121 1 1.9777916150621763e+01 1.4377951498830752e+01 1.7956050930164582e+00 -1 1 -1
2008 1 2.2602319788630886e+01 1.3478494519992022e+01 1.5961868721317036e+00 0 1 1
998 1 2.3369711767842688e+01 1.5346959629262617e+01 3.4126478629336163e+00 -2 1 1
2693 1 8.9701122491380270e-01 1.9005548700033245e+01 2.6507878480405531e+00 1 -1 1
1915 1 2.0008968852151671e+01 1.9760162972654313e-01 6.2936741263267333e+00 -1 -1 -1
2544 1 5.6455202959434221e+00 1.6942363272122250e+01 2.9612876517549243e+00 -1 -1 1
2717 1 3.8247755866219402e+00 1.6250625991445908e+01 8.3398618033061922e-01 2 -1 -1
3278 1 2.5564754978002853e+01 1.1288095430136353e+01 6.3950581718395716e+00 1 -1 1
3598 1 1.6108671732912029e+01 6.0236166819297976e-01 8.7134788937499188e+00 -1 3 0
3976 1 1.1408778004501693e+01 1.7498216445138265e+01 2.6731624590937382e+00 -1 2 1
2657 1 1.4076843787303350e+01 1.6574530048437996e+01 2.3032534299897400e+00 -1 0 -4
1168 1 1.5514047680027003e+01 1.9196531161138964e+01 2.9410367072172141e+00 -1 0 1
893 1 1.8128328106396427e+01 1.8778899209273259e+01 2.4679602553117941e+00 -1 0 0
1384 1 1.9185896979765001e+01 1.6786379180233741e+01 7.7454662146011299e-01 1 3 -1
1852 1 2.1144695843716843e+01 1.7287341993160503e+01 3.0368075022065133e+00 -2 -2 0
2439 1 2.2974835906905717e+01 1.9268373744446706e+01 3.2467426354873101e+00 2 1 2
1671 1 2.4160652323060070e+01 1.8692977033337449e+01 8.9067075255114214e-01 -1 2 0
3594 1 5.5399284142260932e+00 2.1543804256775999e+01 1.9289758002736039e+00 0 -2 3
2318 1 6.7864671645913175e+00 1.9202223549001253e+01 2.4352642027605511e+00 0 1 1
64 1 1.1638570400535876e+01 2.0293946273266474e+01 2.0394780614088885e+00 0 -2 -1
3556 1 1.4268600819523423e+01 2.1135340094184649e+01 1.5053179113706068e+00 0 1 -1
2935 1 1.9279522146778334e+01 2.1124053750668953e+01 1.5200973496159158e+00 0 -1 0
1212 1 2.1307553528094736e+01 2.1569018323850287e+01 3.2387092803543114e+00 1 0 -1
801 1 9.4107803030590664e-01 2.3236224895817404e+01 1.7068485245591136e+00 1 -1 3
2336 1 2.6676940365584501e+00 2.3892927776190554e+01 3.6742252850349253e+00 3 1 2
3569 1 2.1443637698011699e+01 2.5340852344617339e+01 1.0872256805228490e+01 2 0 0
1377 1 7.2305323611137551e+00 2.3556051324649516e+01 8.9401858706330795e-01 1 0 1
1311 1 1.5066656571234036e+01 2.3338375564570281e+01 2.7918574191584762e+00 0 2 1
3949 1 2.2347265693873265e+01 6.9629516036742318e+00 1.1405629449843175e+00 0 2 1
2120 1 1.7922796869573290e+01 2.3354999747888762e+01 2.5525454322872672e+00 2 -1 0
2372 1 4.7519934645291002e+00 4.0240326942347404e-01 1.4761655610893150e+01 0 0 -1
189 1 2.3877670605545283e+01 2.3817397775451251e+01 6.8967512779016482e-01 0 0 0
575 1 2.2922304480750096e+01 2.3580795617093838e+01 3.4734815238364929e+00 0 -1 1
396 1 2.2988259719260142e+00 3.6835864234633281e-01 3.7708044265615714e+00 1 -1 2
1394 1 1.4977700478922698e+00 2.1646655259886143e+00 5.7785940812772436e+00 2 -1 -2
3811 1 6.5394896955917012e+00 2.2456891835949286e+00 3.6030343182670124e+00 0 1 1
1 1 9.9541966509929498e+00 3.1832051695907624e+00 5.8402088606692955e+00 0 -2 -1
341 1 1.2751815736380273e+01 2.4511749490847712e+00 5.8156878256710334e+00 -1 0 0
3617 1 1.6059769091173056e+01 2.2801957878544390e+00 3.9076136110369499e+00 0 3 -1
366 1 1.9966927770938462e+01 2.8322925999814412e+00 5.9388917318596901e+00 1 1 -2
1062 1 2.1641751415927821e+01 9.5750127682062018e+00 2.9548453260476298e-01 0 -2 -1
3862 1 2.3831117294061144e+01 3.2152257998284517e+00 3.8405531483171642e+00 -1 1 1
3333 1 1.8231905868077529e+01 2.5246738049953390e+01 8.2236017211583146e-01 0 0 0
3072 1 2.7963325138089581e+00 4.4730171468304150e+00 5.2291174436753565e+00 2 0 0
240 1 5.2663198279076209e+00 3.7693012492812268e+00 5.3059369422242293e+00 1 1 -1
3042 1 6.6649395072005495e+00 5.8347500752901338e+00 6.0313082612979292e+00 -1 0 -1
812 1 9.4665010993371830e+00 5.6401655915722282e+00 5.6549553092390061e+00 0 0 1
2145 1 1.7489998352404267e+01 3.4192685067947441e+00 6.0213921472667291e+00 2 1 -1
1034 1 1.7328087791567068e+01 6.1518720341405491e+00 5.3422446866286570e+00 -1 1 -1
3348 1 2.1128255771590069e+01 3.7209281907429226e+00 3.7069052435116254e+00 0 0 -2
168 1 2.5027355594853404e+01 4.7573373781493586e+00 5.3300579627929183e+00 0 1 0
2556 1 5.5966280002628270e+00 8.1445978055196111e+00 4.8300322922769130e+00 2 0 2
1766 1 3.9807625138683740e+00 8.7269363639447981e+00 6.5839548997551933e+00 0 0 1
3469 1 1.4752690506271493e+01 6.8907282510252443e+00 5.2302647236322679e+00 2 1 -2
279 1 2.1822670015686523e+01 7.7031690861169189e+00 5.1281209640155661e+00 -3 1 1
3636 1 2.4400822919658420e+01 7.3478249736859338e+00 4.9708353859689245e+00 1 3 1
1451 1 2.4238368059125777e+00 1.0748719203504033e+01 6.1525549061234059e+00 1 0 0
2685 1 8.5160127049902201e-01 1.0099454235625592e+01 4.2882920927421955e+00 3 -1 1
2062 1 7.1965697706072298e+00 1.0252170654259016e+01 4.2878409399814172e+00 0 0 0
1130 1 8.7677895128375596e+00 1.0811486957199655e+01 6.3664200225317789e+00 2 1 0
2808 1 1.1079986698893128e+01 9.8890863312583814e+00 6.9871846800723754e+00 3 2 0
2309 1 1.1954130232008893e+01 1.0077544829687378e+01 4.4281428875683790e+00 0 2 0
3840 1 1.4587100213305176e+01 9.6903372418872600e+00 4.5745986738251263e+00 1 -1 1
2878 1 1.5226335662254051e+01 1.1199979287572054e+01 6.6945047952333736e+00 0 1 1
2121 1 1.9153170114775850e+01 1.0975239183250929e+01 4.5246349043144498e+00 0 1 0
1000 1 1.7754014729093985e+01 1.0296315198477103e+01 6.7272626310608468e+00 0 1 2
3441 1 2.1754990356159386e+01 1.0346038826312508e+01 4.6853756090407330e+00 -2 0 -2
547 1 2.2844450316978985e+01 1.1768269348009133e+01 6.5094295076395303e+00 1 0 3
3187 1 1.9935708215529615e+01 1.7529474107255247e+01 1.4176599636104124e+01 2 0 1
1284 1 2.2395303622035754e+00 1.4828962616389964e+01 5.6996829138983447e+00 -2 0 0
153 1 3.8395994857765077e+00 1.2810790745438791e+01 5.9335962517717347e+00 1 -1 0
2482 1 8.6876436996998123e+00 1.5261009171506872e+01 5.6373119603373256e+00 2 0 -1
525 1 1.1896407071006982e+01 1.2857960785974546e+01 4.1157465197711236e+00 -2 0 1
1413 1 1.0123907640174918e+01 1.3267689229202151e+01 5.9702371359010034e+00 -2 1 1
1476 1 1.6213438447068267e+01 1.3639735374411101e+01 5.4959179298901759e+00 -2 -1 2
3071 1 1.8535049921955181e+01 1.3388609206908839e+01 4.1354440814152440e+00 1 0 0
452 1 1.9832921900799686e+01 1.5132052973249577e+01 5.4395977551164396e+00 -1 0 -2
1967 1 2.2451784735696965e+01 1.4399748966452709e+01 5.8534581269053563e+00 0 3 1
1320 1 3.7674972141269354e+00 1.7141573474524147e+01 5.1804352692147431e+00 2 -1 0
2701 1 9.9930901644188328e+00 1.7551126874428896e+01 5.1965243760073294e+00 1 2 0
3207 1 1.4807391130590752e+01 1.9588344360432778e+01 5.4475506385609433e+00 0 -2 1
3924 1 1.9137889520123302e+01 1.7829589149667697e+01 5.1137114027835704e+00 2 2 0
3873 1 2.0737130339803826e+01 1.9241572849478185e+01 6.6174004275564915e+00 2 0 2
2167 1 2.4673695173704989e+01 1.9820325356969100e+01 5.0041657797723200e+00 1 0 -1
1830 1 2.3399486698067978e+01 1.8645189381854813e+01 7.2236153611991458e+00 2 2 2
3712 1 2.5325281953373611e+00 1.9491030118794317e+01 4.6766071283518142e+00 0 2 1
1566 1 8.5950178552143541e-01 1.9865504495586467e+01 6.7684229076661735e+00 1 -1 1
1713 1 4.1249883744744169e+00 2.1856693560360547e+01 4.4174670039528738e+00 0 2 2
2001 1 5.6176168979201382e+00 2.2085208219903500e+01 6.4608603180319379e+00 0 1 1
1770 1 8.3589185757807716e+00 1.9577053094132886e+01 4.5009397504391293e+00 -2 -1 3
3775 1 6.9295900763381226e+00 1.9631564319894878e+01 6.7650770034811689e+00 0 2 3
2806 1 1.2198033216765792e+01 1.8734329888986579e+01 6.5361842529700453e+00 0 -2 2
3931 1 9.9995437096088864e+00 2.1417452856533778e+01 3.8898842223292998e+00 1 -2 1
1232 1 1.1268316244289526e+01 2.1330932727341374e+01 6.3073880532384248e+00 1 0 -1
4047 1 1.4919961171293837e+01 2.2116818568729222e+01 5.5135556479275296e+00 3 -1 0
3270 1 2.0197732899838886e+01 2.1586152628753908e+01 5.6726467804886713e+00 -1 0 1
4056 1 2.4809158157370181e+01 2.2368544657743666e+01 5.3105747052543588e+00 0 0 0
416 1 9.2898289611218898e-01 2.4243372886327155e+01 5.7121774600769335e+00 1 0 2
2029 1 8.4674642495867367e+00 2.3702244512188443e+01 3.4254951056244098e+00 0 1 1
1398 1 7.0439523355248905e+00 2.4263604401752016e+01 6.1323346373114642e+00 -1 -2 -1
2436 1 1.2764905704786630e+01 2.3660952913629089e+01 6.5429514620189471e+00 2 -1 1
3880 1 1.7684689597980856e+01 2.3277744459229805e+01 5.3775962014550380e+00 -1 1 1
1409 1 2.5679519028441295e+01 8.6773171221975929e+00 6.8997619749475287e+00 1 0 1
3842 1 2.5322197936128763e+01 1.1902501410765799e+01 1.0780943053518589e+01 2 2 0
2690 1 1.7116829970776493e+00 1.2494053739081654e+00 8.3504173128326649e+00 1 1 -2
60 1 1.4178219753740087e+00 3.1430624451417266e+00 1.0112743595343979e+01 0 0 1
1158 1 5.8627927704040301e+00 2.4817309538643184e+00 7.5715774984542179e+00 0 1 -1
707 1 4.3549414273315614e+00 4.1666806395030054e-01 8.2474701641058985e+00 -2 -1 -1
1123 1 8.5873914045164703e+00 2.0026269245597597e+00 7.8333892678503148e+00 -1 0 1
1415 1 1.2395321877960393e+01 3.1096220806634340e+00 1.0235694998940268e+01 -1 0 -2
3997 1 2.4149278833051477e+00 2.3478021202924346e+01 1.4435873770020677e+01 -1 1 1
363 1 2.5407763359006260e+01 1.0665254263995346e+01 2.3577567672014519e+00 1 -2 0
842 1 1.6250204690924846e+01 3.1046195466432374e+00 8.3592303208005934e+00 0 0 0
1204 1 2.4017515160855350e+01 1.3292569277120980e+00 8.3787944942940342e+00 0 1 1
3022 1 2.7727709927404849e+00 5.5078623557871813e+00 9.5858015934359511e+00 1 0 -1
2389 1 5.2875696457798291e+00 4.7083952275569247e+00 9.5576082880439550e+00 1 -1 1
212 1 9.4400141633181089e+00 6.4182598393925110e+00 9.5053359800328234e+00 1 -1 1
2208 1 9.8308118188649551e+00 3.6577187407875704e+00 9.7908925753586455e+00 0 -1 0
723 1 1.3508484119873051e+01 3.7176704537500527e+00 7.9314428208576251e+00 0 -1 -1
1423 1 1.7247325832793955e+01 4.6654841577457713e+00 1.0229634048577697e+01 0 0 1
1812 1 2.0856909628446452e+01 4.2341547197790197e+00 7.9407586603413343e+00 0 -1 1
2306 1 1.9644991250293312e+01 3.7693353556113118e+00 1.0266529274336071e+01 -1 0 0
771 1 2.3785378471584298e+01 3.9263216576665747e+00 7.5785773294568086e+00 -1 -1 0
1305 1 2.4932676895736247e+01 5.0222302926838909e+00 9.8678656814350472e+00 1 2 2
425 1 2.7198890349455036e+00 6.5189822085293887e+00 6.9453367226010840e+00 0 0 2
983 1 2.5527556374708308e+01 9.2162792355313119e+00 1.1188276109549612e+01 -1 0 0
710 1 5.1791928168260508e+00 9.0736000227758584e+00 8.7505425267489141e+00 0 -1 2
1514 1 6.7225120337284849e+00 6.7183319094639717e+00 8.6290153581140441e+00 -1 1 -2
1935 1 1.1105919347992721e+01 6.9639931861045294e+00 7.2643058278457930e+00 0 1 2
3368 1 1.3538200472779542e+01 6.4808247091444615e+00 7.3316009672814282e+00 1 1 0
1209 1 1.4198600410083360e+01 7.8386964651589262e+00 9.5019303473682584e+00 -1 -1 -1
3986 1 1.8206251147218047e+01 7.6934084973065620e+00 7.1866560826769996e+00 1 -1 1
510 1 1.6900399252166114e+01 7.1957508677502400e+00 9.4301615342630463e+00 1 -2 1
2187 1 2.0554571921641308e+01 7.1648894116333404e+00 7.5001410878958987e+00 0 -1 1
2405 1 2.1749176795191953e+01 8.5636760210425624e+00 9.3070380594001350e+00 2 0 -2
2845 1 2.4358380129412858e+01 7.8350266088205247e+00 9.2691195388259437e+00 1 -2 0
3814 1 9.0001064540906706e-01 1.0929808431651308e+01 8.3648593420007202e+00 1 -1 1
2802 1 2.3964721935556996e+00 1.1333124515454518e+01 1.0755968848960279e+01 -1 0 -1
1853 1 7.0469942572462987e+00 1.1082944547349383e+01 8.4837331480199829e+00 0 1 2
2230 1 1.1730267737564178e+01 1.1334815163369536e+01 9.0683021475304493e+00 2 1 0
627 1 1.4163405188490586e+01 1.0503502456993447e+01 9.0368180150470341e+00 0 2 0
2312 1 1.8983374445484905e+01 1.2005613901573300e+01 8.5225246074532350e+00 1 -1 0
2842 1 2.1495850140963636e+01 1.1364565061181843e+01 8.8012510733647176e+00 0 -1 1
573 1 7.5431420210405431e-01 1.5409481766329668e+01 7.8937307197427735e+00 1 0 0
3925 1 5.6045597172761479e+00 1.3285936533216693e+01 7.9097175343689772e+00 1 1 0
3671 1 3.8761495762124007e+00 1.3641282653382863e+01 1.0127188688367358e+01 3 0 0
2269 1 6.8365493763127239e+00 1.5473910422466455e+01 7.8039385431891164e+00 -2 0 -1
1589 1 9.5460397533025141e+00 1.4203125130290800e+01 1.0499267706497983e+01 0 0 0
2558 1 1.1383729001059864e+01 1.3843502932923666e+01 8.6175860152960837e+00 0 0 0
1767 1 1.2983898675103665e+01 1.5584510828018125e+01 1.0217823946702277e+01 1 0 1
1584 1 1.5236528651355556e+01 1.4693347494647995e+01 9.9843547044045007e+00 0 1 -2
1106 1 1.6156220210523617e+01 1.5517269425764379e+01 7.4798694752503367e+00 -2 3 2
2641 1 1.8664081696352358e+01 1.4612622992362615e+01 8.0093077066004881e+00 0 -2 -1
3190 1 2.0005433590722642e+01 1.6143448485948458e+01 9.7296682999539996e+00 -2 1 1
624 1 2.2661663413798262e+01 1.5705119059229011e+01 1.0070051961025898e+01 0 0 1
891 1 2.3636387986650064e+01 1.5929436083653709e+01 7.6835561506643515e+00 0 1 5
1375 1 2.3870906923873818e+00 1.5946719173642608e+01 9.8934046677915646e+00 -1 1 1
1610 1 5.2724754704667935e+00 1.7542264074238677e+01 7.1985541972732703e+00 1 -1 2
3397 1 3.4614814958196596e+00 1.8515206405651902e+01 9.2968606023977021e+00 1 0 1
1621 1 8.0294416370694002e+00 1.6245251462190836e+01 9.9597766714353977e+00 -1 0 1
3687 1 1.0173143190191094e+01 1.8186311360769565e+01 1.0080689556889741e+01 0 0 -1
1591 1 1.2659763639277926e+01 1.8052619256904244e+01 9.1644166535484288e+00 3 1 -1
3776 1 1.6653288187922197e+01 1.7999826069309595e+01 6.6295236741937718e+00 1 2 2
3456 1 1.9756047220989092e+01 1.8976369012694207e+01 9.2742594816844246e+00 -2 2 -1
69 1 2.0436736166909433e+00 2.0628495677683421e+01 8.8992424761911408e+00 3 1 -1
1601 1 3.8607311530081381e+00 2.2503835503652418e+01 8.5232525469779219e+00 1 0 3
606 1 8.4454653761153935e+00 1.9845899446259669e+01 9.2266475622779485e+00 0 2 -1
737 1 1.7142363073315849e+01 1.9614659037603563e+01 8.7833509648585171e+00 0 -2 0
3996 1 1.6246371195845317e+01 2.2060431800959794e+01 8.3626428805900126e+00 -1 2 2
3599 1 2.4464907668566585e+01 2.0231657407412378e+01 9.0506543853396639e+00 2 1 1
840 1 2.4974105083216136e+00 2.4915290000227344e+01 7.9573027515041925e+00 1 1 2
2993 1 8.5369655099784580e+00 2.4216991822631726e+01 8.3222597669596219e+00 -2 -1 1
3546 1 1.0308325057230922e+01 2.1833273812184490e+01 8.9017687926999027e+00 0 2 0
3230 1 1.3572861491450928e+01 2.3428879951044483e+01 9.0355096525271072e+00 -2 3 -1
1525 1 1.7876481982019847e+01 2.3414153846541979e+01 9.9772229065821847e+00 -1 0 0
3194 1 2.1296908943226224e+01 2.2960350539197400e+01 7.5351626015243216e+00 0 2 1
3113 1 2.0550968477725203e+01 2.3092784925387306e+01 9.9061855675666894e+00 1 1 1
610 1 2.4052853399148795e+01 2.2655404678529194e+01 7.8917531344235439e+00 1 0 0
3905 1 2.5390384689863172e+01 2.4492952508178266e+01 9.1827816003006237e+00 -2 -2 1
2588 1 1.6854016810874297e+00 1.9804377510859159e+00 1.2297120385531873e+01 2 0 0
888 1 1.6290256738258318e+01 1.6783355778660237e+01 1.6171280406914885e+01 0 -4 0
3912 1 4.4160286223272820e+00 1.2980331180512652e+00 1.2143562601559649e+01 1 0 2
1633 1 8.6858432382628195e+00 3.0688811498202173e+00 1.2266841526266964e+01 0 1 0
2708 1 2.5309915120993150e+01 1.2698333207247245e+01 1.5015436956455867e+01 -4 0 -1
2522 1 5.8309769089041819e+00 7.7903147717262140e+00 4.7268480789498080e-01 0 0 0
3534 1 1.6315943558184973e+01 1.3533554447496650e+00 1.3013717052572119e+01 2 0 2
3938 1 1.8773913317768308e+01 5.7819322948409724e-01 1.3218831035181168e+01 -1 1 2
742 1 2.0050870991187359e+01 1.0218278813474622e+00 1.0721748042458556e+01 0 0 -1
3494 1 2.2764461734189553e+01 8.5315777597291720e-01 1.0675959865805353e+01 0 1 0
1612 1 2.3797614630237955e+01 2.0919820379427945e+00 1.2826963789676025e+01 1 1 0
163 1 6.0459021366465713e+00 4.0951145156677438e+00 1.2202397777859860e+01 0 -1 -1
701 1 1.3440245678599934e+01 4.5024353807848714e+00 1.2352988097272352e+01 1 2 1
1655 1 1.6172953095801383e+01 3.9742831248091322e+00 1.2603097308408280e+01 0 0 0
1057 1 2.0603229203611768e+01 5.4650173442145498e+00 1.2232702877482332e+01 -1 1 -1
1993 1 2.3155056752272422e+01 4.8010297850788399e+00 1.2223351605919412e+01 -3 1 1
1032 1 2.2177533613162903e+00 7.0545542247645985e+00 1.1893444999319950e+01 0 1 0
1083 1 1.0518786950634601e+01 7.6975424284544767e+00 1.1445730976461327e+01 -1 -1 1
441 1 1.3034366302261221e+01 7.1902158804206397e+00 1.1946408758630032e+01 1 -1 3
859 1 1.4364779007094379e+01 8.6396149267303493e+00 1.3732145806074980e+01 0 0 0
220 1 1.8264063422627633e+01 8.7351704519603413e+00 1.1508923929853276e+01 0 -1 3
2327 1 1.7006338358276572e+01 8.0688379148125104e+00 1.4033668005200802e+01 -1 0 -2
2735 1 2.0555463933216885e+01 8.1286023424337941e+00 1.1622793599994571e+01 1 -1 -3
2535 1 3.6038277742917096e-01 2.5486102459845856e+01 9.5182762795380356e+00 1 0 0
2841 1 8.3875711180121715e-01 1.1973176511209962e+01 1.2818370060894820e+01 -1 -2 -1
2169 1 3.9258842723384939e+00 9.1319546406653238e+00 1.1253222566751802e+01 1 -2 -1
3550 1 4.6378495554454586e+00 1.0147658443732812e+01 1.3862908216747030e+01 1 1 0
3564 1 8.1711476753811052e+00 1.1734500535121684e+01 1.0759528817960955e+01 0 1 -2
3778 1 6.3564192442422334e+00 1.2315404071499874e+01 1.3173950694529045e+01 1 -2 1
1177 1 1.0507146930775541e+01 1.0409445040547279e+01 1.1207686349659117e+01 -2 1 1
299 1 1.1427825074023140e+01 1.2097009390778039e+01 1.3482909703057938e+01 -2 -1 1
82 1 1.5435410341380171e+01 1.2126239996211426e+01 1.0970971958842220e+01 2 0 2
794 1 1.4001509599946177e+01 1.1164192777514490e+01 1.3318182291369284e+01 1 -1 1
3399 1 1.7880989192739580e+01 1.1507044744440861e+01 1.0978638105221572e+01 -1 -1 1
3014 1 2.1427341102727592e+01 1.2151984258464182e+01 1.3046750278653823e+01 0 1 -1
2105 1 2.2735140573450099e+01 1.2805665516409155e+01 1.0669753157157228e+01 2 -1 1
1629 1 2.2927133688811208e+00 2.1497473569760214e+01 1.6523958383649315e+01 1 0 2
3332 1 5.1450352051861374e+00 1.4536494990558692e+01 1.2398115674309706e+01 0 1 -1
745 1 1.1476834897924704e+01 1.4762399237331273e+01 1.2785979360618441e+01 0 1 0
3018 1 1.8943065609611772e+01 1.3276419200414916e+01 1.2722316770370712e+01 0 -2 1
1289 1 1.6159330150121033e+01 1.6501256469656553e+01 1.1732813047143411e+01 -1 1 -2
1240 1 1.8917718314239639e+01 1.5945844486815199e+01 1.2204618540983530e+01 1 -1 0
2049 1 3.8701310309640641e-01 1.6488807572954368e+01 1.1874428645117113e+01 1 -2 -2
260 1 1.8598438922540050e+00 1.6729585062951667e+01 1.4216742194352841e+01 0 -1 -1
1128 1 5.3436523126372899e+00 1.8616255770021702e+01 1.1341419557203210e+01 -1 1 -2
3900 1 9.0592637363130883e+00 1.6064684382848618e+01 1.3723437266213702e+01 0 0 0
631 1 6.6231268014864098e+00 1.6593212796062538e+01 1.2192376330786624e+01 0 0 2
1521 1 1.0043174937120783e+01 1.8474310994201566e+01 1.2619720511997633e+01 -2 1 0
1632 1 1.6080608389727587e+01 1.9133065566587412e+01 1.1223489826335225e+01 2 -2 -1
2304 1 2.3845325917699750e+01 1.7018422312877590e+01 1.2252005977239786e+01 1 1 2
2843 1 1.3527465541254456e+01 2.3266856050394697e+01 1.6060933999181955e+01 1 -1 0
2732 1 2.8879613081154414e+00 2.1409714134436960e+01 1.2746037236445449e+01 2 0 2
1101 1 3.6138461588990287e+00 1.8941201572789563e+01 1.3398573277913561e+01 1 0 1
399 1 7.1179186255260003e+00 2.0373875864395934e+01 1.1265073557074640e+01 0 0 -1
344 1 8.4463263213928208e+00 2.0500544600558023e+01 1.3394834510131224e+01 -1 1 2
2658 1 1.2315123119159683e+01 2.2072518193572307e+01 1.1067401018219023e+01 1 -2 1
3916 1 1.3553611119214660e+01 1.9776677655042402e+01 1.1665888305967080e+01 -1 -1 2
835 1 1.9552795101447991e+01 2.0191068459897444e+01 1.3622533713622845e+01 -1 0 2
1877 1 2.0869431383690735e+01 2.0500508211269022e+01 1.1219876985474110e+01 -2 0 1
1035 1 2.3951618551936850e+01 1.9887477629992606e+01 1.1611119958668997e+01 -2 -1 0
1352 1 5.2794732260244581e+00 2.2864679218535944e+01 1.1153352712470033e+01 0 -1 -1
398 1 8.9324500663704036e+00 4.4968885430551986e-01 1.3027021528079453e+01 0 1 -2
1445 1 6.9835137848368340e+00 2.4801422633107411e+01 1.0495533812888889e+01 0 0 -1
11 1 1.0266114607556935e+01 2.2553841893114175e+01 1.3025293771714010e+01 -3 1 0
227 1 1.3566984982425277e+01 2.3693939085079709e+01 1.3159019811768609e+01 0 0 0
2877 1 1.6133235969329608e+01 2.3289023772991118e+01 1.2287885027460026e+01 2 0 0
1659 1 4.3079642432317788e+00 2.3566280039818079e+00 1.6594389259623838e+01 -1 2 1
2823 1 8.9701475162341957e+00 2.4842402549138086e+01 1.2592955610602488e+01 -1 1 0
480 1 1.6822824299545790e+01 2.0715717255275329e+01 1.3543177624280023e+01 0 -1 0
534 1 1.2453863216403407e+01 1.8659050667086763e+01 1.3973240951435654e+01 0 -2 0
1810 1 1.0198634494281110e+01 1.6425752352379341e+01 6.6367621986382230e-01 0 1 0
3543 1 1.4937009382354654e+01 1.9327825284261998e+01 1.5122933165650307e+01 -1 4 1
2452 1 1.2660469608125092e+01 1.1538099666331580e+00 1.5118756106754544e+01 2 3 3
2819 1 1.5200686588986946e+01 4.9034607202272540e-01 1.5350227408224635e+01 0 0 2
2601 1 2.0099164298327729e+01 1.8876654080578006e+00 1.5289313387387141e+01 2 1 -2
1469 1 2.2752180050438461e+01 1.3924804118675935e+00 1.5163563946651394e+01 -1 0 0
3366 1 9.6670983641958586e-01 3.6968205581138047e+00 1.4319219686932865e+01 2 0 -1
1824 1 5.3193536000146029e+00 5.5713208747772232e+00 1.4680589946957353e+01 1 4 0
2569 1 6.9452864028037871e+00 1.4354899230394434e+01 1.6943603800549134e+01 2 -2 -1
3675 1 8.7411195534760964e+00 4.0667144175095631e+00 1.6609032289784409e+01 0 3 1
2721 1 9.8375688689246950e+00 4.7135320708281983e+00 1.4326063837800845e+01 1 0 0
1947 1 1.2264793488376768e+01 4.0639036510351110e+00 1.4741316639118949e+01 2 1 2
2047 1 1.6329491046670903e+01 4.5139454362230200e+00 1.6607652757106024e+01 -2 0 0
1797 1 1.3650263526218152e+01 5.4420363860859577e+00 1.6957250533265317e+01 -2 1 -1
2182 1 1.7465345240930890e+01 5.3342723625510002e+00 1.4525188777855876e+01 2 0 -1
373 1 1.9967531865657232e+01 4.5173361286910412e+00 1.4941523562477061e+01 -1 -1 0
3249 1 2.0886332056968218e+01 6.2936972353404439e+00 1.6741004203886853e+01 1 1 0
3634 1 2.3416205063054552e+01 5.3290708409566125e+00 1.6821798203383828e+01 2 -2 0
3834 1 2.4244858454099418e+01 6.0715076073978151e+00 1.4481517919834086e+01 0 0 2
377 1 2.5708440086259676e+00 5.9206565587858027e+00 1.4309313459836480e+01 -1 -2 0
1894 1 2.1394696820057804e+00 7.4083199143039948e+00 1.6497528694605752e+01 1 4 2
454 1 9.2195148540136209e+00 7.4792340059699054e+00 1.3881893644028848e+01 -1 -1 1
2086 1 6.5448244723749820e+00 7.9902287264012308e+00 1.4501003427680205e+01 1 0 1
592 1 1.0703149328728871e+01 8.7340426559426838e+00 1.5646850392811436e+01 0 1 2
574 1 1.3472898546142964e+01 8.2453952668876447e+00 1.6039054913123714e+01 -1 1 1
3069 1 1.8036320904692236e+01 9.6380320626884650e+00 1.5889092003261464e+01 0 1 1
3487 1 2.0601864110764772e+01 8.8921461916344420e+00 1.5906054420047893e+01 -1 2 -1
3520 1 2.4494892545109789e+01 8.7084784008020009e+00 1.3650369806097341e+01 0 -1 0
1270 1 2.5404992128943666e+00 1.2103655164051112e+01 1.4737255473544440e+01 1 1 1
586 1 4.1828519610258841e+00 2.0008451782634729e+01 1.6099106565179635e+01 -3 0 1
804 1 6.6665585347693073e+00 9.7514884246221385e+00 1.6501488388287438e+01 0 -1 -1
3930 1 7.6522401596815692e+00 1.2147374298038388e+01 1.5568331477882385e+01 1 0 2
2861 1 1.1065145577840278e+01 1.9775939978953154e+01 1.6104021293619898e+01 1 1 2
3193 1 1.0219172943902658e+01 1.1554966079629347e+01 1.5590918838462530e+01 0 0 -1
3608 1 1.5092360728434228e+01 1.2891117547633085e+01 1.4985245228874652e+01 1 3 2
1166 1 6.7389646423063354e+00 2.1234704138753422e+01 1.5390850965957386e+01 1 0 0
2831 1 1.7717541628687432e+01 1.2244174602195313e+01 1.5131349086544368e+01 2 -2 1
2859 1 2.1983385226979642e+01 9.3836228710086509e+00 1.3506548183379037e+01 -1 0 1
1952 1 2.2614339084801905e+01 1.6433602588641900e+01 1.4642443465113985e+01 -1 0 1
503 1 3.3637843515115353e+00 1.4714653850885076e+01 1.4544849691674438e+01 0 0 2
81 1 2.5534711125445298e+01 1.0175499120762952e+01 1.5638900580903147e+01 0 0 -1
486 1 1.0943511516133672e+01 2.2427033063375731e+01 1.5476646050173844e+01 0 2 -1
2370 1 1.1523284984190845e+01 1.5236877539620689e+01 1.6911046802635159e+01 0 -1 2
3500 1 1.5323282803535553e+01 1.5274768798217602e+01 1.4268875892066147e+01 1 1 1
3897 1 4.4727246676163830e+00 2.5332506060938918e+01 1.4350242653665187e+01 -2 -1 3
2707 1 6.2399943252673804e+00 2.3527169729562182e+01 1.3659803450342665e+01 1 0 0
1897 1 2.2777743263383297e+01 1.3881951305007409e+01 1.4559827615944828e+01 1 0 1
1274 1 2.4444262076932137e+01 2.5337332883687495e+01 1.1690378587712715e+01 -1 1 3
1221 1 8.3655744629641848e+00 1.8778910826015597e+01 1.6490409531557709e+01 3 1 0
927 1 8.8339901143150268e+00 1.5980297925116723e+01 1.6519217735140870e+01 -1 1 1
2860 1 1.2797146568050174e+01 1.6175611412558993e+01 1.4586436559945582e+01 1 1 -1
2330 1 1.4393276106091136e+01 2.5637914040682432e+01 1.8515459727354295e+00 0 -1 1
1543 1 2.4095090698946205e+01 5.3021869240269126e-01 4.0202152708269452e+00 0 1 0
1519 1 1.7237020915025262e+01 2.5378635960075933e+01 1.3926673214070361e+01 0 1 0
3485 1 1.2271495420730050e+01 3.2702081894052282e-01 1.0690770743894978e+01 3 2 1
2665 1 2.1558989297998902e+01 1.3115751736609031e+01 1.7026968249390560e+01 2 -1 1
2637 1 1.9076522582793572e+01 1.3975226803228683e+01 1.6691346385450089e+01 1 -2 0
1038 1 1.0080426776601087e+01 1.5975966985708112e-01 2.2748726227191240e+00 2 -2 -2
498 1 7.6738915341035394e+00 5.5179608158781068e+00 7.5012543834115186e-01 1 -1 -1
1056 1 2.5038811974285791e+00 1.8550458427129126e+01 5.4610582271814123e-01 1 0 -1
1472 1 1.7463973864516030e-01 1.9978282081874234e+01 1.7120300440349045e+01 0 1 3
1647 1 9.6605660468165109e+00 2.4294556847888867e+01 1.7168671783747950e+01 0 0 1
147 1 1.9101961957763827e+00 3.1675322500612162e+00 1.7043242170492505e+01 1 0 0
340 1 8.2680651142076371e+00 1.8451424239116836e+01 4.8474251495662485e-01 0 0 3
199 1 8.5644852070325577e+00 1.3371774781408605e+00 1.6972252751715544e+01 -2 0 -1
2946 1 2.4226386761310263e+01 2.9085331490654331e+00 1.7148771478591499e+01 1 -1 -1
130 1 1.5032126698092641e+01 2.1144898415960018e+01 1.7109013859781570e+01 1 -1 -2
2839 1 2.8680917460919573e+00 2.9740528319697663e+00 2.0108427678438574e+01 0 -3 2
2817 1 4.7064584408057479e+00 1.0221734324851246e+00 1.9250678822256866e+01 0 0 0
1512 1 2.1541377780653783e+00 2.5555704628401593e+01 2.2247430092861258e+01 -2 -3 1