LAMMPS data file via write_data, version 7 Aug 2019, timestep = 200000

4088 atoms
1 atom types

2.5386062070498383e-01 5.1166139379292638e+01 xlo xhi
2.5386062070498383e-01 5.1166139379292638e+01 ylo yhi
2.5386062070498383e-01 5.1166139379292638e+01 zlo zhi

Masses

1 18.15

Atoms # atomic

85 1 1.5652221920388397e+01 8.5648773853236850e+00 5.5729797651725510e-01 0 0 0
4005 1 1.2919976966039007e+01 2.4258650657566521e+00 6.5368848406286950e-01 1 1 1
2741 1 3.9971112257306296e+00 4.8943499038212079e-01 2.0223412296623202e+00 1 0 1
839 1 2.3761491507786822e+01 5.1273276930368272e-01 1.1858158332952963e+01 0 0 1
3900 1 1.3718861860290122e+01 2.2334426550241639e+00 3.6002516879696480e+00 1 1 1
140 1 1.5889562954976546e+01 3.9549032493672533e+00 3.2336920568588448e+00 0 0 0
1882 1 2.0120042118044083e+01 2.6171865061114103e+00 3.5895437367763376e+00 0 1 1
840 1 1.7925540034334784e+01 3.0999263214149391e+00 1.7604409330430248e+00 0 0 1
2385 1 2.3475897030800162e+01 1.6995273112120353e+00 2.0683489862834392e+00 0 0 0
2844 1 1.2508775941514849e+00 4.7344337230588209e+00 2.6490448943300469e+00 0 0 1
2670 1 3.1615989450393962e+00 5.8172762166875760e+00 1.0739424753668629e+00 1 0 1
3537 1 4.9302425893847186e+00 6.0316841420750880e+00 3.1516298736363901e+00 1 1 0
1610 1 1.0209507252411576e+01 5.4468722721025777e+00 2.2907265593002291e+00 0 0 1
2681 1 1.1279349656677326e+01 4.5985385967371215e+00 4.9607311588062224e+00 0 0 0
1112 1 1.4561193497530125e+01 6.0398888738305905e+00 1.7129129405693679e+00 0 1 0
3007 1 9.9730197337433812e-01 5.8596163536164925e+00 1.6061066046232781e+01 1 0 1
811 1 1.3119443667827897e+01 2.4423237793110140e+01 6.5429486026321344e+00 0 0 1
268 1 5.9796300955118182e+00 2.5323621751881102e+00 1.0086689638509068e+00 0 0 0
999 1 2.5111559131745622e+01 1.2388329213082686e+01 3.9539539387746525e+00 -1 0 1
100 1 4.0316895321684365e+00 8.6812503530648204e+00 4.2643931049398196e+00 0 0 0
3722 1 8.0879913452983914e+00 7.5725713724330550e+00 1.1092216278154718e+00 1 0 1
1359 1 1.1492471743948833e+01 9.3095543376267571e+00 3.6533209436413676e+00 0 0 0
2567 1 8.0400456668557982e+00 1.2333885402116918e+01 1.6583701569637629e+01 1 0 0
843 1 1.5832558556891595e+01 1.0750639006244574e+01 1.8007248022971065e+00 0 0 1
2351 1 2.5317423496734492e+01 1.2113218901241375e+01 1.2682089914765026e+01 0 0 0
2916 1 2.3816356364461246e+01 8.1524682309648391e+00 2.1164140743011561e+00 0 0 1
3451 1 1.5841220157568159e+01 2.4007465063760016e+01 1.5983854963132602e+01 0 0 0
1681 1 6.9439551333743932e+00 1.0284637672949190e+01 1.4217449906059352e+00 0 0 1
2996 1 5.6221715907047081e+00 1.0599206760675125e+01 3.5752082469151349e+00 1 0 1
830 1 1.1211448682956140e+01 9.9564291680770509e+00 1.2091163193007306e+00 0 0 1
388 1 1.3381011733429807e+01 1.1528634730589253e+01 5.2747226803480785e-01 0 0 0
1975 1 1.8582684512002036e+01 1.3358376001900334e+01 3.4845668527917830e+00 0 1 1
2064 1 2.0416379200303826e+01 1.0771686112627105e+01 9.8471045570321836e-01 0 0 0
917 1 1.8084135510594241e+01 1.2284993301995492e+01 8.4947837279891913e-01 0 0 1
626 1 7.7018702465782232e+00 1.1115311504432603e+00 1.0737390498334110e+01 0 0 1
1117 1 2.8960443703049443e+00 1.4057446766963299e+01 1.8934403079923989e+00 0 0 0
1858 1 6.7263373804558437e+00 1.5789619874124293e+01 9.9606667835501983e-01 0 0 1
2956 1 1.4195836083794426e+01 5.5679106533700529e-01 1.5619222342886859e+01 0 0 1
265 1 6.3019917227570033e-01 1.3235677612545947e+01 1.3553140185982151e+01 0 0 0
2196 1 1.1818200458089946e+01 1.5420206962338108e+01 2.1130883824881499e+00 0 0 0
1938 1 1.3373711045422418e+01 1.3122021237455822e+01 3.1451764304873171e+00 0 1 1
3223 1 1.5489483472562682e+01 1.5488006634641074e+01 1.6998134650084469e+00 0 0 0
3397 1 1.9656442945055364e+01 1.6675308500973617e+01 5.0952935269925401e+00 0 1 0
1162 1 2.1004025897296263e+01 1.3770025470589964e+01 4.5259684597439325e+00 0 1 0
2491 1 2.4880156265739775e+01 3.6189914518931192e+00 1.1084951256883954e+01 0 0 0
1989 1 2.1914991594980943e+01 1.4876728907982548e+01 2.5084183221105385e+00 0 1 0
1704 1 2.2704506800772437e+00 1.6534768626616437e+01 2.9022850785941010e+00 0 0 1
3063 1 1.3646645691083437e+00 1.7642936191654677e+01 3.6289138546791017e-01 1 0 1
668 1 6.8178715369816008e+00 1.6833217247180599e+01 3.3945741927577378e+00 0 0 1
3622 1 8.2589940094139607e+00 1.9450434892768225e+01 3.3543682590044237e+00 1 0 0
1013 1 1.2980928477550755e+01 1.7728490133198264e+01 2.7252200299250871e+00 0 0 1
262 1 2.0775016671539355e+00 2.5702201545589734e+01 1.0714793978932263e+01 0 0 0
438 1 1.6910116593426789e+01 1.7639437167193478e+01 1.9724046085343723e+00 0 0 0
3052 1 2.1045845982735067e+01 1.8956474052020557e+01 2.0860769371476122e+00 0 0 1
1388 1 1.1015047555530623e+01 1.7453849498676388e+00 4.0847708204280480e+00 0 1 0
3227 1 2.3054133938812512e+01 1.8617917028514622e+01 3.9535347916155832e+00 1 0 0
767 1 3.1488439080118011e+00 1.9901513932292573e+01 1.2244845359345109e+00 0 0 1
842 1 8.4265117905471119e+00 2.3633008920847971e+01 3.9942186417472292e+00 0 0 1
1007 1 3.7080403185313537e+00 2.2175022765227741e+01 3.4551933236161778e+00 0 0 1
1603 1 2.1970465795005417e+01 9.7865522489403780e+00 2.9289194833152985e+00 0 0 1
2190 1 1.4112805722849935e+00 1.1328172991951533e+00 2.4522867294898387e+00 0 0 0
2614 1 8.8701298228693337e-01 8.6098391568657746e+00 1.0570234376957043e+01 1 0 0
823 1 1.1326235870778183e+01 1.9457287459422496e+01 3.5806259175974464e+00 0 0 1
712 1 5.9383023191715765e+00 1.4065137389077723e+01 1.6555985249312680e+01 0 0 0
3818 1 1.5605947802726563e+01 2.0810849712972484e+01 2.7293627212639389e+00 0 0 1
1075 1 1.8104630785258486e+01 1.8894382078099767e+01 4.8561665165866152e+00 0 1 0
627 1 1.9341459480579818e+01 2.0632883648643723e+01 3.4844289184212252e+00 0 0 1
464 1 2.4968051017415217e+01 1.0170262707574057e+01 1.5708062943435717e+01 0 0 0
1940 1 2.3863118033016914e+01 2.1022781047730938e+01 5.2227745165633026e+00 0 0 1
1634 1 7.6786888787763470e+00 2.0509016869066333e+01 7.3063677495414381e-01 0 1 0
2792 1 2.4483280997894841e+01 1.4626254627135353e+01 2.7746445984857586e+00 0 0 1
2556 1 1.1310451358538796e+01 2.3694416435202744e+01 2.6237436727726351e+00 1 0 0
3274 1 1.3865990790292567e+01 2.2818235537217184e+01 3.7255162541375841e+00 0 0 0
1138 1 1.7801116824308721e+01 2.2322367884122389e+01 2.9955993234739324e+00 0 0 0
2331 1 1.8287650132384510e+01 2.4009216147148550e+01 9.1490125477552020e-01 0 0 1
1248 1 2.1330590341755208e+01 2.1988607885983381e+01 5.0304489877475644e+00 0 0 0
931 1 2.3557918925115001e+01 2.4360346252733827e+01 2.1756293511077054e+00 0 0 1
671 1 6.9546828511084247e+00 3.0420907130110559e+00 7.2243463697892905e+00 0 0 1
1970 1 6.7109207910480198e+00 3.7680620999955274e+00 3.9051436068921936e+00 0 1 1
3393 1 4.4593716317727123e+00 3.1196106788848024e+00 6.7979580758394809e+00 0 1 0
2677 1 8.7994213247385655e+00 3.0299275616916002e+00 1.9899703239987012e+00 1 0 1
3352 1 2.5495799174723452e+01 1.0461105518238126e+01 2.1885715663068543e+00 0 0 0
1556 1 1.7146164573456105e+01 2.6126525873959139e-01 1.1848013793346682e+01 0 1 0
2562 1 1.4080748875612905e+01 4.2447825777043517e+00 5.9503641510281922e+00 0 0 0
2330 1 1.6284450333508712e+01 6.6640994150178692e+00 7.8235015002626955e+00 1 0 0
1417 1 7.6060955717518430e-01 2.3226498413929502e+01 3.0726196939384933e+00 0 0 1
92 1 1.5169857705474079e+00 3.2129559382349653e+00 4.9845111887399476e+00 0 0 0
751 1 3.3035326599387953e+00 5.5790671904795879e+00 5.7083423977122987e+00 0 0 1
1229 1 9.6353675023160665e+00 8.6097126386276788e+00 5.5306595390611664e+00 0 1 0
4084 1 1.0439494502217540e+01 5.4276360723623975e+00 7.5519967670503956e+00 0 1 1
2016 1 1.7332193884787443e+01 5.0892533248093903e+00 5.4256503528654232e+00 0 1 1
2840 1 1.9424661562020258e+01 3.7566896896354800e+00 6.0159163150542927e+00 0 0 1
2596 1 2.2020288959627507e+01 4.0218849317745375e+00 2.2867462968805041e+00 0 1 1
481 1 2.3059965849237393e+01 5.8725203249152100e+00 4.2123426638313157e+00 0 0 1
2421 1 1.1221288603454775e+00 7.4810660260777295e+00 6.4420238983666245e+00 1 0 0
200 1 8.1570894473472464e+00 6.6804416399231163e+00 4.1565344156772071e+00 0 0 0
3414 1 7.5765570967438096e+00 1.1086766166982237e+01 5.3856225397988080e+00 0 1 0
2838 1 1.2499403269703585e+01 6.8242684674698593e+00 3.8043736228540208e+00 0 0 1
1665 1 1.4087349129614102e+01 7.2990653083898609e+00 6.0305948406916379e+00 0 1 0
2155 1 1.5113198854539128e+01 9.7291381790364770e+00 5.9093997702022882e+00 0 0 0
1865 1 1.8331679769457821e+01 6.9633531453508972e+00 3.8994834215765080e+00 0 1 1
904 1 1.6994226694348853e+01 9.7846717623189878e+00 3.9033929619498418e+00 -1 0 1
2913 1 2.0831446488428437e+01 7.8885036891224924e+00 4.5938130333014202e+00 0 0 1
2514 1 2.5081856310216302e+00 1.2305392645649327e+01 5.3042406086229086e+00 1 0 0
2123 1 4.4156039286002375e+00 1.2818443514471216e+01 3.5180165789959776e+00 1 0 0
91 1 9.9532056676425746e+00 1.2468653760909126e+01 4.3483486512942138e+00 0 0 0
3150 1 1.3071791509247356e+01 1.1523481279588884e+01 5.0473953111387262e+00 1 0 0
2329 1 1.5940606311090104e+01 1.4210816906693918e+01 4.0068436020152394e+00 0 0 1
1728 1 1.8616794078026295e+01 1.1154808609626654e+01 5.1338319134588986e+00 0 0 1
925 1 2.3534157593383068e+01 1.0548350859055178e+01 6.9021060533671026e+00 0 0 1
2715 1 5.8920198690011789e+00 1.4825783469792729e+01 4.9341133935063750e+00 0 0 1
1892 1 9.4037928513216666e+00 1.1618802463049454e+01 1.7492226989494015e+00 0 1 1
2289 1 1.2014086792749929e+01 1.6359965257905554e+01 6.7389405434418901e+00 0 0 0
2496 1 1.4685409388504121e+01 1.6146466578901137e+01 5.6413857392813833e+00 1 0 0
705 1 1.8547354674302820e+01 1.7256076911340429e+01 7.5954590936623658e+00 0 0 0
3313 1 2.2132010781416724e+01 1.4551244738388609e+01 6.7885028596367141e+00 0 0 0
1306 1 2.2650886987560650e+01 1.1500526903602600e+01 4.5873988127898784e+00 0 1 1
1148 1 1.6709114781771635e+01 5.2349390070490887e-01 2.5776181189390721e+00 0 1 0
1687 1 4.3294809875755744e+00 1.8155474360492200e+01 3.4790151385036028e+00 0 0 1
1337 1 4.3537388168318021e+00 1.6681398655635089e+01 6.2929708458266154e+00 0 0 0
2920 1 9.5179377204328812e+00 1.5195369601127201e+01 3.7444688823518684e+00 0 0 1
219 1 8.1743724852935955e+00 1.8312161325643928e+01 7.3709325802339842e+00 0 0 0
1954 1 1.0035692598629410e+01 1.7387277930491273e+01 5.3134367374426423e+00 0 1 1
894 1 1.5295097026561779e+01 1.8796834355228295e+01 4.6343536970025871e+00 0 0 1
2910 1 2.1993065218466594e+01 1.7447851089162480e+01 6.6992466640539678e+00 0 0 1
3410 1 1.8340992237798905e+00 1.0119635392159847e+00 1.3925040345124213e+01 1 1 0
274 1 4.6388649939219633e+00 2.0382519699969155e+01 5.4374068546934264e+00 0 0 0
2348 1 7.4854892389124350e+00 2.0747912161900441e+01 5.8144417326400539e+00 1 0 0
1259 1 1.4133581247134931e+01 1.9891702441120366e+01 6.9805948431447060e+00 0 0 0
2959 1 1.2314852496016467e+01 2.1097786085962465e+01 5.4247983356692488e+00 0 0 1
93 1 1.6121047715090043e+01 2.1050408607243778e+01 8.3632889708384077e+00 0 0 0
1085 1 1.8372766649094725e+01 2.0051126259177011e+01 7.5930222369687792e+00 0 1 0
2035 1 2.4728969998211845e+01 2.2425851012790030e+01 7.7269339093740221e+00 0 1 1
299 1 2.9569715563821592e+00 8.4084839821647357e+00 1.6383265659002884e+01 0 0 0
320 1 1.3062955133980911e+00 2.1280014331679556e+01 5.3644386229852854e+00 1 0 0
1501 1 6.3356203201405954e+00 2.3609151860911279e+01 6.4254404943250165e+00 0 0 0
3453 1 1.0146496068042161e+01 2.2791064311334704e+01 5.9457739834978085e+00 1 0 0
2246 1 1.6237487530576836e+01 2.4071199264075457e+01 4.8840753813667455e+00 0 0 0
2822 1 6.1678387252116709e+00 2.2582430207644610e+01 2.3277733843123403e+00 1 0 1
170 1 4.3832866465347831e-01 1.0791642616760214e+01 8.8625624006456292e+00 0 0 0
1553 1 2.4799164734685888e+01 1.2454776307890455e+01 1.7060523856662158e+01 0 1 0
3358 1 1.9924846383924073e+01 2.2506430124286105e+01 7.4314118203556516e+00 1 0 0
1038 1 2.4312043382421152e+01 2.4696224086598196e+01 6.2075493997726525e+00 0 0 0
2295 1 2.9666521128631236e+00 3.0562261760425793e+00 9.0038485840792628e+00 1 0 0
6 1 4.4689910465832510e+00 3.7284461974343812e+00 1.1286788523985548e+01 0 0 0
1437 1 1.1457125218253882e+01 3.2885804319874650e+00 9.1108654813542760e+00 0 1 0
110 1 6.7038007664066752e+00 3.3297379518234460e+00 9.8680410003531982e+00 0 0 1
2487 1 1.4926543222681934e+01 2.1943639872454757e+00 1.0103006838179043e+01 0 0 0
2832 1 1.9237312981515096e+01 1.9087062486088195e+00 7.7022060975348952e+00 1 0 1
456 1 2.1493811819474846e+01 1.6270016177010813e+00 9.3606042773184175e+00 0 0 0
1416 1 6.6353073892236192e-01 1.2686970288903994e+00 8.2117692111754970e+00 0 1 0
3020 1 6.7941209250659362e-01 4.7002176943973675e+00 9.1340192072061352e+00 1 0 1
11 1 2.4629236618182930e+00 6.9362525351763962e+00 9.0658504416481129e+00 0 0 0
556 1 7.9751604003238779e+00 5.7785083073461792e+00 9.6852081242896872e+00 0 0 1
1958 1 7.4195543417221286e+00 5.7362290511005209e+00 6.7168003272141084e+00 0 1 1
3614 1 1.2223004123901266e+01 5.1858014492469406e+00 1.1198701438667479e+01 1 1 0
1651 1 1.1996946223781826e+01 7.5458427463232356e+00 7.7821114169827430e+00 0 1 0
2682 1 1.3601267141937830e+01 2.2502353775504274e+00 7.7710718640252336e+00 1 0 1
2301 1 1.7839620183967636e+01 3.1104658070555380e+00 9.8367561586145396e+00 0 0 0
631 1 1.8165407289009124e+01 5.8735102406898561e+00 9.8102381531314595e+00 0 0 0
934 1 2.1983586606771492e+01 4.6989044900384220e+00 6.3370281546506586e+00 0 0 1
2540 1 2.2774870184361536e+01 6.5245777018485107e+00 9.7403420001537864e+00 1 0 0
106 1 2.3933259707308160e+01 3.9363875825753736e+00 8.4081834905320978e+00 0 0 0
858 1 6.1832203202392995e+00 8.2207098464323511e+00 9.7086815927094126e+00 0 0 1
17 1 5.0335680394435176e+00 7.6522765621156319e+00 7.0333690690506243e+00 0 0 0
2139 1 8.0980074826137702e+00 9.6615332994487222e+00 8.2218254347054298e+00 1 0 0
1962 1 1.0619575113313813e+01 9.8365779172539707e+00 8.7653699264464162e+00 0 1 1
257 1 1.0023401565280876e+01 1.0355485543566587e+01 1.1313135120595353e+01 0 0 0
1667 1 1.5697452496343161e+01 7.9865953950921842e+00 1.0341180603350720e+01 0 1 0
967 1 2.0756281729567117e+01 6.4929075931080380e+00 8.2682404829677694e+00 0 0 1
206 1 2.1242386639233032e+01 8.9323716552864454e+00 7.1723685060306144e+00 0 0 0
3083 1 2.4234557053543437e+01 1.0647410013244367e+00 7.6248704598309436e+00 0 1 0
1715 1 2.6997164506020614e+00 1.0211153140867763e+01 7.2130843698190645e+00 0 0 1
683 1 4.0758892454319788e+00 1.1553892769680028e+01 9.2353352321692075e+00 0 0 0
728 1 6.8024889935932418e+00 1.2208498194589971e+01 8.5237440471443122e+00 0 0 1
133 1 1.2046232530471420e+01 1.2387219706294086e+01 1.1483504584430747e+01 0 0 0
690 1 1.1796466826165826e+01 1.2048701478726098e+01 7.4238049553961254e+00 0 0 0
2113 1 1.6104273021406005e+01 1.0251930683428201e+01 8.3146608850248356e+00 0 -1 0
3010 1 1.8198757046394039e+01 1.1953265105659447e+01 7.6428955655802682e+00 0 0 1
443 1 2.2920981572438574e+01 1.1938972946989017e+01 9.3155107577400447e+00 0 0 0
3171 1 2.4907960561823539e+00 1.4628445367560373e+01 6.5073393317400852e+00 1 0 0
1314 1 6.6944623146808908e+00 1.5976798683118643e+01 8.2178862895286429e+00 0 1 0
1093 1 3.0516193622823389e+00 1.4214461310213824e+01 9.3152337852684184e+00 0 0 0
2622 1 7.8285009428751211e+00 1.3843125433008176e+01 6.5167036782500585e+00 1 0 0
2560 1 1.0372789718456323e+01 1.4262241518757259e+01 7.5873601375253772e+00 1 0 0
643 1 1.6048327002872838e+01 1.6399819043870526e+01 8.0035097542012998e+00 0 0 0
2722 1 1.6368750588052219e+01 1.3941004501775955e+01 9.0206228918466280e+00 1 0 0
1158 1 2.0024986833612772e+01 1.5573423959993089e+01 9.2625900878664407e+00 0 1 0
315 1 2.0522182309314807e+01 1.2945538006277911e+01 8.6395403803007849e+00 0 0 0
31 1 2.4604809448169611e+01 1.4353813660416378e+01 7.9514000811412711e+00 0 0 0
3354 1 4.3350255308783903e-01 1.7568465279180067e+01 1.5650852072569322e+01 1 0 0
1113 1 3.0673898098950625e+00 1.7822142677686216e+01 8.5429235100083698e+00 0 0 0
1507 1 2.2038014635399701e+01 1.3467983506919815e+01 1.7020050532121946e+01 0 1 0
2268 1 1.0216199658173526e+01 1.9572193223145280e+01 8.8132167406813746e+00 1 0 0
1649 1 1.2372729560589907e+01 1.7975086918375638e+01 8.7537355470734788e+00 0 1 0
3448 1 1.4651654846554887e+01 1.7548278165148080e+01 1.0402368053763400e+01 1 0 0
1998 1 2.0840667590863067e+01 1.9256330500807373e+01 9.2848844621219513e+00 0 0 1
763 1 2.2112803605227207e+01 1.6805215868579751e+01 1.0516907003528683e+01 0 0 1
1355 1 2.5309972794166704e+01 1.9243537549454743e+01 7.2050131123181087e+00 0 0 0
2271 1 2.4517839385110349e+01 1.6917164151513269e+01 8.9151625528148024e+00 0 0 0
2726 1 4.2667327813040155e+00 2.0584343875918506e+01 8.3244608735255401e+00 1 1 1
2325 1 6.7604877505737804e+00 2.1718793877886579e+01 9.6039147429705771e+00 1 0 0
2851 1 9.2652113917215857e+00 2.2297902585999591e+01 8.5793008680278575e+00 1 0 1
1022 1 1.6951899814241315e+01 2.3635780286859561e+01 7.4399355730130576e+00 0 0 0
60 1 1.6135641786429559e+01 1.9885201819883420e+01 1.0786918321370802e+01 0 0 0
1539 1 2.1829854592388440e+01 2.3034190886206858e+01 8.9599078326600239e+00 0 0 0
864 1 2.2147617607662905e+01 2.1092774703100073e+01 1.0545458292292714e+01 0 0 1
3961 1 1.8575727015783359e+00 2.2077144035027246e+01 8.1501449115859970e+00 1 0 1
849 1 3.4334248321128147e+00 2.4391792835735480e+01 8.5616921849547989e+00 0 0 1
3790 1 2.5569600183445221e+01 6.2746418893918818e+00 3.9902197623022131e+00 0 0 1
562 1 7.7261195169486632e+00 2.5662548989813111e+01 1.0012518818353429e+01 0 0 0
792 1 1.0304617196065424e+01 2.4046239945197868e+01 1.0656021061647948e+01 0 0 0
1140 1 1.0141201474661486e+01 2.5566663226139656e+01 7.1577978802961653e+00 0 0 0
892 1 8.8666153782940125e+00 1.4081612845675361e+01 7.4228725960498365e-01 0 0 1
2500 1 1.1620493485729570e+01 2.1269117272813482e+01 1.3427112700798234e+00 1 0 0
158 1 1.9660507522111427e+01 2.5407780087874567e+01 5.7535562582851663e+00 0 0 0
4051 1 2.2938205391576670e+01 2.5484259116924520e+01 9.9506674146983389e+00 0 0 0
155 1 5.6420615214265879e-01 3.5149405506839626e+00 1.3729587905330652e+01 0 0 0
3671 1 7.7989108456910685e+00 2.3211851556634219e+01 1.3326152182751992e+01 1 0 0
1460 1 4.7527252845441730e+00 3.3354065820452377e+00 1.5344355706043961e+01 0 1 0
601 1 8.0706359955166107e+00 2.2327732117179039e+01 1.5720625084390573e+01 0 0 0
1666 1 9.6057745985656471e+00 3.3358692149328868e+00 1.4005376484982500e+01 0 1 0
330 1 2.5597781108543131e+01 7.8266762008647239e+00 1.1228567253477102e+01 0 0 0
30 1 1.3035279382428273e+01 1.9927900120143369e+00 1.3839121039198984e+01 0 0 0
3168 1 2.4621893312496251e+01 2.1928993493524768e+01 2.7578662427280891e+00 0 0 0
1518 1 1.0331472436646974e+01 2.0265990937662526e+00 1.1565205915442036e+01 0 1 0
132 1 2.0543645677242381e+01 2.9226349505560267e+00 1.1563648454548243e+01 0 0 0
860 1 1.8495519463740610e+01 6.1177986886814253e+00 1.5488625015377098e+00 0 0 1
579 1 4.3080510273435646e+00 6.4845176685830319e+00 1.0803582920589196e+01 0 0 0
402 1 6.1581966196454907e+00 7.7839429805638485e+00 1.5528969304751659e+01 0 0 0
2345 1 9.6263932757554809e+00 5.3253332713785833e+00 1.1637500553371545e+01 1 0 0
2393 1 1.4197819999827312e+01 3.6562868101403652e+00 1.2243706668682481e+01 0 1 0
488 1 1.2961070213880749e+01 7.7221760079307655e+00 1.0285853817871907e+01 0 0 0
1223 1 1.7804611831849847e+01 2.7264452646135124e+00 1.2716615869196472e+01 0 1 0
3499 1 1.5854338081542789e+01 5.1511905341003477e+00 1.3308775083653540e+01 1 1 0
2204 1 2.2022353421340430e+01 5.1217017165766521e+00 1.2245264388163607e+01 0 0 0
453 1 5.3273762285576187e-01 9.7611666364718328e+00 1.4623409510531165e+01 0 0 0
574 1 2.4387753178061260e+00 8.3682141328795829e+00 7.0717450775333957e-01 0 0 1
128 1 2.4918898489952603e+00 9.5181115076059744e+00 1.2660858306274999e+01 1 0 0
1675 1 6.3921908754425880e+00 9.3713198779528373e+00 1.2620506484040892e+01 0 1 0
2353 1 1.0086679829870363e+01 7.9140931639774470e+00 1.2717379371466441e+01 1 0 0
2297 1 1.2726188838298237e+01 8.2018439063544619e+00 1.3128107922908548e+01 1 0 0
3712 1 1.8364929632019937e+01 7.0066596544618482e+00 1.2567462107233478e+01 0 1 0
2835 1 2.0887409926328129e+01 7.3352542500121816e+00 1.3382041829730648e+01 0 0 1
1573 1 2.1634479671379538e+01 9.0820909543615596e+00 1.1008566618518735e+01 0 1 0
2381 1 2.4123179245306357e+01 9.9540526463982335e+00 1.1474957316266483e+01 0 1 0
175 1 7.7063929026334421e-01 1.8814556762382409e+01 1.2125013165723798e+01 0 0 0
1324 1 4.6994710435225224e+00 1.1439247120959093e+01 1.2007564706493875e+01 0 0 0
81 1 7.7866611585286902e+00 1.2231291763730077e+01 1.2504493497819031e+01 0 0 0
36 1 1.5521676874149003e+01 1.1712689349190843e+01 1.2316146003916575e+01 0 0 0
846 1 1.9272637723751849e+01 9.3561280177307111e+00 9.2710342380474930e+00 0 0 1
2842 1 1.7317573448124108e+01 9.3986556524688218e+00 1.1856422403199886e+01 0 0 1
2321 1 8.2313212342625199e+00 6.8607714372619455e-01 7.5653675881261586e+00 1 0 0
3508 1 2.2568821233158374e+01 9.3533656456594318e+00 1.4354859964863298e+01 0 1 1
14 1 4.3102213687394118e+00 1.8253014614659868e+00 1.3070016150055785e+01 0 0 1
909 1 1.3363489364660833e+01 1.8141132363072966e+01 1.6529545715544973e+01 0 0 0
2646 1 3.9412041261606099e+00 1.5589795989902404e+01 1.2718060194444694e+01 1 0 0
398 1 7.9471763787926504e+00 1.4182006929918535e+01 1.0548725798798934e+01 0 0 0
3349 1 1.0684342672526496e+01 1.4421571886406351e+01 1.0274380726099157e+01 1 0 0
2116 1 1.3108605995406824e+01 1.4318693516789795e+01 1.3522497944936452e+01 0 0 0
147 1 1.3980245434809643e+01 1.1800255991867941e+01 9.4282919664896845e+00 0 0 0
919 1 1.8278073245976021e+01 1.4733746557310598e+01 1.1377276123335605e+01 0 0 0
2308 1 2.0543035152306309e+01 1.2915569731338934e+01 1.1513649817523575e+01 0 0 0
3987 1 3.2040659530117175e+00 1.8192938123758651e+01 1.2917291173928529e+01 1 0 1
3343 1 4.6247726948783745e+00 1.6001946716324383e+01 1.0216828425209673e+01 1 0 0
1490 1 7.2041035127944317e+00 1.6811000709769978e+01 1.2019757180556701e+01 0 1 0
639 1 9.0032436041659132e+00 1.8563349821141632e+01 1.1257072385160431e+01 0 0 0
1524 1 1.3246086104525183e+01 2.0370233821527645e+01 1.4110257154000486e+01 0 0 0
467 1 1.1016028615110455e+01 1.6864401881179113e+01 1.1622725048226950e+01 0 0 0
1536 1 1.8790648057195138e+01 1.7165823897585486e+01 1.2847335135263663e+01 0 0 0
290 1 1.4826580197059968e+01 1.4800611413339244e+01 1.1257371171233117e+01 0 0 0
1190 1 1.8651506271179027e+01 1.9282142543168167e+01 1.1250988671295572e+01 0 0 0
1680 1 2.1694862766340588e+01 1.6869088726117706e+01 1.3144894429322271e+01 0 0 1
809 1 1.3104620246703391e+01 2.1810465709917704e+01 1.6471296241515365e+01 0 0 0
3486 1 5.4994311049981470e-01 2.2059464471553373e+01 1.4994061717038372e+01 1 0 0
1216 1 1.1728332489986086e+00 9.0145906607072863e+00 3.5479389392444944e+00 0 1 0
930 1 4.6283577643422618e+00 2.0528255917887318e+01 1.3625213776802697e+01 0 0 1
2090 1 7.1399901496411635e+00 2.0764878692078586e+01 1.2265275355885388e+01 1 0 0
1362 1 1.2515047117625240e+01 2.4106337396018194e+01 1.4646686849798167e+01 0 0 0
2240 1 1.0548378863644960e+01 1.9836143133524885e+01 1.3486829686132577e+01 1 0 0
327 1 1.4846281614051982e+01 2.1466839469209400e+01 1.2504364956360417e+01 0 0 0
2476 1 1.8912632145813362e+01 2.3345755025062662e+01 1.3136553783637252e+01 1 0 0
3808 1 2.2029422992790352e+01 1.9596805460947888e+01 1.4303030085126988e+01 1 0 0
1100 1 2.0299576580142141e+01 2.0970762375481968e+01 1.2818111735647078e+01 0 0 0
1519 1 2.4165098732771291e+01 1.9964015297899888e+01 1.2266552202576742e+01 0 1 0
476 1 1.5139643592001450e+00 2.3473919408719635e+01 1.2155583575530702e+01 0 0 0
3153 1 5.6072087246288014e+00 2.3940506918317919e+01 1.0411754977303531e+01 1 0 0
2312 1 3.8914190441095071e+00 2.2681268346368100e+01 1.2622508186154395e+01 1 0 0
545 1 1.0623595233195779e+01 2.2742013362749436e+01 1.3064010808731799e+01 0 0 0
2380 1 2.5665801531644266e+01 1.7865323355588885e+01 1.1344005057820164e+01 0 0 0
238 1 1.4540257945509596e+01 2.4303428107461983e+01 1.2039532880664284e+01 0 0 0
164 1 1.7535995439911957e+01 2.4360744866381687e+01 1.0410036747524115e+01 0 0 0
3145 1 2.5077354301635605e+01 2.4837028743251395e+01 1.1805185093184793e+01 0 0 0
1255 1 2.2439756796303751e+01 2.4427493024415753e+01 4.5538013358918183e+00 0 0 0
2144 1 6.2982239952320835e+00 2.0551608995871678e+01 1.6061740651895640e+01 1 0 0
326 1 7.7961263701907955e+00 2.3467935426958708e+00 1.5373893390598894e+01 0 0 0
2089 1 4.3587292392920507e-01 2.1393993194764189e+01 1.0573221417308684e+01 1 0 0
868 1 1.1463083977753499e+01 3.4623426325601989e+00 1.5410333209185895e+01 0 0 1
4 1 4.1191335501279429e+00 2.3501752520763322e+01 1.6840315938640131e+01 0 -1 0
1973 1 5.2356367223737506e+00 1.3905040353031943e+00 4.5777633840097938e+00 0 1 1
292 1 1.9271222942753099e+01 1.7473141614855412e+00 1.5040150890113519e+01 0 0 0
309 1 2.3507926222906697e+01 1.9481354305799339e+00 1.4884369253388774e+01 0 0 0
3028 1 4.3798846874919324e+00 2.5220375602972965e+01 1.4602452504067358e+01 1 0 1
353 1 2.1037785260641844e+01 6.8648042265098053e-01 1.3406102581231151e+01 0 0 0
654 1 2.9128269628591275e+00 5.3181469411016442e+00 1.4362207613508730e+01 0 0 0
824 1 5.9656952133478691e-01 1.2415826632451923e+01 1.0939525641824550e+00 0 0 1
1570 1 6.2665630817976323e+00 5.6013694197065220e+00 1.7069148197007433e+01 0 1 0
2605 1 2.5366744510672593e+01 1.7100592754188398e+01 3.1558398307397257e+00 0 0 1
3617 1 1.2507923002953204e+01 5.7518396384687520e+00 1.6781823886727214e+01 1 1 0
1621 1 1.4433398519564916e+01 2.4972426586463698e+01 8.8452002237408340e+00 0 0 0
3023 1 1.4129473486322475e+01 6.7221240154029100e+00 1.4786985623252320e+01 0 0 1
1298 1 1.7611375465196183e+01 4.1692736084481332e+00 1.5983395077407263e+01 0 1 0
2111 1 2.4106318135794552e+01 4.7907357545674918e+00 1.4819675549161092e+01 0 0 0
3690 1 4.0757539228740125e+00 7.5031477496890284e+00 1.3378291626501074e+01 1 1 0
953 1 6.2513503944111433e+00 2.4787147575650824e+01 1.3659519340591444e+00 0 0 1
3472 1 9.1539900399984102e+00 8.3093737095499556e+00 1.5231283898975754e+01 0 1 0
397 1 1.4631349285914370e+01 8.9345564886741240e+00 1.6429185986485276e+01 0 0 0
3861 1 1.3465843897261713e+01 1.0742207843132164e+01 1.3842999232151728e+01 1 1 0
475 1 1.9937748984661759e+01 7.7039619120303247e+00 1.6379856585696302e+01 0 0 0
681 1 1.7420620789835034e+01 8.8234465068798276e+00 1.6895115723280067e+01 0 0 0
1302 1 2.2816910149386310e+01 6.8353596328652575e+00 1.6366499733295974e+01 0 1 0
2410 1 2.0794879924669914e+01 1.1432986674885520e+01 1.5889541676598061e+01 0 0 0
496 1 4.2385886514633313e+00 2.4839002141597863e+01 4.9855146285329424e+00 0 0 0
3173 1 3.5985039235341776e+00 1.2646578751625036e+01 1.6599968503005780e+01 1 0 0
229 1 1.9714634508571070e+01 1.6830030644426106e+01 2.0467897699599567e+00 0 0 0
344 1 9.2120467876404124e+00 1.1232156063890276e+01 1.4745428588729535e+01 0 0 0
3042 1 1.1976376056212267e+01 1.2210042753570319e+01 1.5646829554463192e+01 0 0 1
1754 1 1.8100580303394786e+01 1.1359744529861146e+01 1.5542036254084930e+01 0 1 0
2079 1 1.9671397252462132e+01 1.0807416094551577e+01 1.2677808147839533e+01 0 0 0
439 1 8.3341220904024782e-01 1.4161623994161104e+01 1.1009174295985085e+01 0 1 0
409 1 3.3573092667624933e+00 1.3116427490733439e+01 1.3342912497612485e+01 0 0 0
37 1 8.0764727401148626e+00 1.4517954875205955e+01 1.4219260134245134e+01 0 0 0
231 1 1.0505759420176357e+01 1.5483810521296304e+01 1.4505989437053048e+01 0 0 0
1939 1 1.3664243576419018e+01 1.7659024844059545e+01 1.3233871027903110e+01 0 1 0
2964 1 1.5407497360151448e+01 1.4709656462316952e+01 1.5212127983120588e+01 1 0 0
710 1 1.7206348507427055e+01 1.3351291796504857e+01 1.3816522587156934e+01 0 0 1
638 1 1.9221328409268558e+01 1.4930371914129086e+01 1.5171411584202017e+01 0 0 0
181 1 2.1793694662022112e+01 1.4096411281990800e+01 1.3889739007033905e+01 -1 0 0
616 1 2.4489770374753419e+01 1.4024231201019431e+01 1.4577040283526822e+01 0 0 0
1957 1 1.6837937943225263e+01 2.1807825019040198e+01 1.4439911370746914e+01 0 1 0
560 1 3.0858876682346486e+00 1.7820845755924328e+01 1.5998288311894790e+01 0 0 0
342 1 5.2196244085980030e+00 1.6174057308623802e+01 1.5214989176593168e+01 0 0 0
1027 1 9.5687633952751820e+00 1.8075477845536280e+01 1.5559353679241346e+01 0 0 0
1411 1 7.1258808159643294e+00 1.8407162924786853e+01 1.4635295472386764e+01 0 1 0
1316 1 1.6181600152057001e+01 1.7246215908091376e+01 1.4442210506061185e+01 0 0 0
521 1 1.9486564244738965e+01 1.8602205696265219e+01 1.5535776505507547e+01 0 0 0
761 1 1.6955963578308875e+01 1.9487999906564724e+01 1.5750044923385845e+01 0 0 1
526 1 2.7342455049778702e+00 2.1252359532287130e+01 1.5997810659059544e+01 0 0 0
1188 1 1.4330264986371748e+01 2.1070610152684182e+01 4.0223874409344029e-01 0 0 0
2909 1 2.1838183768566861e+01 4.9937883582732967e-01 3.1497858041330609e+01 0 0 0
2599 1 1.0953062346465851e+01 1.4402933115543879e+00 1.7243342469457293e+01 0 0 0
2358 1 7.7615555241785987e+00 2.9282961198911930e+00 1.8589435131414103e+01 1 0 0
1555 1 1.0087657163762378e+01 2.3103557174802023e+00 1.9884690200070057e+01 0 1 0
1609 1 1.3059967167119600e+01 1.7374643101487022e+00 2.0547438295415660e+01 0 1 0
1512 1 1.2049544179645427e+01 9.6906529988689467e+00 1.7978796319399578e+01 0 1 0
416 1 1.9733483145452354e+01 3.1718204678617892e+00 1.9223196425343968e+01 0 1 0
814 1 2.8553757852373920e+00 1.9421131056509470e+01 3.2542198481624482e+01 1 0 0
3086 1 7.2644960885936127e+00 2.4906094232640836e+01 2.5572860610771436e+01 0 0 0
1657 1 1.9070737009594588e+01 5.5282842473775720e+00 1.7994856453789907e+01 0 1 0
691 1 1.1383848601046505e+00 1.2467745922411051e+01 2.3145943718702590e+01 0 0 0
2338 1 9.2744551013400471e+00 1.9666520053414956e+01 3.3778863105344080e+01 0 0 0
1531 1 3.1893370557148830e+00 3.5666201869061402e+00 1.9320372949462453e+01 0 1 0
3252 1 3.3770819420718481e+00 6.2530258318559202e+00 1.8131857526433809e+01 0 1 0
3379 1 9.6638881499195950e+00 4.7562024048861575e+00 2.0871590310948744e+01 0 1 0