
# Create simulation box and atoms
lattice		    sc 1
Lattice spacing in x,y,z = 1 1 1
region 		    all block 0 51.42 0 51.42 0 51.42 units box
create_box 	    1 all
Created orthogonal box = (0 0 0) to (51.42 51.42 51.42)
  2 by 2 by 3 MPI processor grid

create_atoms	1 random 4457 ${SEED} all
create_atoms	1 random 4457 3252 all
Created 4457 atoms
  create_atoms CPU = 0.000425339 secs

mass		    1 18.15

# Define potential

pair_style 	    sw
pair_coeff	    * * mW_real.sw mW
Reading potential file mW_real.sw with DATE: 2019-02-27

# Run minimization

minimize 	    1.0e-8 1.0e-8 10000 1000
WARNING: Using 'neigh_modify every 1 delay 0 check yes' setting during minimization (../min.cpp:168)
Neighbor list info ...
  update every 1 steps, delay 0 steps, check yes
  max neighbors/atom: 2000, page size: 100000
  master list distance cutoff = 6.3065
  ghost atom cutoff = 6.3065
  binsize = 3.15325, bins = 17 17 17
  1 neighbor lists, perpetual/occasional/extra = 1 0 0
  (1) pair sw, perpetual
      attributes: full, newton on
      pair build: full/bin/atomonly
      stencil: full/bin/3d
      bin: standard
Per MPI rank memory allocation (min/avg/max) = 4.224 | 4.227 | 4.229 Mbytes
Step Temp E_pair E_mol TotEng Press 
       0            0      3191030            0      3191030    2271920.3 
     705            0   -50237.193            0   -50237.193   -1186.9652 
Loop time of 1.91996 on 12 procs for 705 steps with 4457 atoms

98.7% CPU use with 12 MPI tasks x no OpenMP threads

Minimization stats:
  Stopping criterion = max force evaluations
  Energy initial, next-to-last, final = 
         3191029.96138     -50236.8881357     -50237.1926775
  Force two-norm initial, final = 4.77484e+07 4.12559
  Force max component initial, final = 2.27557e+07 1.39894
  Final line search alpha, max atom move = 0.0588908 0.0823845
  Iterations, force evaluations = 705 1001

MPI task timing breakdown:
Section |  min time  |  avg time  |  max time  |%varavg| %total
---------------------------------------------------------------
Pair    | 1.4408     | 1.5966     | 1.7407     |   7.5 | 83.16
Neigh   | 0.021666   | 0.023131   | 0.025083   |   0.6 |  1.20
Comm    | 0.12       | 0.26592    | 0.42072    |  18.5 | 13.85
Output  | 0          | 0          | 0          |   0.0 |  0.00
Modify  | 0          | 0          | 0          |   0.0 |  0.00
Other   |            | 0.03427    |            |       |  1.79

Nlocal:    371.417 ave 377 max 363 min
Histogram: 2 0 2 0 0 0 2 1 0 5
Nghost:    1059.5 ave 1067 max 1050 min
Histogram: 2 0 2 0 0 1 2 2 2 1
Neighs:    0 ave 0 max 0 min
Histogram: 12 0 0 0 0 0 0 0 0 0
FullNghs:  12052.8 ave 12445 max 11651 min
Histogram: 3 1 0 0 2 0 2 1 1 2

Total # of neighbors = 144634
Ave neighs/atom = 32.451
Neighbor list builds = 35
Dangerous builds = 0

# Create Cavity with Hard sphere "indent" potential

region		    cavity sphere 25.71 25.71 25.71 13.8 side in
delete_atoms	    region cavity
Deleted 369 atoms, new total = 4088
fix 		    5 all indent 10.0 sphere 25.71 25.71 25.71 13.8

# Equilibration of molecular water

# Add velocity/set timestep

velocity	    all create ${TEMP} ${SEED} rot yes dist gaussian
velocity	    all create 215 ${SEED} rot yes dist gaussian
velocity	    all create 215 3252 rot yes dist gaussian
timestep	    5.0

# Define output

compute			1 all msd
thermo	    	50
thermo_style	custom step temp press vol etotal ke pe c_1[4]

# Neighbor lists

neigh_modify    delay 0 every 1 check yes

# Set fixes

fix             1 all momentum 10 linear 1 1 1 rescale
fix             2 all nve
fix             3 all temp/csvr ${TEMP} ${TEMP} 500.0 ${SEED}
fix             3 all temp/csvr 215 ${TEMP} 500.0 ${SEED}
fix             3 all temp/csvr 215 215 500.0 ${SEED}
fix             3 all temp/csvr 215 215 500.0 3252
fix             4 all press/berendsen iso ${PRES} ${PRES} 1000.0 modulus 20000
fix             4 all press/berendsen iso 1.0 ${PRES} 1000.0 modulus 20000
fix             4 all press/berendsen iso 1.0 1.0 1000.0 modulus 20000

# Run 1 ns equilibration

dump		    1 all atom 2000 ${DIR}/eq.${NAME}-${TEMP}.dump
dump		    1 all atom 2000 run_1/eq.${NAME}-${TEMP}.dump
dump		    1 all atom 2000 run_1/eq.hardcavity_freeze_1-${TEMP}.dump
dump		    1 all atom 2000 run_1/eq.hardcavity_freeze_1-215.dump

reset_timestep  0

run	            200000
Per MPI rank memory allocation (min/avg/max) = 4.488 | 4.491 | 4.493 Mbytes
Step Temp Press Volume TotEng KinEng PotEng c_1[4] 
       0          215   -383.32899    135955.32   -42901.034    2619.2527   -45520.287 3.1311358e-33 
      50    136.88524   -187.88871    135981.07   -42315.553    1667.6141   -43983.167    0.2147327 
     100    152.91836   -111.33097    135746.25   -41872.149    1862.9388   -43735.087   0.38423199 
     150    169.67063   -29.573462    135719.59    -41519.23    2067.0244   -43586.254   0.53027623 
     200    176.28073   -52.269576       135600   -41302.718    2147.5525   -43450.271   0.68866368 
     250    185.51632   -192.87395     135386.2   -41096.486    2260.0657   -43356.552   0.85760509 
     300    194.46969   -57.197396    135176.18   -40899.122    2369.1407   -43268.263    1.0370559 
     350    201.11174   -69.308461    135078.19   -40749.657    2450.0579   -43199.715    1.2208555 
     400    204.70129   -89.011124    134947.15   -40677.516     2493.788   -43171.304    1.4160609 
     450    203.59116   -177.09849    134709.71   -40619.022    2480.2637   -43099.285    1.5959784 
     500    203.69259   -130.48989    134270.52   -40564.744    2481.4994   -43046.243    1.7488962 
     550    212.07664   -156.13997    134051.01   -40551.902    2583.6387   -43135.541    1.9177275 
     600    212.78477    -267.2741    133831.71   -40535.006    2592.2655   -43127.272    2.0877105 
     650    212.75023   -93.471807     133721.8   -40485.373    2591.8448   -43077.217    2.2878364 
     700    212.95571   -40.979789    133383.59   -40463.556     2594.348   -43057.904    2.4322515 
     750    210.56616   -223.84113    133323.29   -40451.927    2565.2372   -43017.164    2.6696394 
     800    210.35969   -9.4619113    133250.97   -40415.503    2562.7217   -42978.225    2.8854303 
     850    211.83605   -99.165645    133238.58   -40443.226    2580.7077   -43023.934    3.0567054 
     900     212.2575    73.372321    133331.51   -40450.627    2585.8419   -43036.469    3.2682628 
     950    212.02485    84.293466    133335.94   -40433.111    2583.0078   -43016.119    3.4600533 
    1000    220.38783   -231.98746    133088.28   -40429.342    2684.8903   -43114.232    3.6907068 
    1050    215.27623    51.295374    133079.13   -40402.045    2622.6179   -43024.663    3.9411975 
    1100     215.5912   -282.78855    132802.88   -40411.282     2626.455   -43037.737    4.1542218 
    1150    216.09107    -45.24899    132735.17   -40391.677    2632.5447   -43024.222    4.2845599 
    1200    215.94622   -84.325014    132663.35   -40416.504    2630.7801   -43047.284    4.4119414 
    1250    217.88597   -149.03145    132509.23   -40439.904    2654.4112   -43094.315    4.5726437 
    1300    215.56375   -14.412367    132383.53   -40430.062    2626.1207   -43056.183    4.7864628 
    1350    213.17209   -63.251279     132375.5   -40469.565    2596.9841    -43066.55    4.9973176 
    1400     215.6702   -75.852658     132397.1   -40521.083    2627.4174     -43148.5    5.1698573 
    1450    214.83805   -105.94171    132483.24   -40523.531    2617.2797    -43140.81     5.366622 
    1500    215.01936    47.319909    132328.41   -40508.352    2619.4885   -43127.841    5.5305719 
    1550    215.06294   -86.242907    132219.52   -40485.041    2620.0195    -43105.06    5.6762777 
    1600    213.92423    32.032667    132291.55   -40493.934    2606.1471   -43100.081    5.8250258 
    1650     215.0087    95.050584    132339.14   -40522.622    2619.3587   -43141.981    6.0243423 
    1700    216.55755    122.54266    132305.84   -40491.953    2638.2276   -43130.181    6.1313356 
    1750    213.01847    -54.46292    132242.54   -40535.739    2595.1125   -43130.851    6.3085967 
    1800    213.47691   -81.453332    132162.06   -40520.929    2600.6976   -43121.627    6.4878945 
    1850    214.80247    7.3713311    132054.56   -40512.023    2616.8463   -43128.869    6.5906311 
    1900    214.75421    2.0421369    131936.46   -40491.986    2616.2584   -43108.244    6.7497799 
    1950    211.04375    218.58606     131923.9   -40475.995    2571.0554    -43047.05    6.9552441 
    2000    215.74915   -38.226285    132012.75   -40491.048    2628.3793   -43119.428    7.0673296 
    2050    215.92236    108.78084    132086.71   -40490.631    2630.4894    -43121.12    7.2092504 
    2100    213.81778   -23.551821    132103.78   -40587.629    2604.8503    -43192.48    7.3942858 
    2150    218.39135     2.057189    132150.85   -40589.435    2660.5681   -43250.003    7.5917312 
    2200     214.4537    118.31429    132101.43   -40601.682    2612.5973    -43214.28    7.8127208 
    2250    214.56817   -158.59729    132012.35   -40638.089    2613.9919   -43252.081    7.9977282 
    2300     212.5597   -25.999906    131936.42   -40625.943    2589.5235   -43215.467    8.1231004 
    2350    212.54166    60.449743    132040.22   -40657.421    2589.3038   -43246.725    8.2235051 
    2400     212.9021    20.022757    131981.54   -40644.444    2593.6949   -43238.139    8.3157367 
    2450     210.5596    113.51129    131935.39   -40625.075    2565.1572   -43190.232    8.4048544 
    2500    214.88388    9.0490825    132005.25   -40635.755    2617.8381   -43253.593    8.4799551 
    2550    212.44617   -64.981877    131971.39   -40662.941    2588.1405   -43251.082    8.6446019 
    2600    208.13741     24.77741    131930.61   -40691.522    2535.6488   -43227.171    8.8693252 
    2650     211.9018    -210.2104    131942.07   -40682.413    2581.5087   -43263.921    9.1042605 
    2700    212.60024   -21.698689    131688.63   -40734.548    2590.0175   -43324.565    9.3684823 
    2750    209.46987    25.240001    131761.88   -40724.939    2551.8815   -43276.821     9.468998 
    2800    206.86603    69.467367    131760.38   -40730.979      2520.16   -43251.139    9.6704621 
    2850    214.65269     168.9692    131890.35   -40726.381    2615.0215   -43341.403    9.8592982 
    2900    213.43567   -2.7891444    131999.28   -40713.079    2600.1952   -43313.274    10.061017 
    2950    216.55064    45.276786    131972.22   -40695.914    2638.1435   -43334.057    10.198807 
    3000    210.70497   -173.24907    131948.94   -40656.842    2566.9282    -43223.77    10.437388 
    3050    209.34818   -169.04845     131815.2    -40714.09     2550.399   -43264.489    10.539237 
    3100    213.73844    30.825058    131788.03   -40673.167    2603.8836   -43277.051     10.69319 
    3150    214.91498    146.72571    131839.54   -40678.154     2618.217   -43296.371      10.8208 
    3200    219.08316     122.2981    131968.27   -40699.084    2668.9961    -43368.08    10.982563 
    3250    211.90703   -9.2117404       132070   -40733.058    2581.5724    -43314.63    11.083446 
    3300    209.88609    29.847443    132204.63    -40724.86    2556.9521   -43281.812    11.109841 
    3350    210.07977   -39.004954    132190.87   -40725.435    2559.3116   -43284.746    11.265449 
    3400    210.95549   -73.093234    132261.33   -40737.033    2569.9802   -43307.013     11.47778 
    3450    211.17649   -130.09484    132212.46   -40729.696    2572.6725   -43302.369    11.645251 
    3500    214.93566    280.61989    132288.06   -40719.451    2618.4689    -43337.92    11.878669 
    3550    214.19013    152.52165    132475.16   -40758.082    2609.3864   -43367.468    12.027408 
    3600    212.32652   -25.484249    132451.15   -40789.583    2586.6829   -43376.265    12.135802 
    3650    210.84446   -56.400224    132367.51   -40798.374    2568.6275   -43367.002    12.291532 
    3700    214.77671    75.370274    132248.46    -40808.02    2616.5324   -43424.552    12.430361 
    3750     212.0186    6.6021371    132226.73   -40786.682    2582.9316   -43369.614    12.603866 
    3800    213.49148    100.02087    132251.94   -40749.185     2600.875    -43350.06     12.66529 
    3850    216.30119   -19.445594    132244.13   -40768.563    2635.1045   -43403.668    12.802887 
    3900    214.84407   -65.936213    132191.26   -40721.237    2617.3531    -43338.59    12.897541 
    3950     215.2609   -120.27727    132137.03   -40714.122    2622.4312   -43336.554    13.050591 
    4000    219.10782    27.660952    132025.78   -40682.325    2669.2965   -43351.621    13.283134 
    4050    216.55236    118.47313    132035.37   -40704.826    2638.1645    -43342.99     13.50909 
    4100     215.5185   -145.29814    132038.22   -40729.015    2625.5694   -43354.584    13.731455 
    4150    215.40341   -17.105882    131988.16   -40710.562    2624.1673   -43334.729    13.812445 
    4200     212.6216    75.209398    132075.64   -40734.846    2590.2777   -43325.123     13.87846 
    4250    210.96471     114.5195    132016.93   -40766.259    2570.0924   -43336.351    14.107421 
    4300    209.38536   -90.524773    131987.93   -40804.622    2550.8519   -43355.473    14.317767 
    4350    210.21183   -58.560542     132037.3   -40815.036    2560.9205   -43375.956    14.411465 
    4400    210.81142    -49.69616    132102.12   -40796.178     2568.225   -43364.403    14.513084 
    4450    213.29173    -4.249894     132103.1    -40808.02    2598.4415   -43406.461    14.501854 
    4500    216.13761     8.599484    132040.98   -40773.201    2633.1117   -43406.313    14.515867 
    4550    216.49397   -37.037763    132027.68   -40764.528    2637.4531   -43401.981    14.614301 
    4600    216.06591    105.67061    132198.18   -40771.217    2632.2382   -43403.455    14.686379 
    4650    212.05354    68.560844    132291.88   -40756.927    2583.3572   -43340.284    14.824599 
    4700    213.54249   -112.67749    132181.29   -40777.035    2601.4964   -43378.532    14.870468 
    4750    217.14816    -110.4519     132116.4   -40778.005    2645.4229   -43423.428    15.028535 
    4800    214.76978   -28.731831    132062.66   -40807.187     2616.448   -43423.635    15.169564 
    4850    214.41631    225.44275    132098.47   -40770.336    2612.1418   -43382.478     15.28679 
    4900    214.03246   -169.35495    132032.32   -40789.824    2607.4656   -43397.289    15.343394 
    4950     214.2677     18.85238    131972.91   -40789.288    2610.3314   -43399.619    15.470883 
    5000    213.89479     10.79752    131942.73   -40786.177    2605.7884   -43391.966    15.687057 
    5050    213.42113   -83.143219    131913.58   -40797.438     2600.018   -43397.456    15.752473 
    5100    214.22333   -120.17164    131834.73   -40795.165    2609.7909   -43404.955    15.842542 
    5150    212.78664     76.21384    131777.02   -40811.275    2592.2882   -43403.563    16.024616 
    5200    211.21825    99.915677    131850.41   -40811.212    2573.1812   -43384.393    16.246749 
    5250     217.3891    83.126557    131959.05   -40759.765     2648.358   -43408.123    16.319632 
    5300    214.66986    198.49631    132090.87   -40735.669    2615.2308     -43350.9    16.455625 
    5350    215.62749   -213.94242    132028.28    -40738.29    2626.8971   -43365.187    16.552001 
    5400    217.86303    42.842294    132159.37   -40689.657    2654.1317   -43343.789    16.582199 
    5450    220.28002    18.256785    132087.13   -40685.777    2683.5769   -43369.354    16.701812 
    5500    216.45388   -50.274082    131983.75   -40679.976    2636.9647   -43316.941    16.818922 
    5550    216.17799   -61.555047    131878.49    -40682.37    2633.6037   -43315.974    16.914985 
    5600    214.52569   -45.615098    131657.87   -40680.056    2613.4744    -43293.53    16.992856 
    5650    217.48574    79.715251    131710.71   -40609.392    2649.5355   -43258.928    17.107282 
    5700    217.71413    162.34943    131771.54   -40634.582    2652.3178     -43286.9    17.165929 
    5750    216.39716     73.35718    131817.25   -40659.815    2636.2737   -43296.089    17.212971 
    5800    219.73322   -37.647128     131817.2    -40637.75    2676.9154   -43314.665    17.351091 
    5850    214.69588    13.860386    131790.54   -40657.506    2615.5477   -43273.054    17.533111 
    5900    217.89155    109.50233    131751.16   -40663.181    2654.4792    -43317.66    17.855215 
    5950    214.26748   -12.337008    131806.92   -40680.106    2610.3287   -43290.434      17.9766 
    6000    211.44782    91.762051    131680.96   -40681.654     2575.978   -43257.632    18.137946 
    6050    214.42125    125.45217    131755.23   -40668.882     2612.202   -43281.084    18.247437 
    6100    213.75444   -43.819464    131760.08   -40681.974    2604.0786   -43286.053    18.580909 
    6150    214.00311   -113.61266    131782.53   -40701.903     2607.108   -43309.011    18.800249 
    6200    215.98843    141.89369    131730.37   -40710.129    2631.2943   -43341.424    18.931833 
    6250    212.97714    73.313295    131863.22       -40722    2594.6091   -43316.609    19.069741 
    6300    216.23487    36.580467    131901.08   -40721.984    2634.2965    -43356.28    19.162219 
    6350    214.72346    126.67552    131983.67    -40748.12    2615.8837   -43364.004    19.252103 
    6400    215.03006    43.826725    132177.26   -40733.351    2619.6189    -43352.97    19.274132 
    6450    216.46895    77.737966     132248.2   -40698.123    2637.1482   -43335.271    19.234062 
    6500    213.97453   -187.82469    132106.06   -40695.715    2606.7598   -43302.475    19.177667 
    6550    216.23337    24.204913    131964.44   -40678.504    2634.2784   -43312.783    19.244498 
    6600    214.09672   -66.785951    131876.79   -40718.674    2608.2484   -43326.922    19.421885 
    6650    213.81355   -45.083825    131744.28   -40774.891    2604.7987   -43379.689    19.499318 
    6700    214.52967    132.55755    131853.35   -40775.439    2613.5229   -43388.962    19.534302 
    6750    213.87003   -87.535696    131735.91   -40737.268    2605.4868   -43342.754    19.791336 
    6800    215.47793    49.903803    131665.89   -40719.069    2625.0751   -43344.144     19.96035 
    6850     216.7708   -28.181203     131926.7   -40728.172    2640.8255   -43368.997    20.214451 
    6900     216.3572    163.31175     131980.8   -40735.563    2635.7869    -43371.35    20.275722 
    6950    213.94787   -82.082734    132074.34   -40777.862     2606.435   -43384.297    20.385609 
    7000    218.00643    25.686277    132120.51   -40745.147    2655.8787   -43401.026    20.477101 
    7050    217.97931    5.0674827    131994.87   -40753.117    2655.5484   -43408.665    20.720437 
    7100    215.20763    164.41358    132056.26   -40741.299    2621.7821   -43363.081    20.848981 
    7150    214.08483   -46.586815    131963.59   -40752.243    2608.1035   -43360.346    20.929395 
    7200    217.37001    103.00554    132059.54   -40719.823    2648.1255   -43367.948    21.086884 
    7250    214.43677   -101.52332     131997.9   -40708.416    2612.3911   -43320.807     21.20562 
    7300    218.16424   -74.374597    131841.14   -40719.313    2657.8013   -43377.115    21.258493 
    7350    219.17461    230.13087    131948.39   -40680.728    2670.1101   -43350.838    21.318256 
    7400    223.90943    31.527255    132161.43   -40657.347    2727.7925    -43385.14    21.434356 
    7450    222.41899   -58.588499    132181.91    -40632.43    2709.6351   -43342.065    21.441982 
    7500    216.01862    65.741748    132162.45   -40688.021    2631.6621   -43319.683    21.650942 
    7550    212.84758    28.647337    132144.55   -40703.773    2593.0307   -43296.804    21.770036 
    7600    218.52355    56.299278    132164.78   -40699.543    2662.1786   -43361.721    21.971065 
    7650    214.71564    109.75818    132298.44   -40728.093    2615.7884   -43343.881    22.223111 
    7700    215.69508    36.801534    132364.55   -40718.537    2627.7206   -43346.257    22.435272 
    7750      214.506    211.88626    132312.95   -40736.898    2613.2345   -43350.133    22.612923 
    7800    216.34558   -27.696909    132408.72   -40712.363    2635.6453   -43348.008    22.722322 
    7850    215.63509   -57.763283    132394.17   -40699.148    2626.9897   -43326.138    22.935785 
    7900    216.92792   -144.03728    132383.07   -40738.745    2642.7397   -43381.485    23.002573 
    7950    216.78882   -123.13925    132290.57   -40747.508    2641.0451   -43388.553     23.18055 
    8000    214.66668    37.157991    132272.18   -40721.839     2615.192   -43337.031    23.217917 
    8050    215.95954   -26.300235    132176.44   -40775.853    2630.9424   -43406.796    23.330085 
    8100    213.33817   -76.327798    132056.19   -40747.465    2599.0073   -43346.472    23.427524 
    8150    215.37201    198.52075    132080.44   -40715.493    2623.7847   -43339.278    23.568356 
    8200    217.97986    23.226956     132220.3   -40704.104    2655.5551   -43359.659    23.786755 
    8250    214.88601   -68.976249    132201.64   -40759.789     2617.864   -43377.653    24.023717 
    8300    218.64154   -33.526777    132050.39   -40739.989     2663.616   -43403.605    24.260918 
    8350     210.5035    152.08783    132021.38   -40773.265    2564.4737   -43337.738    24.429173 
    8400    215.15742   -4.6581677    132167.05   -40760.068    2621.1705   -43381.239    24.553232 
    8450    211.17203   -86.464356    132154.84   -40777.643    2572.6181   -43350.261    24.605649 
    8500    216.29786   -76.713086    132005.37   -40728.001    2635.0639   -43363.065    24.683951 
    8550    214.65401    25.374729    131972.36   -40770.009    2615.0377   -43385.047    24.864929 
    8600    215.23367   -95.807818    131788.56   -40725.255    2622.0994   -43347.355    25.015141 
    8650    218.59172   -46.244637    131787.53   -40720.902    2663.0091   -43383.911    24.984926 
    8700    216.25498    220.78643    131871.31   -40723.523    2634.5416   -43358.065    25.044243 
    8750    213.68409   -29.787531     131813.3   -40668.919    2603.2215   -43272.141    25.274415 
    8800    211.97842    96.689777    131827.57   -40716.754    2582.4421   -43299.196    25.440647 
    8850    213.23991   -42.286207    131890.72   -40770.531    2597.8103   -43368.341    25.550013 
    8900    211.13365   -63.862904    131841.88    -40783.58    2572.1506   -43355.731    25.748986 
    8950    210.55748   -6.6316769    131754.07   -40773.288    2565.1314   -43338.419    25.876575 
    9000     216.3016   -106.44462    131613.33    -40808.24    2635.1095    -43443.35    25.971059 
    9050     214.7125    39.697273    131565.79   -40809.249    2615.7502   -43424.999    26.175702 
    9100     211.6031    105.30676    131774.69   -40774.265    2577.8697   -43352.135     26.31158 
    9150    212.47511   -55.678489    131774.59   -40778.407     2588.493     -43366.9     26.37022 
    9200    213.89445   -17.681032    131690.64    -40796.43    2605.7843   -43402.214    26.411391 
    9250    213.39472   -1.5432749    131926.52   -40755.211    2599.6963   -43354.908    26.544174 
    9300    212.84092    54.952392    131744.77   -40747.343    2592.9496   -43340.293    26.710812 
    9350    211.91815    132.74004    131883.88   -40753.996    2581.7078   -43335.703    26.671325 
    9400    216.05611   -12.868667    131917.41   -40767.366    2632.1188   -43399.485    26.921563 
    9450     214.5753    11.882002    131952.69   -40721.579    2614.0787   -43335.658    27.094048 
    9500    215.99115    8.4128252    131887.16   -40741.465    2631.3275   -43372.793    27.096475 
    9550    215.14527   -44.463599    131927.53    -40751.64    2621.0225   -43372.662    27.189811 
    9600    216.69794    89.906182    131969.29   -40764.453    2639.9379   -43404.391     27.33181 
    9650      213.015    222.63841    132094.83   -40816.843    2595.0702   -43411.913    27.464683 
    9700    211.66291    79.301624    132164.02   -40769.047    2578.5984   -43347.646    27.786919 
    9750    215.97568     52.84828     132177.3   -40771.069     2631.139   -43402.208    27.992476 
    9800    213.72032    83.239411    132200.47   -40764.574    2603.6629   -43368.237    28.014778 
    9850    217.51438   -121.36431    132188.94   -40782.701    2649.8844   -43432.585    28.150821 
    9900    213.54682    37.536873    132174.69   -40764.962    2601.5492   -43366.512     28.19353 
    9950    218.94163     9.584953    132145.07   -40729.493    2667.2718   -43396.765    28.211696 
   10000    218.70582      -97.895    132154.56   -40750.495    2664.3991   -43414.894    28.218704 
   10050    214.29751   -45.681229    132133.71   -40746.109    2610.6946   -43356.804    28.374598 
   10100    218.42727     9.188511    132093.32   -40717.652    2661.0056   -43378.658    28.392224 
   10150    218.93788    111.04082    132134.09   -40752.568    2667.2263   -43419.794    28.630202 
   10200    216.34023   -1.3343747    132096.06   -40758.615    2635.5802   -43394.195    28.766597 
   10250    214.32532    3.6126907    132156.42   -40747.368    2611.0333   -43358.402    28.966287 
   10300    212.15172    66.570483    132198.83   -40772.032    2584.5533   -43356.586    29.186886 
   10350    214.27529   -85.635098    132156.26   -40761.226    2610.4238    -43371.65    29.370254 
   10400    209.06296   -54.779703    132043.67   -40787.159    2546.9243   -43334.083     29.52993 
   10450    215.82689   -19.957924    132114.46   -40770.097    2629.3263   -43399.423     29.79674 
   10500    211.99244   -121.44485    132022.61   -40733.695    2582.6129   -43316.308    29.911724 
   10550    215.07852   -106.28354    131894.96   -40724.568    2620.2093   -43344.777    30.095587 
   10600    216.46477    12.935929    131764.05   -40761.979    2637.0974   -43399.077    30.241508 
   10650    214.92437    163.55534    131865.55   -40756.726    2618.3313   -43375.058    30.388238 
   10700     211.7157   -76.315525    131905.92   -40775.609    2579.2415    -43354.85    30.574917 
   10750    214.57464    211.65928    131981.15   -40750.448    2614.0707   -43364.519    30.819785 
   10800    215.43342   -114.83829    132147.45   -40726.267    2624.5328     -43350.8    30.939989 
   10850    211.58795    -48.73814    132231.42   -40702.016    2577.6852   -43279.702    30.939604 
   10900    216.28954   -19.071271    132103.15   -40727.594    2634.9626   -43362.557    31.019934 
   10950    216.52216   -18.027198    132066.14   -40700.848    2637.7966   -43338.645    31.162092 
   11000      215.742    9.1473892    132143.55   -40683.772    2628.2921   -43312.064    31.302355 
   11050    214.51504    56.942783    132171.14   -40697.214    2613.3446   -43310.559    31.494681 
   11100    212.80184    45.589078    132173.98   -40703.872    2592.4734   -43296.345    31.554061 
   11150    216.61944   -93.150218    132148.97   -40658.276    2638.9817   -43297.258     31.70266 
   11200    221.57579    16.638012    131995.61   -40668.028    2699.3627   -43367.391    31.747637 
   11250    216.15825    30.617264    132110.56   -40714.458    2633.3632   -43347.821    31.888388 
   11300    216.26282   -86.621524    132062.02    -40670.69    2634.6371   -43305.327    32.015675 
   11350    215.41274    89.820549    131975.45   -40697.287    2624.2809   -43321.568    32.233602 
   11400    214.72775    97.589619    131965.53   -40680.521     2615.936   -43296.457      32.3928 
   11450    218.02902    38.478592    132160.54   -40627.647     2656.154   -43283.801    32.563774 
   11500    217.01411   -15.243518    132062.41   -40593.889    2643.7898   -43237.679    32.634728 
   11550    216.45059    92.099993     132095.9     -40604.7    2636.9246   -43241.625    32.887899 
   11600     217.7072   -113.17266    132102.08   -40609.178    2652.2334   -43261.411    32.999401 
   11650    217.83763    29.094449    132115.88   -40660.796    2653.8223   -43314.618    33.294525 
   11700    211.33989    40.072278    132029.23   -40649.449    2574.6632   -43224.112    33.439482 
   11750    218.58387    68.891449    132033.94   -40641.473    2662.9134   -43304.386    33.712519 
   11800      213.828   -25.340623    132029.56   -40671.609    2604.9748   -43276.584    33.918548 
   11850    213.51583    254.73861     132105.9   -40689.162    2601.1717   -43290.334    34.086343 
   11900    216.40221   -147.26339    132133.25   -40633.981    2636.3353   -43270.317    34.145226 
   11950    216.40289     38.44054    132151.78    -40608.65    2636.3435   -43244.994    34.318696 
   12000    217.46481    13.581446    132156.45   -40598.255    2649.2805   -43247.536    34.428318 
   12050    218.91366   -78.931038    132124.43   -40575.384    2666.9311   -43242.315    34.538552 
   12100    218.62136   -134.66186    132124.94    -40532.53    2663.3701     -43195.9    34.728771 
   12150    219.35944   -14.497328    131996.96   -40583.835    2672.3618   -43256.196    34.807697 
   12200    216.76709     146.8435    132063.31   -40615.456    2640.7804   -43256.236      34.8707 
   12250    218.99662   -40.226934     132079.9   -40600.763    2667.9418   -43268.705    35.132295 
   12300    216.15716   -76.407029    132076.71   -40615.785    2633.3499   -43249.135     35.36649 
   12350    220.20042   -11.121526    132075.65   -40568.218    2682.6071   -43250.825    35.682016 
   12400     213.1055   -80.484459    131951.11    -40530.89    2596.1728   -43127.063    35.881156 
   12450    214.91201     37.24263    131895.35   -40606.092    2618.1808   -43224.272    35.993242 
   12500    213.65601   -124.02325    131929.44   -40614.784    2602.8795   -43217.664    36.231311 
   12550    217.80784   -108.48806    131709.84   -40596.251    2653.4594    -43249.71    36.344189 
   12600    210.01363    11.579595    131696.41   -40627.591    2558.5059   -43186.097    36.365128 
   12650    215.33733    40.091503    131679.85   -40611.894    2623.3622   -43235.257    36.233187 
   12700    215.92235   -181.96359    131746.11   -40622.504    2630.4892   -43252.993    36.415505 
   12750    213.54444    27.330285    131743.15   -40656.814    2601.5202   -43258.335    36.599767 
   12800    213.54138    9.2350886    131847.01   -40670.755     2601.483   -43272.238    36.738672 
   12850    210.13102   -43.626737    131881.04   -40679.813     2559.936   -43239.749    37.054878 
   12900    214.60724    38.607741    131915.32   -40671.176    2614.4679   -43285.644    37.218331 
   12950    212.65666   -18.231636    131849.62   -40666.197    2590.7048   -43256.901    37.449257 
   13000    213.48884   -43.734028    131688.62   -40685.581    2600.8429   -43286.424    37.625553 
   13050    212.80683   -15.185032    131607.92   -40676.311    2592.5342   -43268.845    37.864755 
   13100    212.95097    39.865907    131502.36   -40713.009    2594.2902   -43307.299    37.884178 
   13150    215.69017   -101.31587     131606.9   -40705.508    2627.6607   -43333.168    38.008111 
   13200    209.79411    9.0699354     131664.4   -40677.248    2555.8316   -43233.079    38.095381 
   13250    214.78381    52.476202    131680.78    -40667.07     2616.619   -43283.689    38.230333 
   13300    217.03837   -62.227285    131695.81    -40636.31    2644.0853   -43280.395    38.258739 
   13350    210.98819   -28.345797    131664.98   -40650.767    2570.3785   -43221.146    38.309255 
   13400    216.55703     74.42613    131587.81   -40571.733    2638.2214   -43209.955      38.4229 
   13450    212.93405    107.70717    131753.64   -40607.305    2594.0842   -43201.389    38.668955 
   13500    216.40731   -63.105195     131815.3   -40623.314    2636.3974   -43259.712     38.82908 
   13550    216.36642     95.38612    131830.95   -40634.928    2635.8992   -43270.827    38.999777 
   13600    214.04225    112.22811    131799.05   -40620.614    2607.5848   -43228.199    39.097479 
   13650    216.57798    269.35573    131991.99   -40604.346    2638.4766   -43242.823    39.354111 
   13700    217.54279    -113.3592    132019.71   -40610.563    2650.2304   -43260.793    39.506262 
   13750    214.35322    71.869717    132035.67   -40615.305    2611.3732   -43226.678    39.699435 
   13800     216.2199    117.99606    132095.43   -40661.202    2634.1142   -43295.316    39.877848 
   13850    215.60207    179.07707    132179.76   -40570.323    2626.5875   -43196.911    40.166896 
   13900    217.13658   -30.039716    132236.12   -40587.687    2645.2818   -43232.969    40.268101 
   13950    217.58646   -211.91809    131957.05    -40574.67    2650.7624   -43225.433    40.374864 
   14000    216.26964   -120.82284    131801.61    -40550.88    2634.7201     -43185.6     40.54281 
   14050    219.78345    15.532099    131777.18   -40608.643    2677.5274   -43286.171     40.75448 
   14100    218.44341   -65.534752    131808.42    -40633.79    2661.2022   -43294.992    40.867739 
   14150    218.16031    46.551679    131904.33   -40622.546    2657.7534     -43280.3    41.111339 
   14200    216.16029   -119.80397     131890.8   -40633.816    2633.3881   -43267.205     41.14143 
   14250    218.54758   -60.120819     131731.5   -40642.749    2662.4713    -43305.22    41.145122 
   14300    216.84786   -87.639044     131616.1   -40658.534    2641.7644   -43300.298     41.24032 
   14350    211.22367   -24.456807    131661.39   -40675.097    2573.2473   -43248.344    41.430468 
   14400    212.16412    184.02828    131660.66   -40735.982    2584.7044   -43320.687    41.398828 
   14450    211.76062    135.01558    131844.45   -40748.737    2579.7887   -43328.526     41.69104 
   14500    213.96025    54.389982    131907.48   -40681.399    2606.5859   -43287.985    41.822166 
   14550    212.50198   0.34327052    131984.09   -40668.901    2588.8204   -43257.721    41.918717 
   14600    214.87229    72.484699    131997.06   -40642.968    2617.6969   -43260.665    42.011056 
   14650    212.29376   -95.301716    131908.88   -40663.537    2586.2837   -43249.821    42.102174 
   14700    211.75885    -85.14766    131756.41    -40651.32    2579.7672   -43231.087    42.342607 
   14750    214.53316   -76.364465    131580.93   -40632.648    2613.5654   -43246.213    42.397953 
   14800    215.06853    71.427715    131522.13    -40628.85    2620.0875   -43248.937    42.411634 
   14850    212.99924   -92.836353    131617.29   -40658.437    2594.8782   -43253.316    42.664011 
   14900    210.81059    12.051263     131633.1   -40673.168    2568.2149   -43241.383    42.826339 
   14950    214.63936   -2.5627695    131595.97   -40708.997    2614.8592   -43323.857    42.879917 
   15000    213.46778    89.607899    131610.37   -40683.779    2600.5863   -43284.365    43.289387 
   15050    211.85504    18.674618    131632.19   -40653.185    2580.9391   -43234.124    43.560047 
   15100    215.27458   -162.96442    131602.24   -40627.147    2622.5977   -43249.745    43.609606 
   15150    212.81208    5.9752834    131494.59   -40718.919    2592.5982   -43311.517    43.948695 
   15200    211.78654    60.023129    131583.26   -40698.499    2580.1045   -43278.604     44.18771 
   15250    214.01374    -17.25231    131764.61   -40703.826    2607.2375   -43311.063    44.138386 
   15300    214.85299    27.465658    131741.22   -40687.608    2617.4617   -43305.069    44.403677 
   15350    213.91291    86.092348    131777.61   -40674.766    2606.0091   -43280.775    44.604918 
   15400    211.72948     68.64775    131760.47   -40686.208    2579.4094   -43265.618    44.462304 
   15450    211.58459    116.49812    131877.78   -40678.275    2577.6443    -43255.92    44.609162 
   15500    210.81594   -108.52693    132006.01    -40700.77    2568.2801    -43269.05    44.960178 
   15550    211.68058    -13.13948     131948.8   -40675.661    2578.8136   -43254.474      44.9535 
   15600    217.98788    6.3955057    131895.68   -40613.562    2655.6528   -43269.215    45.036691 
   15650    216.48602    13.979228    132037.77   -40629.039    2637.3562   -43266.395    45.202902 
   15700    216.97048    54.824152     132023.4   -40606.048    2643.2582   -43249.307    45.366408 
   15750    217.09175   -4.7604777    132040.97    -40622.32    2644.7356   -43267.056     45.24413 
   15800    218.08819   -2.3080921    132014.73    -40633.82    2656.8748   -43290.695    45.501918 
   15850    215.24029   -20.045365    132011.32   -40662.505    2622.1801   -43284.685      45.6524 
   15900     214.9275   -121.29956    131977.02   -40675.329    2618.3694   -43293.698    45.724336 
   15950    214.44162      48.8112    131842.34   -40676.836    2612.4502   -43289.287    45.820853 
   16000    212.84472    70.655224    131825.18   -40663.349    2592.9958   -43256.345    45.876768 
   16050    214.76595     31.44761    131931.78   -40659.804    2616.4014   -43276.205    46.174791 
   16100    212.74978   -125.76706    131857.13   -40701.992    2591.8393   -43293.831    46.311851 
   16150    214.19812    75.780193    131731.69   -40669.902    2609.4837   -43279.386    46.432775 
   16200    213.07815   -46.684218     131798.7    -40682.77    2595.8396   -43278.609    46.594662 
   16250    214.79427   -34.639118    131803.42   -40679.091    2616.7464   -43295.838    46.621608 
   16300    212.59749   -108.67392    131691.77   -40704.502     2589.984   -43294.486    46.697958 
   16350    216.32602   -13.533702    131532.58   -40698.114     2635.407   -43333.521    46.748634 
   16400    216.01852    205.21335    131722.91    -40721.92    2631.6608   -43353.581    46.683788 
   16450     209.7329   -29.093436    131855.26   -40752.647    2555.0858   -43307.733    46.850006 
   16500    209.07645     75.49732    131845.69   -40780.242    2547.0886    -43327.33    46.955238 
   16550    216.35716    101.07013    131736.75   -40731.914    2635.7865     -43367.7    47.011442 
   16600    212.44163    122.08361    131842.19   -40757.918    2588.0852   -43346.003    47.353956 
   16650    211.89837    38.986064    131903.49   -40737.933    2581.4668   -43319.399    47.534846 
   16700    213.61209   -113.41513    131834.75   -40731.277    2602.3444   -43333.621    47.775052 
   16750    212.29736   -18.557443    131686.22   -40725.847    2586.3276   -43312.174    47.951615 
   16800    209.87751    23.740609    131605.75   -40780.292    2556.8477    -43337.14    48.201938 
   16850    210.44901    82.079164    131577.84    -40766.33      2563.81    -43330.14     48.28167 
   16900    210.37695   -22.675119    131590.81   -40773.075     2562.932   -43336.007     48.56574 
   16950    216.90128    324.32541    131553.13   -40723.347    2642.4152   -43365.762    48.697857 
   17000    210.43785   -49.310112     131652.9   -40723.976     2563.674    -43287.65    48.992243 
   17050     211.5561   -115.79326    131647.15   -40679.242    2577.2971   -43256.539    48.998088 
   17100    215.66306    155.59727    131621.36    -40652.69    2627.3305    -43280.02    49.157693 
   17150    214.48455    171.79383     131683.2   -40658.285    2612.9732   -43271.258    49.216564 
   17200    212.80864    -12.34829    131884.56   -40593.227    2592.5563   -43185.783    49.293789 
   17250    213.81049   -243.36285    131822.03   -40595.167    2604.7615   -43199.928    49.451138 
   17300    219.08156   -66.005114     131746.3   -40583.331    2668.9766   -43252.307     49.58196 
   17350    209.80494   -76.652728    131644.61   -40622.269    2555.9635   -43178.232     49.77237 
   17400    215.21563    71.014254    131676.53   -40655.233    2621.8796   -43277.112    49.832823 
   17450     210.9828   -204.45072    131624.37   -40638.406    2570.3129   -43208.719    50.086788 
   17500    214.14564   -69.571128    131492.39   -40664.304    2608.8444   -43273.149    50.239593 
   17550    216.14317   -124.67909    131523.73   -40645.042    2633.1795   -43278.221    50.265152 
   17600    218.98468    84.208798    131509.25   -40568.093    2667.7963   -43235.889    50.395867 
   17650     217.9312    1.9866898    131443.12   -40524.837    2654.9622     -43179.8    50.629941 
   17700    219.76248   -111.90361    131448.44   -40529.465     2677.272   -43206.737    50.732658 
   17750    216.49611   -5.8775927    131421.05   -40507.122    2637.4792   -43144.602    50.920621 
   17800    217.71348    33.294488    131426.67   -40505.195    2652.3098   -43157.505    51.120871 
   17850    213.37894   -107.05067    131513.66   -40533.619    2599.5041   -43133.123    51.227801 
   17900    213.70364   -21.403415    131347.79   -40572.798    2603.4597   -43176.257    51.541075 
   17950     213.6411    110.77195    131436.35   -40534.154    2602.6978   -43136.852    51.523743 
   18000    212.43533    122.37083    131604.36   -40551.753    2588.0084   -43139.762    51.749438 
   18050    215.25365    177.35099    131728.35   -40583.435    2622.3428   -43205.778    52.138063 
   18100    218.81547   -123.79394     131712.5   -40573.265     2665.735       -43239    52.389411 
   18150    217.05016   -71.095897    131530.92    -40581.59    2644.2289   -43225.819    52.616782 
   18200    213.30152   -105.09118    131521.63   -40566.868    2598.5608   -43165.429    52.684361 
   18250     213.5227    294.48231    131500.22    -40564.68    2601.2554   -43165.936    52.877106 
   18300    216.92017   -33.125113    131551.15   -40552.506    2642.6453   -43195.151    53.072653 
   18350     216.5946   -2.6670259    131453.99   -40562.076     2638.679   -43200.755    53.181101 
   18400     209.3873     160.5437    131536.09   -40588.219    2550.8755   -43139.095    53.241775 
   18450    214.41945    38.874615    131625.09   -40589.909    2612.1802    -43202.09    53.428484 
   18500    215.49037     82.28467    131680.17   -40535.036    2625.2267   -43160.262    53.691636 
   18550    217.25307   -27.694234     131678.6   -40576.109    2646.7008    -43222.81    53.907015 
   18600    217.33791   -42.501666    131699.69   -40534.413    2647.7345   -43182.147    53.918742 
   18650    217.39813   -17.981716     131692.7   -40538.131     2648.468   -43186.599    53.879413 
   18700    215.25861   -90.967543    131676.74   -40570.557    2622.4033    -43192.96    53.637138 
   18750    214.52463   -129.90419    131446.67   -40650.713    2613.4614   -43264.174     53.82122 
   18800    215.51071    33.225489    131527.29   -40622.541    2625.4744   -43248.016    54.026741 
   18850      210.713    107.71036    131590.15   -40636.722     2567.026   -43203.748    54.303674 
   18900    213.55316    35.830151    131546.12   -40711.515    2601.6264   -43313.142    54.607327 
   18950    216.21926    74.639666     131607.9   -40653.941    2634.1064   -43288.048     54.81414 
   19000    215.41712   -198.11459    131569.69   -40620.627    2624.3343   -43244.962    55.017416 
   19050    216.92347    129.71314    131523.22   -40626.334    2642.6855   -43269.019    55.227395 
   19100     215.1426    195.49353    131698.08   -40567.305    2620.9899   -43188.295     55.33813 
   19150     214.8097    47.630077    131695.32   -40574.153    2616.9344   -43191.088    55.516151 
   19200    211.53788     114.6668    131890.68   -40572.958    2577.0752   -43150.033    55.885568 
   19250    214.93323   -24.735533    131892.47   -40593.502    2618.4392   -43211.942    55.978085 
   19300    216.66572   -111.67219    131773.52   -40573.375    2639.5454    -43212.92    56.232842 
   19350    211.11381    95.929765    131950.56   -40611.319    2571.9089   -43183.228    56.531259 
   19400    214.14387   -37.840259    131956.68   -40614.352    2608.8228   -43223.175    56.899036 
   19450    216.20226   -171.75169    131842.61   -40640.709    2633.8993   -43274.608    56.915115 
   19500    213.56763   -129.81724    131664.67   -40622.659    2601.8027   -43224.462    57.096833 
   19550    213.86437    128.40951    131569.03   -40614.364    2605.4178   -43219.782    57.121283 
   19600    210.36233     156.1569    131777.85   -40599.878     2562.754   -43162.632    57.403697 
   19650    212.42827    -101.1312    131732.24   -40596.675    2587.9224   -43184.598    57.675139 
   19700    212.21225   -1.9157264    131621.64   -40563.958    2585.2908   -43149.248    57.972523 
   19750    210.17172   -30.876245    131686.56   -40615.213    2560.4318   -43175.644    58.013091 
   19800     213.4987    139.27465    131758.75   -40591.001    2600.9631   -43191.964    58.134828 
   19850    217.72965   -26.388313    131899.96   -40558.527    2652.5069   -43211.034    58.430247 
   19900     213.3391   -156.67966    131784.91   -40609.021    2599.0187    -43208.04    58.557764 
   19950    213.46624   -42.220494    131666.69   -40619.869    2600.5676   -43220.437    58.955798 
   20000    212.61177    39.828977    131702.73   -40633.665    2590.1579   -43223.823    59.283665 
   20050     213.1245    55.835621    131823.06   -40558.449    2596.4042   -43154.853    59.455222 
   20100    218.63736   -59.231273    131962.51   -40577.056    2663.5651   -43240.621    59.865088 
   20150    215.94967    72.612006    131954.77   -40610.592    2630.8221   -43241.414    60.116814 
   20200    219.04398   -44.798507    131897.23   -40603.497    2668.5188   -43272.015    60.129431 
   20250    217.12773   -102.12644    131943.49   -40594.107    2645.1739    -43239.28    60.134564 
   20300    217.72806    7.8426379       132108   -40577.432    2652.4874    -43229.92    60.207283 
   20350    216.23577   -24.554954    132014.65   -40630.838    2634.3075   -43265.146     60.39339 
   20400     214.6998   -88.958294    131941.36    -40640.25    2615.5955   -43255.846    60.616668 
   20450    216.66673    35.653004    131883.67   -40579.524    2639.5578   -43219.081    60.788954 
   20500    214.58559    66.935888     132013.1   -40565.288    2614.2042   -43179.492    60.945395 
   20550    214.72036   -48.799792    132062.15   -40596.658     2615.846   -43212.504    60.955945 
   20600    211.43072   -5.9117554    131972.42   -40625.284    2575.7697   -43201.054    61.044874 
   20650    213.22226   -71.260437    131742.45   -40611.744    2597.5952   -43209.339    61.000303 
   20700    211.79697   -106.65017       131563   -40633.819    2580.2316   -43214.051    61.142994 
   20750     216.7793    100.52116    131518.69   -40599.404    2640.9291   -43240.333    61.419397 
   20800    214.10099    34.182069    131620.85   -40642.481    2608.3004   -43250.782    61.631554 
   20850    214.28497   -39.544228    131587.87   -40646.875    2610.5418   -43257.417    61.792415 
   20900    213.87407    51.232039    131594.11   -40620.546    2605.5359   -43226.082    61.989601 
   20950     216.2546    50.099243    131591.36   -40626.805    2634.5369   -43261.342    62.395694 
   21000    213.09365    111.90614    131611.87   -40597.713    2596.0284   -43193.741    62.618564 
   21050    216.32188    -100.1964    131614.47   -40623.469    2635.3566   -43258.825    62.786912 
   21100    211.97594   -8.8567864    131658.11   -40623.996    2582.4118   -43206.408    62.831361 
   21150    216.37643    34.454289    131672.95   -40624.977    2636.0212   -43260.998     62.95434 
   21200    216.69641    200.30435    131834.32   -40656.758    2639.9194   -43296.678     63.06732 
   21250    213.91063   -78.813865    131848.74   -40651.278    2605.9813    -43257.26    63.331504 
   21300    214.45113   -25.180346    131804.21   -40589.589    2612.5661   -43202.155    63.446806 
   21350    215.12964   -3.1455759    131906.25   -40555.423     2620.832   -43176.255    63.770322 
   21400    216.17805    29.509589    131724.54   -40581.699    2633.6044   -43215.303    64.039768 
   21450    214.12948   -72.882343    131565.95   -40587.652    2608.6476   -43196.299    64.328718 
   21500    211.46951    103.33862    131590.16   -40559.896    2576.2422   -43136.138    64.737744 
   21550       218.62    1.2178948    131633.11   -40526.136    2663.3536   -43189.489    65.015878 
   21600     218.6201   -87.518831    131741.52   -40521.283    2663.3548   -43184.638     65.14313 
   21650    213.70128    87.536056    131781.28   -40574.793     2603.431   -43178.224    65.262284 
   21700    217.36306   -80.130338    131705.12   -40594.212    2648.0409   -43242.253    65.492774 
   21750    216.52738    34.535795    131632.29   -40595.762    2637.8601   -43233.623    65.595179 
   21800    215.33085   -127.82028    131734.44   -40570.682    2623.2834   -43193.965    65.907524 
   21850    215.23477    81.586196    131774.36   -40616.135    2622.1128   -43238.248    66.042138 
   21900    213.33696    -57.16762    131793.14   -40626.334    2598.9926   -43225.326    66.328887 
   21950    214.74994    114.39484    131909.89   -40606.192    2616.2063   -43222.398    66.597374 
   22000    217.99136    40.671546    131875.35   -40573.648    2655.6952   -43229.343    66.596058 
   22050    220.29309    39.740989    131880.89   -40561.194    2683.7361    -43244.93    66.879251 
   22100    220.27226   -36.866033    132022.29   -40554.671    2683.4824   -43238.153    67.029492 
   22150     219.1237    114.57001    131963.91   -40612.602      2669.49   -43282.092    67.022759 
   22200    214.04057    51.016371     132172.8   -40616.389    2607.5644   -43223.954    67.307306 
   22250    217.12469   -71.063049    132135.75    -40614.92    2645.1369   -43260.057    67.484752 
   22300    213.20084   -180.61661    132103.56   -40613.262    2597.3343   -43210.596    67.659073 
   22350    218.32055   -31.982218    132019.69   -40653.368    2659.7056   -43313.074    67.588819 
   22400    215.24814    57.491084    132110.11   -40637.671    2622.2757   -43259.947    67.860814 
   22450    212.70906     157.6789    132094.73    -40671.72    2591.3432   -43263.063    68.064811 
   22500    212.22864    139.64005       132238   -40651.995    2585.4904   -43237.485    68.176192 
   22550    217.86751    32.515871    132359.46   -40634.168    2654.1863   -43288.355     68.39795 
   22600    215.26866   -93.693538    132205.62   -40616.329    2622.5256   -43238.855    68.483252 
   22650    214.25599   -60.124118    132135.31   -40595.173    2610.1888   -43205.362    68.606879 
   22700    215.19344    61.152393    132116.91   -40627.058    2621.6093   -43248.667    68.560612 
   22750    216.53285   -49.535175    132137.23   -40648.996    2637.9267   -43286.923    68.817277 
   22800    216.42016   -46.999925    132019.68   -40681.582    2636.5539   -43318.136    69.057074 
   22850    213.64838    124.59197    132120.83   -40658.604    2602.7865   -43261.391    69.178734 
   22900    214.19383   -16.799442    132105.03   -40653.937    2609.4315   -43263.369    69.290743 
   22950    220.31171   -95.205951    132013.92   -40650.377    2683.9629    -43334.34    69.286716 
   23000    217.79574    17.548345    131971.22   -40616.561     2653.312   -43269.873    69.363528 
   23050    217.01482   -77.685327    131974.69   -40620.812    2643.7984   -43264.611    69.558286 
   23100    216.20379    40.191071    131992.47   -40610.632     2633.918    -43244.55    69.597234 
   23150    214.94792    44.432744    132037.92   -40610.655    2618.6182   -43229.273    69.824438 
   23200    215.43358   -167.89803    131975.28   -40586.484    2624.5348   -43211.019    69.931341 
   23250    220.88314   -56.491623    131919.09   -40587.233    2690.9245   -43278.157    69.941387 
   23300    216.34505   -21.772327    131780.23   -40570.717    2635.6388   -43206.356     70.21023 
   23350    218.84957    27.962181     131687.8   -40570.707    2666.1504   -43236.857     70.51593 
   23400    214.19555    63.465408    131781.31   -40543.564    2609.4524   -43153.017    70.955377 
   23450     220.6905   -173.37032    131934.61   -40554.424    2688.5776   -43243.001    71.222043 
   23500    219.86646    50.380154    131952.55   -40553.323    2678.5387   -43231.862    71.231266 
   23550    217.40116    44.147255    132058.67   -40539.024    2648.5049   -43187.528    71.349978 
   23600    214.56718    38.954862    132097.66   -40523.325    2613.9798   -43137.305    71.488256 
   23650    217.70093   -108.53198    131947.83   -40501.364     2652.157   -43153.521    71.630544 
   23700    216.98766     41.28634    131885.09   -40557.336    2643.4676   -43200.804    71.861884 
   23750    218.11492   -14.704652    131942.93   -40572.697    2657.2005   -43229.897    72.109065 
   23800    214.80917   -40.045515    132082.24   -40607.214    2616.9279   -43224.142    72.244369 
   23850    217.24261   -149.50048     132002.3   -40580.204    2646.5734   -43226.777    72.500854 
   23900    211.96273    25.899399    131921.51    -40591.71     2582.251   -43173.961    72.608645 
   23950    215.24643    90.485077     132003.8   -40596.558    2622.2548   -43218.813     72.78141 
   24000    216.77416    137.93439    132089.68   -40564.874    2640.8666    -43205.74    72.994834 
   24050    214.15343     9.734118    132062.47   -40593.073    2608.9393   -43202.013    73.131035 
   24100    220.04495    -4.500052    131973.14    -40532.77    2680.7132   -43213.483    73.027769 
   24150    213.16681    198.27036    132031.17   -40589.893    2596.9197   -43186.812    73.130902 
   24200    218.57515     128.2061    132128.01   -40561.944    2662.8072   -43224.752    73.162499 
   24250    219.73732  -0.80189377    132212.95    -40569.22    2676.9654   -43246.185     73.60991 
   24300    217.93953   -141.61867     132094.8   -40573.302    2655.0637   -43228.366    73.734227 
   24350    213.29342   -29.669498    132035.66   -40584.997    2598.4622   -43183.459    73.952857 
   24400    214.12301   -172.75677    131899.73   -40605.058    2608.5686   -43213.627    74.010352 
   24450    214.12469    146.05242    131983.01   -40586.163    2608.5892   -43194.752    74.336844 
   24500    216.63952    37.919456     131953.9   -40555.448    2639.2263   -43194.674    74.433622 
   24550    216.44815   -56.631521     132062.1   -40565.683    2636.8949   -43202.578    74.337691 
   24600    213.45589   -77.970939    131886.99   -40608.275    2600.4415   -43208.717    74.422081 
   24650    210.50609    13.717994    131823.53    -40639.08    2564.5053   -43203.585    74.419047 
   24700    214.25245     68.94531    131843.89   -40642.632    2610.1456   -43252.777    74.666331 
   24750    213.95645    7.9893956    131962.35   -40675.125    2606.5396   -43281.664    74.688904 
   24800    209.86228    -132.4638    131925.83       -40717    2556.6621   -43273.662    74.884895 
   24850    214.27033    80.952648    131734.55   -40710.516    2610.3634   -43320.879    74.895495 
   24900    217.42939    182.27413    131847.36    -40688.91    2648.8489   -43337.759    75.123678 
   24950    215.77418    61.776385    131997.16   -40694.926    2628.6843    -43323.61    75.210844 
   25000    210.54404   -203.14576    132018.52   -40748.103    2564.9677   -43313.071    75.513796 
   25050    214.13923    -32.64569    131823.27   -40669.305    2608.7664   -43278.072     75.73603 
   25100    215.64513    101.73553     131849.8   -40634.914     2627.112   -43262.026    76.044578 
   25150    220.63444    169.00343     131933.1   -40615.118    2687.8947   -43303.013    76.092956 
   25200    222.83902    -10.65532    132242.74    -40645.77    2714.7521   -43360.522    76.265207 
   25250    216.59026   -5.1919391    132327.05    -40676.09    2638.6261   -43314.716    76.387312 
   25300    213.89968   -54.527612    132292.26   -40728.696     2605.848   -43334.544     76.34026 
   25350    210.42177   -68.350653    132199.83   -40727.511    2563.4781   -43290.989    76.396454 
   25400    220.63843     136.6077    132242.72   -40683.949    2687.9433   -43371.892    76.460443 
   25450    214.23076     78.38862    132342.62   -40747.544    2609.8814   -43357.425    76.616942 
   25500    213.74893     107.6097     132332.2    -40760.75    2604.0115   -43364.762    76.670593 
   25550    213.24525    0.5737715    132402.04   -40776.619    2597.8754   -43374.494    76.754367 
   25600    213.92477    31.765751    132492.45   -40773.728    2606.1536   -43379.882    77.002452 
   25650    213.83267   -122.06599    132456.89    -40786.35    2605.0316   -43391.381    77.317568 
   25700    214.35683   -67.551786    132212.83   -40765.959    2611.4172   -43377.376    77.185708 
   25750    219.19466   -76.033375    132234.36   -40796.571    2670.3544   -43466.925    77.383444 
   25800    215.22209   -81.478041     132214.2   -40768.963    2621.9583   -43390.922    77.511622 
   25850    213.11983   -74.629993    132131.45   -40746.405    2596.3474   -43342.753    77.731037 
   25900    214.70056   -116.19933    132111.96   -40764.562    2615.6048   -43380.167    77.733165 
   25950      214.587   -75.792862    131983.83   -40767.948    2614.2213    -43382.17    77.794974 
   26000    215.43505   -54.727142    131981.75   -40779.371    2624.5527   -43403.924    77.966106 
   26050     212.4309    90.783817    132050.47   -40757.417    2587.9544   -43345.371    78.004889 
   26100    212.76283   -205.56237    131933.73   -40798.951    2591.9982   -43390.949    78.093192 
   26150    210.47228    11.349507    131770.81   -40819.382    2564.0934   -43383.475    78.201411 
   26200    215.24744     99.52279    131845.71    -40801.93    2622.2671   -43424.197    78.175774 
   26250    211.80892    153.04822    132116.67   -40762.032    2580.3772   -43342.409    78.560788 
   26300    213.87243   -15.445934    132168.83   -40817.735     2605.516   -43423.251     78.53109 
   26350    211.04043    113.57153    132072.47   -40755.284    2571.0149   -43326.299    78.586668 
   26400     217.0914    36.526033    132178.55   -40724.745    2644.7314   -43369.477    78.669743 
   26450    214.66578   -42.041907     132055.3   -40748.852    2615.1811   -43364.034    78.653724 
   26500    212.38597   -83.549529    132132.54   -40739.827    2587.4071   -43327.234    78.953067 
   26550    217.08892   -153.57777    132031.28   -40736.194    2644.7011   -43380.895    79.218927 
   26600    214.69313   -41.250914    132132.62   -40724.598    2615.5142   -43340.112     79.28406 
   26650    214.88149    56.211027    132086.84   -40732.416    2617.8089   -43350.225    79.515498 
   26700    219.82345   -167.21077    132037.26   -40731.705    2678.0147   -43409.719    79.800347 
   26750    212.99918   -28.787093    131907.17   -40742.442    2594.8775    -43337.32    79.815964 
   26800     217.0268    14.658876    132058.47   -40720.479    2643.9444   -43364.424    80.081774 
   26850    215.87553    141.55573    132150.85    -40686.61    2629.9189   -43316.529    80.234605 
   26900    213.25896   -365.93473    132120.37   -40721.423    2598.0424   -43319.465    80.130445 
   26950    215.98233   -25.832593    131989.55   -40716.823      2631.22   -43348.043     80.05077 
   27000    216.19307   -19.198887    132039.17    -40765.38    2633.7874   -43399.168    80.433871 
   27050    212.16877   -2.6030647    132182.35   -40802.347    2584.7611   -43387.108    80.787595 
   27100     209.9227   -202.16037    132005.71   -40870.802    2557.3981     -43428.2    80.711269 
   27150    211.93417   -65.826521    131806.55   -40847.466     2581.903   -43429.369    80.741321 
   27200    210.82963    213.10663    131812.47   -40854.691    2568.4469   -43423.138    80.796336 
   27250     212.8637    38.612276    131950.26   -40892.824    2593.2271   -43486.051    80.796262 
   27300    212.98038    59.950273    131901.06   -40831.113    2594.6485   -43425.761    80.990306 
   27350     212.3351    29.847985     131925.3   -40861.464    2586.7874   -43448.251    81.098818 
   27400    214.23808    70.102024    131914.17   -40833.358    2609.9705   -43443.329     81.13883 
   27450    214.05807   -66.519536    132001.14   -40806.204    2607.7776   -43413.982    81.214058 
   27500    212.51661   -106.55876     131970.8   -40789.158    2588.9986   -43378.156    81.250111 
   27550    213.85265    -17.42539    131952.83   -40787.972     2605.275   -43393.247    81.597006 
   27600    210.47195    3.0029139    131809.75   -40779.296    2564.0895   -43343.386    81.908553 
   27650    212.59445    106.20087    131832.22   -40792.398    2589.9469   -43382.345    82.014309 
   27700     208.7276    142.18842    131950.92   -40787.261    2542.8387     -43330.1     82.06117 
   27750    215.07551   -23.741996    131967.22   -40757.591    2620.1726   -43377.764    82.329583 
   27800    216.42786    29.042866    131904.51   -40761.556    2636.6478   -43398.204    82.609624 
   27850    212.06065    16.633925    131962.42    -40758.99    2583.4439   -43342.434    82.721505 
   27900    211.80972    142.77657    132078.88   -40770.786    2580.3869   -43351.173    82.899435 
   27950    213.78985   -109.73691    132036.08   -40780.551      2604.51   -43385.061    83.215653 
   28000    210.78838    80.689526    132133.22   -40825.678    2567.9444   -43393.622    83.385914 
   28050    213.18506   -29.181673    132188.64   -40782.142     2597.142   -43379.284    83.597754 
   28100    212.62924    25.463829     132207.1    -40771.32    2590.3708   -43361.691    83.702264 
   28150    217.88698   -73.535925    132146.41   -40757.398    2654.4235   -43411.821    83.816638 
   28200    214.29567   -97.738801    132045.34   -40753.581    2610.6722   -43364.253    84.008517 
   28250    213.61746     31.30211    131961.71   -40744.016    2602.4098   -43346.426     84.14096 
   28300     215.1902    82.808365    132131.68    -40733.06    2621.5698    -43354.63    84.458112 
   28350    212.22012   -20.613344    132099.53   -40744.218    2585.3866   -43329.604    84.527403 
   28400      213.187   -115.34391    132074.53   -40821.995    2597.1657   -43419.161    84.398254 
   28450    215.72371    18.542078    132038.35    -40810.56    2628.0693   -43438.629    84.506252 
   28500    212.19528   -24.018095    132096.93   -40828.666     2585.084    -43413.75    84.864479 
   28550    211.23945       141.86    132124.64   -40839.457    2573.4395   -43412.897    84.906668 
   28600     215.2251    -62.99367    132117.33   -40793.275     2621.995    -43415.27    85.108427 
   28650    211.00676    64.947657    132130.69   -40833.528    2570.6048   -43404.133    85.264576 
   28700    210.36962    120.88623       132232   -40815.399    2562.8427   -43378.242    85.524261 
   28750     213.0888    97.014406    132294.32   -40823.928    2595.9693   -43419.898     85.41641 
   28800    209.13632    -94.00521    132291.18   -40797.815     2547.818   -43345.633    85.720432 
   28850    211.93526    46.324294    132277.25   -40794.344    2581.9162    -43376.26     85.73895 
   28900    212.40824   -147.07612    132295.18   -40740.498    2587.6784   -43328.177    85.840713 
   28950    214.84576    46.122882    132125.99   -40724.452    2617.3737   -43341.825    85.630312 
   29000    213.40048    148.60266    132285.44   -40709.706    2599.7664   -43309.472    85.810525 
   29050    210.27886   -44.898652    132122.28   -40754.088    2561.7371   -43315.825    85.796874 
   29100    208.56016   -134.36882    131949.76   -40777.775    2540.7989   -43318.574    85.926375 
   29150    216.17432    90.471547    131820.96   -40733.623    2633.5589   -43367.182    86.052489 
   29200    215.94755    112.37726    131993.58   -40698.711    2630.7963   -43329.507    86.166964 
   29250    211.90909    102.42713    132016.78   -40729.066    2581.5975   -43310.663    86.229125 
   29300    212.65837    10.606364    132137.43   -40761.752    2590.7256   -43352.478     86.47448 
   29350    214.67918   -62.521483    132129.24   -40752.849    2615.3443   -43368.193    86.690908 
   29400    210.85744   -63.140729    132150.09   -40777.275    2568.7856    -43346.06    86.888197 
   29450     216.1151   -13.629269    132210.06   -40749.935    2632.8375   -43382.772    86.942782 
   29500    212.07309    16.656817    132130.07   -40793.661    2583.5954   -43377.257    87.160492 
   29550    212.59433    70.806162    132163.53   -40756.319    2589.9455   -43346.265    87.485051 
   29600    211.02835   -42.417628    132182.34   -40780.531    2570.8678   -43351.398    87.647794 
   29650    216.26422   -6.5424476    132180.74   -40724.377    2634.6541   -43359.031    87.752394 
   29700    218.08118    67.985863     132185.4   -40739.613    2656.7894   -43396.402    87.757609 
   29750     217.2095    77.774449    132218.36    -40733.14    2646.1701    -43379.31    87.544065 
   29800    211.04635   -47.872523    132238.93    -40769.89    2571.0871   -43340.977    87.810064 
   29850    217.49135   -12.158765    132192.98   -40773.029    2649.6038   -43422.633    88.008384 
   29900    210.81121    -46.68162    132065.52   -40808.828    2568.2225   -43377.051    88.083765 
   29950    213.29357    41.857118    132072.45   -40775.563     2598.464   -43374.027     87.98862 
   30000    210.28145    29.170152    132210.03   -40813.807    2561.7686   -43375.575    88.256033 
   30050     213.0898   -94.869663    132132.32   -40852.472    2595.9816   -43448.454    88.351825 
   30100     208.4823     2.785713    132070.52   -40870.935    2539.8504   -43410.786    88.507146 
   30150    212.55803    84.999622    132067.34   -40853.212    2589.5032   -43442.716    88.597657 
   30200    213.32918   -34.142027    132120.85   -40817.788    2598.8978   -43416.686    88.961409 
   30250    215.23076    36.953551    132221.57   -40775.559    2622.0639   -43397.623    89.100276 
   30300    214.39375   -51.169724    132225.13   -40742.571     2611.867   -43354.438    89.085206 
   30350    216.56275    14.203839    132283.58   -40685.349     2638.291    -43323.64    89.269672 
   30400    216.97606     60.38826    132392.42   -40711.088    2643.3262   -43354.414    89.577731 
   30450     219.1997   -80.575526    132311.58   -40661.589    2670.4158   -43332.005    89.672957 
   30500     214.4588    98.758011    132252.21   -40696.034    2612.6595   -43308.693    90.040716 
   30550    217.19309    60.454686     132197.3   -40712.069    2645.9701   -43358.039    90.211087 
   30600     214.4097   -7.9211574    132274.46   -40709.298    2612.0613   -43321.359    90.278619 
   30650    212.46576    29.231582    132310.83   -40696.392    2588.3791   -43284.771    90.389782 
   30700    216.22815   -34.715552    132375.69   -40708.667    2634.2147   -43342.881    90.657038 
   30750    216.16674   -151.39813    132177.19   -40667.434    2633.4666     -43300.9    90.630873 
   30800    211.28847    26.766338    132203.54   -40698.499    2574.0367   -43272.536    90.688206 
   30850    215.13978     87.24518    132225.53   -40641.181    2620.9556   -43262.137    90.677155 
   30900    219.71776    52.643939     132097.8   -40698.848    2676.7271   -43375.575    90.404281 
   30950    214.26154   -4.9172986    132022.71   -40688.673    2610.2563    -43298.93    90.449696 
   31000    217.44733    66.369454    132106.24   -40699.676    2649.0675   -43348.744    90.616323 
   31050     213.7976    133.01566    132128.99   -40749.875    2604.6044    -43354.48    90.591532 
   31100    214.15755     34.18789    132285.28   -40704.309    2608.9895   -43313.298    90.840967 
   31150    216.77322   -80.747052    132271.86   -40713.281    2640.8551   -43354.136    91.192836 
   31200    216.23722    35.061589    131975.79   -40718.957    2634.3252   -43353.282    91.090247 
   31250    210.29702   -54.898481    132022.63   -40764.473    2561.9583   -43326.431    91.068707 
   31300     212.2515     94.83758       131976   -40743.868    2585.7689   -43329.637    91.193542 
   31350    214.66478    99.404722    132052.32    -40723.41    2615.1688   -43338.578    91.415729 
   31400    210.51417    2.6492144     132198.5   -40738.552    2564.6038   -43303.156    91.574354 
   31450    213.17083    42.358769    132250.74   -40732.843    2596.9687   -43329.811     91.54679 
   31500    215.93853   -84.530638    132120.47   -40724.585    2630.6864   -43355.272    91.626778 
   31550    213.25725   -54.598178    131896.56   -40737.503    2598.0216   -43335.525    91.803855 
   31600     215.5798   -53.344047    131746.29   -40720.695    2626.3161   -43347.011    91.864548 
   31650    217.48346    79.297614    131811.21   -40692.064    2649.5076   -43341.572    91.951424 
   31700     215.4425    139.93787    131977.49   -40710.808    2624.6435   -43335.451     92.36182 
   31750     214.1273   -13.376685     131912.5   -40690.659    2608.6209    -43299.28    92.601902 
   31800    212.64388   -37.770592    131904.91    -40740.59    2590.5491    -43331.14    92.682831 
   31850    213.51093    60.491635    132100.04    -40704.29     2601.112   -43305.402    92.943948 
   31900    213.86272    -4.886173    132128.36    -40689.79    2605.3977   -43295.188    93.039752 
   31950    217.91667    109.39995    132329.09   -40672.218    2654.7852   -43327.004    93.249867 
   32000    215.97214   -40.105133    132437.83   -40722.372    2631.0958   -43353.467    93.255998 
   32050    214.69072   -56.011751    132425.67   -40669.968    2615.4848   -43285.452    93.623343 
   32100    218.28672   -9.7370882    132417.31   -40622.477    2659.2934    -43281.77    93.743482 
   32150    212.82604    -7.891344    132379.02   -40658.738    2592.7683   -43251.507    93.749826 
   32200    214.23711     -127.346    132302.79   -40635.307    2609.9587   -43245.265    93.825154 
   32250    214.44814    13.893045    132226.15   -40666.999    2612.5296   -43279.528    94.061214 
   32300    215.91434   -35.571063    132294.59   -40643.436    2630.3916   -43273.828    94.181279 
   32350    216.79166    129.63226    132410.89   -40596.472    2641.0797   -43237.552    94.247667 
   32400    215.80493   -248.77193    132427.68   -40606.169    2629.0589   -43235.228    94.480539 
   32450     213.4417   -95.517233    132281.15   -40660.307    2600.2686   -43260.575    94.585393 
   32500    213.43171   -80.950665    132219.04   -40650.001    2600.1469   -43250.148    94.876887 
   32550    217.33826    55.894423     132289.1   -40623.016    2647.7387   -43270.755    94.856676 
   32600    216.33824    138.10289    132531.41   -40669.244    2635.5559     -43304.8    95.123143 
   32650    214.69234    86.643129    132650.39   -40669.682    2615.5046   -43285.187    95.145662 
   32700    215.47224   -53.287621    132511.15   -40690.527    2625.0058   -43315.533    95.356351 
   32750    215.71104   -112.06789    132445.12   -40682.108     2627.915   -43310.023    95.504489 
   32800    212.10377     -58.8802    132347.22    -40725.66    2583.9692   -43309.629    95.640519 
   32850    217.56995    44.748286    132380.91    -40732.47    2650.5613   -43383.031    95.925459 
   32900     213.9143    47.180889    132547.46    -40749.29    2606.0261   -43355.316    96.021276 
   32950    211.86301   -95.552883    132525.62   -40765.852    2581.0361   -43346.888    96.152068 
   33000    209.24676    66.353415    132591.88   -40764.827    2549.1635   -43313.991    96.383885 
   33050     210.4045   -67.710558    132546.02   -40760.095    2563.2677   -43323.363     96.59399 
   33100    219.72308   -139.94009    132380.33    -40712.18     2676.792   -43388.972    96.564815 
   33150    211.18599    33.464015    132226.64   -40759.579    2572.7882   -43332.367     96.70016 
   33200    214.48826    10.348207    132300.41   -40753.632    2613.0184    -43366.65    96.707779 
   33250    216.38804    28.442566    132420.91   -40688.215    2636.1625   -43324.377    96.961991 
   33300    212.85746    71.591124    132432.07   -40709.471    2593.1511   -43302.622    97.386023 
   33350    215.41029    32.793477    132492.26   -40682.413    2624.2511   -43306.664    97.789354 
   33400    215.30212   -32.563103    132476.49   -40674.828    2622.9333   -43297.761    97.910815 
   33450    216.34994    25.429999    132432.34   -40631.646    2635.6985   -43267.345    97.882957 
   33500    214.33558    79.908647    132436.84   -40642.741    2611.1584   -43253.899    98.154562 
   33550    218.45654   -66.925187     132545.6   -40686.674    2661.3622   -43348.036    98.347174 
   33600    213.54462   -62.169829    132603.73   -40736.195    2601.5225   -43337.718    98.530351 
   33650    212.10846   -11.644021    132487.43   -40759.726    2584.0263   -43343.752    98.398338 
   33700    214.30042   -71.712572    132358.95   -40738.972      2610.73   -43349.702    98.274156 
   33750    216.34211   -227.83696    132193.29   -40736.016    2635.6031   -43371.619    98.352792 
   33800    218.15267    -22.67164    131996.16   -40675.171    2657.6603   -43332.832    98.319078 
   33850    219.03189     15.51052    132141.67   -40654.771    2668.3715   -43323.143    98.606331 
   33900    215.76201    144.61897    132143.94   -40652.336     2628.536   -43280.872    98.787306 
   33950    218.20313     81.55857    132386.54   -40643.307     2658.275   -43301.582     98.89116 
   34000    215.76078    104.70182    132509.42   -40681.992     2628.521   -43310.513    98.877782 
   34050    218.56662    -3.449832    132580.35   -40663.993    2662.7033   -43326.697    99.055663 
   34100    218.96066   -188.66235    132522.09   -40673.047    2667.5037    -43340.55    99.562379 
   34150    214.66685   -172.53857    132359.61   -40618.645    2615.1941   -43233.839    99.648798 
   34200     215.1801   -7.1476922    132095.49   -40614.599    2621.4467   -43236.046    99.647891 
   34250    215.33625    29.704123    131965.81   -40660.273    2623.3491   -43283.622    99.697165 
   34300    217.67256   -106.55909    131865.75   -40607.276    2651.8114   -43259.088    99.640242 
   34350    214.82264   -29.662483    131738.12   -40574.432     2617.092   -43191.524    99.679175 
   34400    213.28508    28.298105     131937.4   -40610.499    2598.3606    -43208.86    99.881581 
   34450    217.03514   -32.210863    131814.86   -40633.446    2644.0459   -43277.492    99.865586 
   34500    211.67017   -30.087553    131832.84   -40617.513    2578.6869     -43196.2    99.725426 
   34550    213.55908    22.591706     131694.8   -40679.456    2601.6986   -43281.154    99.519507 
   34600    213.24022    107.44894    131686.97   -40664.212    2597.8141   -43262.026    99.779698 
   34650    218.21769    155.44381    131860.38   -40626.375    2658.4525   -43284.828    100.22807 
   34700    216.32914   -145.75272    131855.09   -40649.328     2635.445   -43284.773    100.30714 
   34750    218.13838   -95.920125    131798.75   -40651.732    2657.4862   -43309.218    100.43191 
   34800    216.78249    136.69134    131948.26   -40632.867     2640.968   -43273.835    100.61727 
   34850     216.6363   -101.50111    131931.66   -40603.134     2639.187   -43242.321    100.76498 
   34900     219.8169   -43.608408    131828.79   -40593.786    2677.9349   -43271.721    101.14289 
   34950    216.48174   -132.49985    131863.66   -40645.054    2637.3042   -43282.359    101.51343 
   35000    219.83693   -145.77105     131749.4   -40653.811    2678.1789    -43331.99     101.4603 
   35050    210.30428   -149.95827    131560.66    -40729.43    2562.0468   -43291.477    101.37233 
   35100    216.55459    122.44108    131597.61   -40711.097    2638.1916   -43349.289    101.46633 
   35150    213.05237    42.393384    131669.22   -40666.762    2595.5255   -43262.288    101.70198 
   35200    213.93575    128.47666     131755.2   -40694.022    2606.2874   -43300.309    102.04865 
   35250    215.83461   -213.89429    131763.43   -40698.221    2629.4204   -43327.642    102.00202 
   35300    215.82678   -27.280059    131760.92   -40670.442     2629.325   -43299.767    102.10994 
   35350    212.75234    129.34778    131762.64   -40683.401    2591.8704   -43275.272    102.25747 
   35400    217.03625    52.227931    131868.01   -40637.641    2644.0594   -43281.701    102.66218 
   35450    212.69316   -49.937362    131790.97   -40670.954    2591.1495   -43262.103    102.61371 
   35500    216.55608   -172.82694    131750.95   -40637.147    2638.2097   -43275.357    102.84513 
   35550    220.04192   -98.599564    131650.62   -40629.794    2680.6762    -43310.47    103.09024 
   35600    219.04926    170.96964     131857.7    -40578.53    2668.5831   -43247.113    103.64045 
   35650     217.1781   -37.317153    131978.63   -40655.832    2645.7876   -43301.619    103.77422 
   35700    213.27164    80.932914    131859.05   -40620.949    2598.1968   -43219.146    103.80589 
   35750    215.74793    44.932389    131836.87   -40628.592    2628.3644   -43256.956    103.84299 
   35800    215.32454    -103.5214    131919.35   -40616.394    2623.2065     -43239.6    104.06195 
   35850    215.74637   -64.237905     131863.7   -40628.522    2628.3454   -43256.868     104.1032 
   35900    215.97629    11.256179    131836.59   -40655.939    2631.1464   -43287.086    104.21609 
   35950    214.67127   -122.94019     131667.9   -40663.596    2615.2479   -43278.844    104.37286 
   36000    213.82031      54.7171    131668.26   -40659.654     2604.881   -43264.535     104.5863 
   36050    218.29706    5.7288975    131761.31    -40649.81    2659.4193    -43309.23    104.61504 
   36100    216.31191   -22.366708    131980.85   -40615.507    2635.2351   -43250.742    104.97299 
   36150    222.85436    154.30389    132126.11   -40537.162     2714.939   -43252.101    105.05999 
   36200    217.04549    97.016981       132300   -40529.909     2644.172   -43174.081    105.28611 
   36250    220.69186     28.61037    132324.13   -40529.663    2688.5942   -43218.257    105.36846 
   36300    218.20079    71.701321    132352.24   -40563.935    2658.2466   -43222.182    105.50151 
   36350    213.62376    8.9859891    132381.86   -40598.092    2602.4865   -43200.579    105.53959 
   36400    212.51599    -32.99903    132342.27   -40649.494     2588.991   -43238.485     105.8654 
   36450    218.13444    18.682137    132122.88   -40663.601    2657.4383   -43321.039    105.72564 
   36500    217.84645   -121.70703    132139.17   -40684.222    2653.9298   -43338.151    105.75532 
   36550    211.24395   -7.6908733    132115.04   -40717.708    2573.4943   -43291.202    105.89171 
   36600    217.60108   -160.24965    131999.99   -40685.366    2650.9405   -43336.306    105.92038 
   36650    215.89361   -41.161508    131862.93   -40700.869    2630.1391   -43331.008    106.08595 
   36700    211.00918    123.11545    131893.94   -40678.166    2570.6342     -43248.8    106.20089 
   36750    213.14575    186.01131    132054.38   -40672.492    2596.6632   -43269.155    106.44653 
   36800    216.61847    149.76885    132285.14   -40652.006    2638.9698   -43290.976    106.67635 
   36850    215.65321   -114.38862    132334.92   -40613.537    2627.2105   -43240.748    106.68638 
   36900    219.73987    25.951946    132107.57   -40622.821    2676.9965   -43299.817    106.95615 
   36950    214.48911   -75.434238    131968.26    -40671.62    2613.0287   -43284.649    106.99462 
   37000    211.77797   -28.511612    131959.32    -40673.85         2580    -43253.85     106.9737 
   37050    215.66362    72.949449    131982.93    -40668.39    2627.3373   -43295.727    107.13783 
   37100     214.2546   -31.814582    131975.16    -40644.44    2610.1718   -43254.612    107.08283 
   37150    213.09207    39.118753    132079.54   -40666.517    2596.0092   -43262.526    107.29242 
   37200    213.87373    30.047636    132201.94   -40705.802    2605.5319   -43311.334    107.62924 
   37250    213.91248   -57.430339    132060.91   -40704.205    2606.0039   -43310.209    107.69227 
   37300    214.27164    64.657775     132066.5   -40672.148    2610.3793   -43282.528    107.75057 
[...]
  191000    214.27768    152.98459    131984.91   -40673.253     2610.453   -43283.706    537.60841 
  191050    216.63825    30.020294    131949.63   -40652.777    2639.2108   -43291.987    537.39393 
  191100    216.71374   -41.600113    131832.57    -40696.23    2640.1305    -43336.36    537.21933 
  191150    215.69702     71.60774    131816.05   -40695.922    2627.7442   -43323.666    537.45422 
  191200     214.9302   -94.196193    131811.91   -40733.103    2618.4023   -43351.505    537.51723 
  191250    218.86499   -114.03212    131831.05   -40668.643    2666.3383   -43334.981    537.03954 
  191300     217.8672    7.1790224    131839.62     -40651.2    2654.1826   -43305.382    537.42052 
  191350    218.29652    39.933844    131903.09   -40670.619    2659.4128   -43330.031    537.33491 
  191400    215.68828   -53.556922    131930.41   -40731.821    2627.6378   -43359.459    537.31235 
  191450     213.1398   -54.223264    131956.65   -40768.014    2596.5907   -43364.605    537.27113 
  191500    213.93859   -26.540433    131889.22   -40768.449     2606.322   -43374.771    537.46683 
  191550    214.02533   -48.979946    131851.99   -40786.331    2607.3787    -43393.71    537.80717 
  191600    213.46753    97.613336    131851.71   -40779.867    2600.5833    -43380.45     538.0747 
  191650    209.88372    17.512845    131914.02   -40784.368    2556.9233   -43341.291    538.87604 
  191700    213.43579    58.801344    132057.14   -40767.842    2600.1966   -43368.038     539.6594 
  191750    215.70206   -17.251592    132104.35   -40789.091    2627.8056   -43416.896    540.07983 
  191800    213.62069   -48.682291    132073.52   -40706.365    2602.4492   -43308.814    539.54967 
  191850    215.98935    119.10014     132152.8   -40698.476    2631.3056   -43329.782     540.2564 
  191900    218.25252   -74.514503    132226.88    -40653.16    2658.8768   -43312.037    540.84542 
  191950    216.77836   -67.140638    132110.28   -40666.172    2640.9177    -43307.09    540.69752 
  192000    215.05225     36.18387    132256.97   -40684.504    2619.8893   -43304.394     541.3201 
  192050    213.19564     258.1744    132346.46   -40686.352     2597.271   -43283.623    542.12859 
  192100    214.71472   -147.54213    132425.06   -40660.902    2615.7772   -43276.679    542.23299 
  192150    217.70702    -170.7303    132160.74   -40689.986    2652.2311   -43342.217     541.7917 
  192200    213.05409   -37.526531    132103.15   -40737.947    2595.5466   -43333.494    541.83359 
  192250    212.67602    66.072177    132151.89   -40692.759    2590.9407     -43283.7    541.34892 
  192300    214.25708    35.446163    132320.88   -40699.744     2610.202   -43309.946     542.3304 
  192350     214.2748    1.3665466    132315.19   -40677.937    2610.4179   -43288.354    542.39435 
  192400    211.62058   -64.122716    132367.92   -40718.053    2578.0826   -43296.135    542.60786 
  192450    216.05235   -229.31682    132157.86   -40732.529     2632.073   -43364.602     542.8837 
  192500    217.04132   -76.828912    131982.71   -40690.968    2644.1213   -43335.089    542.18143 
  192550    210.12725   -38.416232    131934.42   -40750.898    2559.8901   -43310.788    542.23498 
  192600    212.52904   -13.010613    132010.01   -40746.516    2589.1501   -43335.666    542.10832 
  192650    216.21934    96.253579    132024.91   -40687.508    2634.1073   -43321.615    542.01356 
  192700    213.10628    19.763097    131961.79    -40657.13    2596.1824   -43253.312     542.4026 
  192750    215.05617    -31.77177    131926.97   -40604.711     2619.937   -43224.648    542.14669 
  192800    219.22274     10.90539    132057.25   -40632.327    2670.6965   -43303.024    542.82539 
  192850     215.0201    38.060825    132110.75   -40642.559    2619.4975   -43262.056    543.06056 
  192900    215.77852    103.90618    132138.05   -40627.648    2628.7371   -43256.385    544.15399 
  192950    215.31014    37.849917    132110.97   -40676.281     2623.031   -43299.312    544.23255 
  193000    215.07717    34.413323    132160.59   -40611.375    2620.1929   -43231.568     544.2104 
  193050    216.79366    90.567857    132098.34   -40671.314    2641.1041   -43312.418    544.32985 
  193100     218.5118     86.34503    132315.42   -40637.767    2662.0355   -43299.802    544.73284 
  193150     216.5114   -66.328041    132446.27   -40655.128    2637.6654   -43292.794    545.65871 
  193200    219.69418   -59.151442     132492.1   -40640.595    2676.4399   -43317.035    545.82577 
  193250    217.61489   -32.881936    132463.64   -40665.495    2651.1088   -43316.604    545.54515 
  193300     216.8427    -42.90233    132327.15    -40677.29    2641.7016   -43318.992    544.64553 
  193350     214.2637    93.085895    132421.93   -40687.172    2610.2827   -43297.455    545.01091 
  193400    213.98469   -113.27913    132348.38   -40716.361    2606.8836   -43323.245    545.02554 
  193450    212.78009   -3.1229276    132208.24   -40736.007    2592.2085   -43328.215    545.02906 
  193500    215.14586    73.745296    132150.58   -40753.186    2621.0297   -43374.215    545.38086 
  193550    211.72188    17.412775     132286.7    -40764.16    2579.3167   -43343.477    545.70372 
  193600    216.16772   -117.70059    132321.01   -40721.012    2633.4786   -43354.491    545.95202 
  193650    217.04262    37.036312    132340.75   -40709.728     2644.137   -43353.865    545.95195 
  193700    216.57249   -122.04585    132351.48   -40746.054    2638.4096   -43384.464    545.66055 
  193750    215.68003   -82.888038    132287.98   -40695.857    2627.5372   -43323.394    545.83611 
  193800    214.26437   -31.306123    132196.18   -40715.326    2610.2908   -43325.617    545.64527 
  193850    216.46824    8.6747128    132332.12   -40715.637    2637.1397   -43352.776     545.9838 
  193900    214.24129    -68.60355     132331.8   -40715.803    2610.0096   -43325.812    546.16769 
  193950    211.17653   -107.37439    132215.72   -40783.707     2572.673    -43356.38    546.04653 
  194000     214.5706    168.12773    132236.71   -40725.144    2614.0215   -43339.165    545.78352 
  194050    212.11456    42.214726    132356.99     -40745.5    2584.1006   -43329.601    546.78126 
  194100      211.576    132.05585    132340.58   -40743.029    2577.5396   -43320.569    547.06851 
  194150    216.38447   -48.458179    132269.16   -40746.751    2636.1191    -43382.87     547.3273 
  194200    213.17555   -117.09007    132211.93   -40746.803    2597.0261   -43343.829    547.38752 
  194250    213.08851    94.108494    132224.32   -40663.044    2595.9659    -43259.01    547.58248 
  194300    216.19861    135.01766     132349.2   -40637.805    2633.8549    -43271.66    547.39466 
  194350    214.22665    79.475269     132391.6   -40661.891    2609.8313   -43271.722    547.84998 
  194400    213.95632     6.221826    132359.28   -40662.977    2606.5379   -43269.515    548.17803 
  194450    214.39162    27.719995    132401.89   -40686.018    2611.8411   -43297.859    548.84879 
  194500    217.27558   -60.711156     132275.4   -40678.609    2646.9751   -43325.584    548.88351 
  194550     214.2729   -33.110526    132077.88   -40687.081    2610.3947   -43297.475    547.94988 
  194600    216.14626    87.280326       132141    -40656.62    2633.2171   -43289.837    548.38295 
  194650    211.56733    111.11237    132176.71   -40698.169     2577.434   -43275.603    547.90173 
  194700    214.50339    161.25642    132283.66   -40673.962    2613.2027   -43287.165    548.03194 
  194750    217.66952    56.878931    132368.67   -40624.139    2651.7743   -43275.913    548.98824 
  194800    211.79994   -31.384936    132211.26   -40621.988    2580.2678   -43202.256    548.83187 
  194850    215.78946    35.619125    132096.15    -40623.77    2628.8704    -43252.64    548.83962 
  194900    212.34294   -32.688445    132018.54   -40675.178    2586.8828   -43262.061    548.74253 
  194950    216.31115   -83.062047    131871.76   -40640.949    2635.2259   -43276.175    548.61608 
  195000    219.53703   -71.985423    131861.51   -40609.827    2674.5254   -43284.353    548.77644 
  195050    219.22311   -9.8311259    131886.25   -40611.107     2670.701   -43281.808    548.92167 
  195100    220.42291   -57.606037    131989.13   -40628.025    2685.3177   -43313.343     548.8572 
  195150    218.06886    30.241061     132114.4   -40631.668    2656.6393   -43288.307     550.0126 
  195200     216.4902    97.063055    132091.38   -40622.689    2637.4072   -43260.096    550.17295 
  195250    215.80579    6.9662469    132122.87   -40651.451    2629.0693    -43280.52    550.14882 
  195300    217.05554   -47.916697    132154.31   -40660.264    2644.2945   -43304.559    550.76486 
  195350    215.73814    80.974607    132245.33   -40640.204    2628.2451   -43268.449    551.62517 
  195400     216.9369   -32.252469    132320.81   -40658.017    2642.8491   -43300.866      551.992 
  195450    215.31349    108.19852    132350.96   -40646.269    2623.0718    -43269.34    551.76422 
  195500    218.45409   -148.78033    132197.49   -40616.622    2661.3324   -43277.954    551.97654 
  195550    216.59254   -73.404463    132186.19   -40641.377    2638.6539   -43280.031    551.92395 
  195600    216.49068    18.190257    132106.23   -40644.806     2637.413   -43282.219    551.66846 
  195650    217.29389   -15.973883    132121.55   -40660.953    2647.1982   -43308.152    552.46366 
  195700    217.27151   -66.212121    132194.33   -40661.126    2646.9255   -43308.051    552.80859 
  195750    215.84151   -183.09468    132010.57   -40668.989    2629.5045   -43298.494    551.80578 
  195800    215.21572    33.732257     131927.6   -40706.011    2621.8807   -43327.892     552.3714 
  195850    214.19155    128.47336     132023.9   -40701.064    2609.4037   -43310.468    552.59463 
  195900    217.68635    171.38347    132244.96   -40686.144    2651.9794   -43338.124    553.37221 
  195950    220.17743   -88.062599    132273.66   -40666.724    2682.3271   -43349.051    553.73577 
  196000    216.86024   -66.533916    132324.83   -40718.227    2641.9152   -43360.143    553.48891 
  196050    217.34302  -0.61480696    132309.15   -40698.648    2647.7968   -43346.445    553.54588 
  196100    212.86587   -83.412071    132231.06   -40756.764    2593.2535   -43350.018    553.28857 
  196150    214.02911   -141.38168    132321.96   -40732.776    2607.4248     -43340.2    553.45426 
  196200    213.28266   -219.99269    132147.89   -40709.953    2598.3311   -43308.284     553.0021 
  196250    213.77903   -5.6403181    131923.13   -40728.358    2604.3781   -43332.736    552.41963 
  196300    214.38021    104.46828    131897.06   -40705.571    2611.7021   -43317.273    552.87859 
  196350    213.17428    31.348866    131857.35   -40708.574    2597.0108   -43305.585    553.50772 
  196400    211.29041   -52.328134    131814.18   -40690.041    2574.0604   -43264.101      553.972 
  196450    216.17363    64.239948    131908.77   -40650.129    2633.5505    -43283.68    554.66292 
  196500     217.0118    26.418685    132025.79   -40605.037    2643.7615   -43248.799    554.86947 
  196550    214.27218    19.387694    132133.56   -40608.459     2610.386   -43218.845    555.43211 
  196600    213.29383   -41.527404     132160.1    -40684.63    2598.4672   -43283.097    555.56854 
  196650    210.04151   -51.241992    132177.04   -40738.657    2558.8455   -43297.502     556.0148 
  196700    211.13752   -9.1050302    132122.65   -40720.937    2572.1978   -43293.135    555.95371 
  196750    213.46368   -14.243774     131950.2   -40726.558    2600.5363   -43327.094    554.73681 
  196800    216.28225   -32.279427    131867.89    -40693.03    2634.8738   -43327.904    554.30019 
  196850    211.40321   -13.965105    131901.05   -40707.708    2575.4345   -43283.143    554.21875 
  196900    214.92957   -25.544948    131772.85    -40681.81    2618.3947   -43300.205     554.5969 
  196950    218.07235   -26.850597    131843.25    -40647.71    2656.6818   -43304.392    555.18351 
  197000    216.47756    158.06198    131841.66   -40638.815    2637.2532   -43276.069    555.26872 
  197050    216.61475   -25.403341    131838.37   -40643.235    2638.9244   -43282.159    555.70808 
  197100    214.51156    12.000193    131902.77   -40617.492    2613.3022   -43230.794    555.68003 
  197150    218.87805    195.08943    132046.46    -40588.77    2666.4973   -43255.267    556.15342 
  197200     215.8186   -122.34095    132119.79   -40595.111    2629.2254   -43224.337    556.18384 
  197250    217.07929   -55.909108    132008.42   -40631.021    2644.5838   -43275.605    555.83384 
  197300    220.08204   -21.945571    131919.13   -40569.952    2681.1649   -43251.116    556.19318 
  197350    218.30159   -19.955278    131993.06   -40591.031    2659.4745   -43250.506      556.126 
  197400    216.23271    22.510021    132003.54   -40597.725    2634.2703   -43231.995    556.12031 
  197450    214.18396    93.933855    131982.74   -40607.961    2609.3113   -43217.272    556.64055 
  197500    215.18952    87.660915    132021.69   -40617.905    2621.5615   -43239.466    556.29354 
  197550    219.43934    -68.93852    131983.55   -40638.008    2673.3352   -43311.344     556.0413 
  197600    211.57761    63.334057    131861.51   -40668.511    2577.5592    -43246.07    555.92669 
  197650    210.37989    150.77119    131749.53   -40641.453    2562.9679   -43204.421    555.50629 
  197700    216.01629   -26.628234    131872.33   -40633.228    2631.6338   -43264.862    555.86792 
  197750    216.45059    4.8985167    131821.33   -40646.123    2636.9246   -43283.048    555.90124 
  197800     216.0698   -21.974505    131851.49   -40620.749    2632.2856   -43253.035    555.97314 
  197850    212.60612   -81.418245     131863.2    -40671.45    2590.0891   -43261.539     556.2252 
  197900    216.63637   -43.644235    131817.31   -40641.562    2639.1878    -43280.75    555.83274 
  197950    213.63947   -65.804479    131723.32   -40617.859    2602.6779   -43220.537    555.31382 
  198000    215.33128   -128.37901    131614.24   -40625.792    2623.2885    -43249.08    555.31012 
  198050    214.71201    217.45261    131740.91   -40648.923    2615.7442   -43264.667    555.70228 
  198100    218.34988    79.901757    131876.96   -40629.794    2660.0628   -43289.857    557.12056 
  198150     213.8021     -2.74927    131872.48   -40663.311    2604.6591    -43267.97    558.22653 
  198200    212.63737    143.63643    131838.67   -40666.618    2590.4698   -43257.088    557.84865 
  198250    213.54981   -34.752081    131750.35   -40680.083    2601.5857   -43281.669    557.77796 
  198300    215.82412   -10.972259     131676.8   -40668.898    2629.2926    -43298.19    557.32084 
  198350    216.78814     211.1381    131870.03   -40647.651    2641.0368   -43288.688    557.90292 
  198400    211.12089    188.23023    132055.69   -40627.879    2571.9952   -43199.875    558.25719 
  198450    215.12413    -126.1411    132084.38    -40680.47    2620.7649   -43301.235    558.50233 
  198500    211.87117   -13.897659    132030.79   -40720.327    2581.1355   -43301.463    558.53695 
  198550    217.63517    32.555397    132100.33   -40673.708    2651.3558   -43325.064    558.67791 
  198600    211.41812   -40.589192    132069.45   -40657.794    2575.6162    -43233.41    558.93292 
  198650    208.23446   -122.18762    131857.04   -40666.058    2536.8311   -43202.889    558.90576 
  198700    215.85853    38.776834    131825.66   -40635.716    2629.7118   -43265.428    558.49655 
  198750    215.90889    109.71179    131924.63   -40665.922    2630.3254   -43296.247    559.18816 
  198800    211.07304   -26.404229    131949.18   -40715.889    2571.4122   -43287.301    559.20489 
  198850    209.44852   -82.657548    131985.57   -40730.254    2551.6213   -43281.876    558.74044 
  198900    216.94909     26.08001    131960.05   -40720.015    2642.9976   -43363.013    559.24157 
  198950    220.39577    29.444033    131892.69   -40664.425     2684.987   -43349.412    559.28077 
  199000    217.46517    14.987749    131873.32   -40642.348    2649.2848   -43291.633    559.44778 
  199050     215.8078    112.98033    131930.56   -40668.341    2629.0937   -43297.435    559.98336 
  199100    213.18705   -95.669505    132071.21   -40682.625    2597.1663   -43279.791    560.59164 
  199150    216.32081    124.14499    132006.49   -40659.324    2635.3435   -43294.667    560.71532 
  199200    214.98911    4.8072381    131882.73    -40621.27      2619.12    -43240.39    560.06125 
  199250    220.94937    13.716657    131910.38    -40605.51    2691.7313   -43297.241    560.23037 
  199300    218.38515   -119.02307    131910.23   -40595.505    2660.4925   -43255.998    559.88203 
  199350    218.68814   -106.06138    131775.76   -40577.248    2664.1837   -43241.431    559.52991 
  199400    219.49205   -191.86148    131613.81    -40614.88    2673.9775   -43288.858    559.38884 
  199450    217.92474   -114.40201    131495.21   -40603.095    2654.8836   -43257.979    558.86509 
  199500    217.49148    217.38948    131503.75   -40616.331    2649.6054   -43265.936    559.16951 
  199550     214.8105    180.08138    131668.47    -40579.65    2616.9441   -43196.594    559.72201 
  199600    216.97478    140.19128    131747.56    -40643.09    2643.3106   -43286.401    559.86867 
  199650    216.24921    71.055536    131886.22   -40664.777    2634.4713   -43299.248    560.51522 
  199700     215.6595    40.727466       132111   -40621.539    2627.2871   -43248.826    561.47263 
  199750    216.93958   -24.901791    132032.98   -40648.216    2642.8818   -43291.098    561.46822 
  199800    213.07956     20.20488    132040.49    -40637.72    2595.8568   -43233.577    561.42943 
  199850    212.13748    -122.8251    132125.14   -40622.654    2584.3798   -43207.034     561.5987 
  199900    215.38131    49.191444    132084.13   -40626.769     2623.898   -43250.667    561.79135 
  199950    216.12573    47.820516    132050.48   -40655.446     2632.967   -43288.413    562.07274 
  200000    214.76085   -70.369499    131967.69   -40625.201    2616.3392    -43241.54    561.88754 
Loop time of 368.115 on 12 procs for 200000 steps with 4088 atoms

Performance: 234.709 ns/day, 0.102 hours/ns, 543.309 timesteps/s
98.4% CPU use with 12 MPI tasks x no OpenMP threads

MPI task timing breakdown:
Section |  min time  |  avg time  |  max time  |%varavg| %total
---------------------------------------------------------------
Pair    | 235.16     | 278.36     | 312.08     | 172.2 | 75.62
Neigh   | 6.157      | 7.0894     | 7.8047     |  23.8 |  1.93
Comm    | 39.274     | 72.047     | 115.58     | 340.6 | 19.57
Output  | 0.16547    | 0.19546    | 0.50643    |  21.2 |  0.05
Modify  | 6.9647     | 8.6923     | 9.2912     |  25.0 |  2.36
Other   |            | 1.735      |            |       |  0.47

Nlocal:    340.667 ave 366 max 298 min
Histogram: 2 2 0 0 0 0 0 0 4 4
Nghost:    954.667 ave 1000 max 893 min
Histogram: 1 2 1 0 0 0 1 4 2 1
Neighs:    0 ave 0 max 0 min
Histogram: 12 0 0 0 0 0 0 0 0 0
FullNghs:  11105.8 ave 12043 max 9402 min
Histogram: 2 2 0 0 0 0 0 0 2 6

Total # of neighbors = 133270
Ave neighs/atom = 32.6003
Neighbor list builds = 11821
Dangerous builds = 0

write_data		${DIR}/data.eq-${NAME}-${TEMP}
write_data		run_1/data.eq-${NAME}-${TEMP}
write_data		run_1/data.eq-hardcavity_freeze_1-${TEMP}
write_data		run_1/data.eq-hardcavity_freeze_1-215
undump          1

reset_timestep  0

unfix           2
unfix           3
unfix           4


################################################
#######         Run Simulation         #########
################################################

log				${DIR}/log.run_${NAME}
log				run_1/log.run_${NAME}
log				run_1/log.run_hardcavity_freeze_1
