
### Dimensions ###


### IMPORT ATOMS ###
read_data ../Box_Setup/data.Ibeam_240K
  orthogonal box = (0 0 0) to (157.504 36.4877 39.8503)
  8 by 2 by 4 MPI processor grid
  reading atoms ...
  8943 atoms
  reading velocities ...
  8943 velocities
group water type 2
2223 atoms in group water
group graphite type 1
6720 atoms in group graphite


# Define potential
#
pair_style          sw
pair_coeff * * MLC_e.sw C mW

# Add velocity/set timestep
#

fix		1 graphite setforce 0.0 0.0 0.0
velocity 	graphite set 0.0 0.0 0.0
velocity            water create ${START_TEMP} ${SEED} rot yes dist gaussian
velocity            water create 240 ${SEED} rot yes dist gaussian
velocity            water create 240 12408 rot yes dist gaussian
timestep            5.0

# Define output
#
compute 1 water msd
compute 2 water temp


thermo	            100
thermo_style custom step c_2 press vol etotal ke pe c_1[4] density

# Neighbor lists
#
neigh_modify        delay 0 every 1 check yes


# Set fixes
#
fix                 2 water momentum 10 linear 1 1 1 rescale
fix                 3 all nve
fix                 4 water temp/csvr ${START_TEMP} ${START_TEMP} 500.0 928347
fix                 4 water temp/csvr 240 ${START_TEMP} 500.0 928347
fix                 4 water temp/csvr 240 240 500.0 928347

# Run 0.05 ns equilibration
#
dump                1 all custom 100 ${DIR}/eq.${NAME}.dump id type x y z vx vy vz
dump                1 all custom 100 run_27/eq.${NAME}.dump id type x y z vx vy vz
dump                1 all custom 100 run_27/eq.ibeam_cooling_27.dump id type x y z vx vy vz
run                 10000
Neighbor list info ...
  update every 1 steps, delay 0 steps, check yes
  max neighbors/atom: 2000, page size: 100000
  master list distance cutoff = 6.67472
  ghost atom cutoff = 6.67472
  binsize = 3.33736, bins = 48 11 12
  1 neighbor lists, perpetual/occasional/extra = 1 0 0
  (1) pair sw, perpetual
      attributes: full, newton on
      pair build: full/bin/atomonly
      stencil: full/bin/3d
      bin: standard
Per MPI rank memory allocation (min/avg/max) = 0.5062 | 3.768 | 4.796 Mbytes
Step c_2 Press Volume TotEng KinEng PotEng c_1[4] Density 
       0          240   -163.35224    229018.04   -21211.582    1589.6064   -22801.188            0   0.87555383 
     100    241.86163   -323.90848    229018.04   -21186.524    1601.9366    -22788.46   0.90281023   0.87555383 
     200     240.5474   -269.79906    229018.04   -21233.746     1593.232   -22826.978    1.3382667   0.87555383 
     300    242.45863   -361.39575    229018.04   -21215.591    1605.8908   -22821.481    1.6146463   0.87555383 
     400     238.3607   -421.07798    229018.04    -21231.09    1578.7487   -22809.839    1.9926365   0.87555383 
     500    237.30024   -337.26454    229018.04   -21221.791    1571.7249   -22793.516    2.3478208   0.87555383 
     600    235.00064   -329.68539    229018.04   -21334.145    1556.4939   -22890.639    2.6991409   0.87555383 
     700    234.84171   -254.26954    229018.04   -21295.861    1555.4412   -22851.302    3.0454614   0.87555383 
     800    231.07511   -270.10574    229018.04   -21325.271    1530.4937   -22855.765    3.3176386   0.87555383 
     900    232.78937   -267.32162    229018.04   -21285.225    1541.8478   -22827.073    3.7177323   0.87555383 
    1000    239.71584   -267.68114    229018.04   -21220.858    1587.7243   -22808.582    4.1236104   0.87555383 
    1100    242.65642   -295.80907    229018.04   -21241.689    1607.2008    -22848.89    4.4769507   0.87555383 
    1200    229.85808   -385.92518    229018.04    -21293.13    1522.4328   -22815.562    4.9315704   0.87555383 
    1300    234.83735   -438.20174    229018.04   -21249.107    1555.4123   -22804.519    5.2005878   0.87555383 
    1400     245.8279   -365.41788    229018.04   -21171.133    1628.2066    -22799.34    5.5426436   0.87555383 
    1500    239.73634   -281.60873    229018.04   -21165.579      1587.86   -22753.439    6.0215682   0.87555383 
    1600    238.36338   -366.45722    229018.04    -21152.57    1578.7665   -22731.336    6.4900673   0.87555383 
    1700    237.81634   -299.27521    229018.04   -21172.051    1575.1432   -22747.194    6.9647136   0.87555383 
    1800    239.31252   -342.49715    229018.04   -21158.581     1585.053   -22743.634    7.5091192   0.87555383 
    1900    250.64958   -203.34431    229018.04   -21082.813    1660.1424   -22742.956     7.776586   0.87555383 
    2000    241.05358   -103.12507    229018.04   -21056.456    1596.5846    -22653.04    8.2013204   0.87555383 
    2100    240.21515   -281.42735    229018.04   -21082.131    1591.0314   -22673.162     8.692676   0.87555383 
    2200    243.63415   -269.37859    229018.04   -21078.594    1613.6767   -22692.271    9.1708079   0.87555383 
    2300    244.44096   -229.99185    229018.04   -21120.602    1619.0204   -22739.623    9.6628545   0.87555383 
    2400    241.56214     -341.195    229018.04   -21121.551     1599.953   -22721.504    9.8422969   0.87555383 
    2500    245.19479   -394.89501    229018.04   -21114.792    1624.0133   -22738.805    10.017838   0.87555383 
    2600    240.01311   -397.62155    229018.04   -21152.794    1589.6932   -22742.487    10.308893   0.87555383 
    2700    240.11198   -132.93535    229018.04   -21126.684    1590.3481   -22717.032    10.620702   0.87555383 
    2800    238.65467   -182.74746    229018.04   -21129.998    1580.6958   -22710.693    10.908129   0.87555383 
    2900    235.81423   -312.62707    229018.04   -21191.119    1561.8825   -22753.002    11.367841   0.87555383 
    3000    237.41698    -214.8768    229018.04   -21211.546    1572.4981   -22784.044    11.737216   0.87555383 
    3100    234.54346   -244.83737    229018.04   -21213.218    1553.4657   -22766.684    11.937109   0.87555383 
    3200    234.68807   -261.92453    229018.04   -21229.733    1554.4235   -22784.157    12.093837   0.87555383 
    3300    238.93588   -287.16805    229018.04   -21194.815    1582.5584   -22777.373    12.537705   0.87555383 
    3400    239.35078   -319.08434    229018.04   -21200.307    1585.3064   -22785.613     12.73805   0.87555383 
    3500    239.98664   -311.94466    229018.04   -21205.538    1589.5179   -22795.056    13.203998   0.87555383 
    3600    238.16176   -145.68017    229018.04   -21184.789    1577.4311    -22762.22    13.543357   0.87555383 
    3700    237.26754   -357.04918    229018.04   -21200.335    1571.5083   -22771.844    13.846274   0.87555383 
    3800    243.41381   -191.39562    229018.04   -21202.854    1612.2173   -22815.071    14.224856   0.87555383 
    3900     242.1149   -240.65266    229018.04   -21220.282    1603.6141   -22823.896    14.728358   0.87555383 
    4000    238.18153   -263.19274    229018.04   -21255.131     1577.562   -22832.693    15.240384   0.87555383 
    4100    234.98041   -196.34214    229018.04   -21199.235    1556.3598   -22755.595    15.611044   0.87555383 
    4200    240.64537   -389.36112    229018.04   -21162.062    1593.8809   -22755.943    15.909921   0.87555383 
    4300    245.40646   -275.31427    229018.04   -21066.421    1625.4153   -22691.836    16.299704   0.87555383 
    4400    247.52983   -358.83314    229018.04   -21071.763    1639.4791   -22711.242    16.365415   0.87555383 
    4500    246.10791    -234.3229    229018.04   -21134.765    1630.0613   -22764.826    16.845955   0.87555383 
    4600    247.78798   -299.56542    229018.04   -21173.883     1641.189   -22815.072    16.950931   0.87555383 
    4700    234.52559   -307.29306    229018.04   -21216.561    1553.3474   -22769.909    17.214598   0.87555383 
    4800    246.64229   -411.58114    229018.04   -21188.095    1633.6006   -22821.696     17.44024   0.87555383 
    4900    246.26729   -350.28864    229018.04    -21205.76    1631.1169   -22836.877    17.712243   0.87555383 
    5000    238.97353   -379.31891    229018.04    -21243.53    1582.8077   -22826.337     17.95391   0.87555383 
    5100    234.48708   -246.54952    229018.04   -21253.958    1553.0923   -22807.051    18.219204   0.87555383 
    5200    237.09992   -304.52479    229018.04   -21217.164    1570.3981   -22787.562     18.85998   0.87555383 
    5300    235.61159   -187.16706    229018.04   -21262.205    1560.5404   -22822.746    18.941661   0.87555383 
    5400    238.60366   -255.16108    229018.04   -21224.951    1580.3579   -22805.309    19.483444   0.87555383 
    5500     232.8833   -293.84702    229018.04   -21242.633    1542.4699   -22785.103    19.794064   0.87555383 
    5600    229.38399    -300.4168    229018.04   -21254.929    1519.2927   -22774.222    19.923062   0.87555383 
    5700    236.51376   -248.08268    229018.04   -21226.804    1566.5158   -22793.319    20.225634   0.87555383 
    5800    244.66336   -344.93953    229018.04   -21138.833    1620.4935   -22759.326    20.729517   0.87555383 
    5900    235.74015   -312.44457    229018.04    -21152.05    1561.3919   -22713.441    21.239319   0.87555383 
    6000    235.88756   -377.38388    229018.04    -21230.97    1562.3682   -22793.338    21.407406   0.87555383 
    6100    238.46898   -239.27801    229018.04   -21224.511    1579.4659   -22803.977    22.018387   0.87555383 
    6200    236.81606   -221.72698    229018.04   -21197.872     1568.518    -22766.39    22.539316   0.87555383 
    6300    243.54012   -330.59444    229018.04     -21160.5    1613.0539   -22773.554    23.190338   0.87555383 
    6400    239.19005   -193.55828    229018.04   -21159.806    1584.2418   -22744.048    23.741444   0.87555383 
    6500    234.83219    -405.2939    229018.04   -21176.647    1555.3781   -22732.025    23.945502   0.87555383 
    6600    243.47861   -315.26306    229018.04   -21218.183    1612.6465   -22830.829     24.23004   0.87555383 
    6700     233.8111   -364.96883    229018.04   -21270.155    1548.6151    -22818.77     24.63628   0.87555383 
    6800     237.9187   -334.39704    229018.04   -21237.824    1575.8212   -22813.645    25.052857   0.87555383 
    6900    239.44743   -433.06047    229018.04   -21289.207    1585.9465   -22875.153    25.260005   0.87555383 
    7000    234.72494   -140.02088    229018.04   -21308.194    1554.6677   -22862.862     25.30317   0.87555383 
    7100    244.71863   -84.391445    229018.04    -21214.27    1620.8596    -22835.13    25.730199   0.87555383 
    7200     232.6623    -205.7596    229018.04   -21216.472    1541.0062   -22757.478    26.053061   0.87555383 
    7300    234.59339    -299.1174    229018.04   -21292.153    1553.7965   -22845.949    26.675251   0.87555383 
    7400    234.00059   -446.96706    229018.04   -21287.271    1549.8701   -22837.141    27.039939   0.87555383 
    7500    229.31071   -237.34955    229018.04   -21294.932    1518.8074    -22813.74    27.459932   0.87555383 
    7600     230.7037   -290.07478    229018.04   -21299.792    1528.0336   -22827.825    28.185791   0.87555383 
    7700    238.03644   -327.47581    229018.04   -21263.375     1576.601   -22839.976    28.693504   0.87555383 
    7800    235.67959   -236.31965    229018.04   -21214.632    1560.9908   -22775.623    29.033656   0.87555383 
    7900     246.0744   -382.39219    229018.04   -21193.045    1629.8393   -22822.884    29.577638   0.87555383 
    8000    243.99314    -293.0533    229018.04   -21190.546    1616.0544   -22806.601    30.066422   0.87555383 
    8100    241.29688   -296.05733    229018.04   -21219.456    1598.1961   -22817.652    30.412304   0.87555383 
    8200    238.16843   -309.72866    229018.04   -21247.255    1577.4753    -22824.73    30.473315   0.87555383 
    8300    238.64291   -221.27348    229018.04   -21264.315    1580.6179   -22844.933    30.635872   0.87555383 
    8400    238.09343   -397.60555    229018.04    -21256.16    1576.9785   -22833.138    30.651613   0.87555383 
    8500    235.15078   -248.63211    229018.04   -21255.877    1557.4882   -22813.366    30.762707   0.87555383 
    8600    238.41694   -159.79723    229018.04   -21194.712    1579.1212   -22773.833    31.047744   0.87555383 
    8700     235.4895   -247.50142    229018.04   -21269.934    1559.7317   -22829.666    31.408866   0.87555383 
    8800    241.01761   -191.67228    229018.04   -21197.696    1596.3464   -22794.042    31.766128   0.87555383 
    8900    234.12211   -354.86325    229018.04   -21220.359     1550.675   -22771.034    32.656868   0.87555383 
    9000    243.49342   -299.45047    229018.04   -21182.495    1612.7445   -22795.239    33.022634   0.87555383 
    9100     239.3582   -292.62301    229018.04   -21168.246    1585.3555   -22753.601    33.147079   0.87555383 
    9200    234.21666   -490.35828    229018.04   -21199.337    1551.3013   -22750.638    33.634476   0.87555383 
    9300    241.60888   -300.60889    229018.04   -21226.494    1600.2626   -22826.756    33.820183   0.87555383 
    9400    236.15322   -189.89834    229018.04   -21275.857    1564.1278   -22839.985    34.182247   0.87555383 
    9500    240.28362   -196.90041    229018.04   -21235.712    1591.4849   -22827.196    34.441853   0.87555383 
    9600    230.57445   -294.89348    229018.04   -21302.881    1527.1776   -22830.059    34.726539   0.87555383 
    9700    241.45501   -263.00583    229018.04   -21261.576    1599.2434    -22860.82    35.048483   0.87555383 
    9800    238.04347   -389.70561    229018.04   -21263.158    1576.6476   -22839.806    35.916181   0.87555383 
    9900     241.1462   -196.03523    229018.04   -21227.409    1597.1981   -22824.607    36.054856   0.87555383 
   10000    245.22986   -262.72623    229018.04   -21153.708    1624.2456   -22777.954     36.44795   0.87555383 
Loop time of 14.9368 on 64 procs for 10000 steps with 8943 atoms

Performance: 289.219 ns/day, 0.083 hours/ns, 669.489 timesteps/s
100.0% CPU use with 64 MPI tasks x no OpenMP threads

MPI task timing breakdown:
Section |  min time  |  avg time  |  max time  |%varavg| %total
---------------------------------------------------------------
Pair    | 0.00053248 | 3.645      | 12.128     | 208.5 | 24.40
Neigh   | 0.00083806 | 0.25146    | 0.96482    |  62.5 |  1.68
Comm    | 0.023178   | 4.2308     | 12.414     | 189.6 | 28.32
Output  | 0.19542    | 0.1955     | 0.19619    |   0.0 |  1.31
Modify  | 0.29123    | 6.4761     | 14.577     | 239.4 | 43.36
Other   |            | 0.138      |            |       |  0.92

Nlocal:    139.734 ave 439 max 0 min
Histogram: 24 12 11 1 0 0 0 0 0 16
Nghost:    823.281 ave 1336 max 0 min
Histogram: 8 0 4 0 0 5 23 6 6 12
Neighs:    0 ave 0 max 0 min
Histogram: 64 0 0 0 0 0 0 0 0 0
FullNghs:  14055.6 ave 53608 max 0 min
Histogram: 40 8 0 0 0 0 0 0 6 10

Total # of neighbors = 899560
Ave neighs/atom = 100.588
Neighbor list builds = 576
Dangerous builds = 0
write_data 	    ${DIR}/data.${NAME}_eq
write_data 	    run_27/data.${NAME}_eq
write_data 	    run_27/data.ibeam_cooling_27_eq

undump              1
unfix               4



################################################
#######         Run Simulation         #########
################################################

reset_timestep      0
timestep	    10.0
log                 ${DIR}/log.run_${NAME}
log                 run_27/log.run_${NAME}
log                 run_27/log.run_ibeam_cooling_27
