
# Set production fixes - Nose/Hoover
#
fix                 4 water temp/csvr ${START_TEMP} ${END_TEMP} 500.0 928347
fix                 4 water temp/csvr 240 ${END_TEMP} 500.0 928347
fix                 4 water temp/csvr 240 227 500.0 928347


## divide "droplet" into core and surface
#region		core_reg cylinder z 135 135 44.6 20 INF units box
#region		surface_reg cylinder z 135 135 44.6 20 INF units box side out
#group		core dynamic all region core_reg
#group		surface dynamic all region surface_reg

## compute pressure core
#compute        peratom_core core stress/atom NULL
#compute        p_core core reduce sum c_peratom_core[1] c_peratom_core[2] c_peratom_core[3]
#variable       press_core equal -(c_p_core[1]+c_p_core[2]+c_p_core[3])/(3*1249982.5)


## compute pressure surface
#compute        peratom_surf surface stress/atom NULL
#compute        p_surf surface reduce sum c_peratom_surf[1] c_peratom_surf[2] #c_peratom_surf[3]
#variable       press_surf equal -(c_p_surf[1]+c_p_surf[2]+c_p_surf[3])/(3*42395)

## compute total pressure of drop
compute        peratom water stress/atom NULL
compute        p water reduce sum c_peratom[1] c_peratom[2] c_peratom[3]
variable       press equal -(c_p[1]+c_p[2]+c_p[3])/(3*58301)


# compute order parameter
compute        3 all orientorder/atom nnn NULL cutoff 3.5

# compute center of mass of bridge
compute 	4 water com

# Run simulation
thermo_style        custom step c_2 press vol etotal ke pe v_press c_1[4] c_4[*]
thermo              200
dump		     1 water custom 400 ${DIR}/prod.${NAME}.dump id type x y z vx vy vz c_3[*] c_peratom[*]
dump		     1 water custom 400 run_27/prod.${NAME}.dump id type x y z vx vy vz c_3[*] c_peratom[*]
dump		     1 water custom 400 run_27/prod.ibeam_cooling_27.dump id type x y z vx vy vz c_3[*] c_peratom[*]
run                 ${STEPS}
run                 5200000
Neighbor list info ...
  update every 1 steps, delay 0 steps, check yes
  max neighbors/atom: 2000, page size: 100000
  master list distance cutoff = 6.67472
  ghost atom cutoff = 6.67472
  binsize = 3.33736, bins = 48 11 12
  2 neighbor lists, perpetual/occasional/extra = 1 1 0
  (1) pair sw, perpetual
      attributes: full, newton on
      pair build: full/bin/atomonly
      stencil: full/bin/3d
      bin: standard
  (2) compute orientorder/atom, occasional, copy from (1)
      attributes: full, newton on
      pair build: copy
      stencil: none
      bin: none
Per MPI rank memory allocation (min/avg/max) = 0.9078 | 5.943 | 7.204 Mbytes
Step c_2 Press Volume TotEng KinEng PotEng v_press c_1[4] c_4[1] c_4[2] c_4[3] 
       0    245.22986   -262.72623    229018.04   -21153.708    1624.2456   -22777.954    -555.5496     36.44795     78.59426    15.907313    29.691496 
     200    242.00984   -397.55434    229018.04   -21189.194    1602.9183   -22792.112   -1077.5031    38.229701    78.593822    15.903485    29.716596 
     400    237.02193   -174.83008    229018.04   -21190.204    1569.8816   -22760.086   -204.36377    39.245837    78.593767    15.903416    29.712456 
     600    229.42802   -359.85531    229018.04   -21271.978    1519.5844   -22791.562   -895.77192     41.02725     78.59427    15.901282    29.706185 
     800    233.93174   -301.37259    229018.04   -21230.722    1549.4141   -22780.136   -706.47363    42.738224    78.596353    15.900406    29.721113 
    1000    239.01874   -475.36074    229018.04   -21109.567    1583.1071   -22692.674   -1364.5322    44.191766    78.595217     15.90056    29.716567 
    1200    236.89635   -245.69514    229018.04   -21207.163    1569.0498   -22776.213   -495.45927    45.608245      78.5955    15.900215    29.699075 
    1400    244.92941    -512.7126    229018.04   -21049.371    1622.2556   -22671.627   -1539.7328    47.907613    78.595691    15.901155    29.703548 
    1600    243.66245   -371.41253    229018.04   -21044.696    1613.8641    -22658.56   -979.59153    49.469287    78.593895    15.902017    29.689347 
    1800    239.30718   -332.46732    229018.04   -21119.754    1585.0176   -22704.771   -799.53008    50.076127    78.592904    15.902091    29.697074 
    2000    244.37408   -437.48439    229018.04   -20996.274    1618.5775   -22614.851   -1267.9058    51.767697    78.592583    15.902533    29.703921 
    2200    241.96522   -259.44032    229018.04    -21032.81    1602.6228   -22635.432   -577.00668    53.394027    78.593546    15.903705    29.702605 
    2400     245.8581   -381.26068    229018.04   -21063.567    1628.4067   -22691.973   -994.87174    55.878588    78.593889    15.903941    29.688314 
    2600    237.79948   -177.68071    229018.04   -21086.414    1575.0315   -22661.446    -220.4101    56.633824    78.593979    15.901463    29.690901 
    2800     244.3947   -212.07432    229018.04   -21077.156    1618.7141   -22695.871   -336.34416    58.398825    78.595767    15.904419    29.701022 
    3000    236.57116   -222.95868    229018.04   -21166.363    1566.8959   -22733.259   -400.63244    60.130197    78.596381    15.902206    29.693457 
    3200    234.60724   -286.54441    229018.04   -21176.914    1553.8882   -22730.802   -636.22411    62.607928    78.595803    15.902045    29.690253 
    3400    240.26532   -91.669015    229018.04   -21115.634    1591.3637   -22706.998    148.56105    63.654752    78.597669    15.901017    29.676564 
    3600    248.07125   -363.66126    229018.04   -21102.842    1643.0652   -22745.908   -984.41906    63.723132    78.598483    15.899864    29.689379 
    3800    240.67707   -299.41051    229018.04   -21098.587    1594.0909   -22692.678   -697.43239    64.925033    78.601882    15.901136    29.703993 
    4000    236.75333   -280.79196    229018.04   -21147.655    1568.1025   -22715.757   -606.75689    66.235177    78.602614    15.899845    29.723491 
    4200    235.49873   -214.30844    229018.04    -21045.22    1559.7929   -22605.013    -379.0467    66.868412    78.603873    15.901855    29.716793 
    4400    246.60499   -340.15719    229018.04   -21021.855    1633.3536   -22655.209   -863.28467    68.409907    78.603162    15.901339    29.712573 
    4600    241.46934   -353.29189    229018.04   -21100.056    1599.3384   -22699.394   -896.37739      69.8179    78.603235    15.898441    29.728207 
    4800    242.69311   -379.56718    229018.04    -21072.25    1607.4438   -22679.694   -1053.8082     70.66667     78.60467    15.897676     29.72595 
    5000    239.75922   -266.30673    229018.04   -21119.483    1588.0116   -22707.495   -562.09508    71.649554    78.605201    15.894246    29.725753 
    5200    237.61967   -432.26604    229018.04   -21092.708    1573.8406   -22666.549   -1187.1892    73.015719    78.605575    15.892986    29.739243 
    5400    241.22235   -336.23547    229018.04   -21110.125    1597.7025   -22707.827   -806.53899    75.007016    78.604037    15.892511    29.727065 
    5600    235.11845   -293.53459    229018.04   -21185.167    1557.2741   -22742.441   -665.99668    76.298662    78.604179    15.890057    29.724774 
    5800    249.11432   -376.09278    229018.04   -21016.594    1649.9738   -22666.568   -1006.1565    77.849934    78.604075    15.889241    29.712658 
    6000    235.79936   -225.90682    229018.04   -21186.147     1561.784   -22747.931   -408.31166    79.616079    78.606634    15.889038    29.702673 
    6200    236.28171    -346.6956    229018.04   -21091.665    1564.9788   -22656.644     -872.147    82.213322    78.605475    15.889719     29.70355 
    6400     239.8198   -97.841866    229018.04   -21045.176    1588.4128   -22633.589    111.92217    84.279451    78.603013    15.891164    29.706795 
    6600    238.98077     -225.607    229018.04   -21130.431    1582.8556   -22713.287   -354.80414    84.458317    78.603432    15.891703    29.700298 
    6800    237.81109   -330.54503    229018.04   -21079.087    1575.1084   -22654.195   -839.54865    85.303607    78.604007    15.892728    29.708304 
    7000    235.86718   -216.40464    229018.04   -21126.902    1562.2332   -22689.135   -370.32649    86.642308    78.604415    15.895374    29.728113 
    7200    244.85765   -164.99968    229018.04   -21022.087    1621.7803   -22643.867   -195.44221    90.087456    78.602988    15.892948    29.716449 
    7400    236.63539   -288.27995    229018.04   -21138.585    1567.3214   -22705.906   -646.29252    91.387056    78.603838    15.894755    29.712687 
    7600    233.03289   -140.15875    229018.04   -21183.351    1543.4607   -22726.812   -59.664857    92.332306    78.605865    15.895983    29.725917 
    7800    242.70143   -301.02249    229018.04   -21054.012    1607.4989   -22661.511   -692.69285    94.676524    78.605877    15.896211    29.751599 
    8000    239.32919   -452.96933    229018.04   -21016.944    1585.1633   -22602.108   -1335.6536    95.970424    78.606258    15.899252     29.76391 
    8200    233.17416    -389.6038    229018.04   -21153.732    1544.3964   -22698.129   -1049.5486    97.222017    78.604433    15.900471    29.764658 
    8400    234.47468   -280.60095    229018.04   -21180.386    1553.0102   -22733.397   -628.61934    97.973423    78.605034    15.899776    29.772759 
    8600    244.09253   -228.18566    229018.04   -21092.102    1616.7127   -22708.815   -439.15988    99.876267    78.605067    15.899875    29.767657 
    8800     243.0561   -287.71669    229018.04   -21078.082     1609.848    -22687.93   -644.91141    101.23054    78.605523    15.901855    29.783865 
    9000    243.42222   -118.14399    229018.04   -21074.797     1612.273    -22687.07    23.057278    102.74306    78.606317    15.903299    29.777996 
    9200    240.46443   -322.20326    229018.04   -21103.923    1592.6825   -22696.606   -780.04166    104.01188    78.605481    15.905646    29.780491 
    9400    233.77418   -282.19976    229018.04    -21197.51    1548.3706    -22745.88    -628.1918     105.8332    78.605441    15.906567    29.795013 
    9600    237.79266   -210.03356    229018.04   -21205.435    1574.9864   -22780.422   -349.01989    106.55359    78.603473    15.906836    29.801365 
    9800     238.5172   -396.40192    229018.04   -21159.479    1579.7853   -22739.265   -1045.0119    107.59623    78.602568    15.906766    29.806918 
   10000    246.69745   -239.49155    229018.04   -21008.394     1633.966    -22642.36   -475.15396    109.73451    78.602425    15.905678    29.790797 
   10200    241.55822   -491.91511    229018.04    -21053.99     1599.927   -22653.917   -1437.6711    111.67952    78.602456    15.905398    29.790615 
   10400    235.43864     -359.419    229018.04   -21048.399    1559.3948   -22607.794   -903.88652    112.65209    78.602851    15.904814    29.788058 
   10600    239.70476   -201.47344    229018.04   -21027.504    1587.6509   -22615.155   -286.97667    114.61518    78.604605    15.909035    29.772435 
   10800    241.30016   -172.28691    229018.04   -21073.645    1598.2178   -22671.863   -146.24948    116.62898    78.603619    15.910511    29.781335 
   11000    241.79181   -338.09254    229018.04   -21069.379    1601.4742   -22670.853    -807.8291    117.71773    78.603228    15.910748    29.773917 
   11200    239.81275   -222.18908    229018.04   -21067.881    1588.3662   -22656.247   -309.14085    119.26169    78.603639    15.912337    29.780083 
   11400     238.3251   -486.44781    229018.04   -21099.578    1578.5129   -22678.091   -1427.6037    120.54766     78.60536    15.911501    29.791903 
   11600    235.86731   -354.33158    229018.04   -21055.756    1562.2341    -22617.99   -880.35129    121.40813    78.605871     15.91414    29.767813 
   11800    240.02075   -192.68295    229018.04   -21081.997    1589.7438    -22671.74   -236.29757    121.94253    78.605827    15.916229    29.757863 
   12000    246.74883   -336.05595    229018.04   -21029.048    1634.3063   -22663.354   -825.04722    123.34774     78.60566    15.918691     29.72672 
   12200    238.48207   -352.26468    229018.04   -21080.877    1579.5526    -22660.43   -873.49338    124.99593    78.604026    15.919969    29.713553 
   12400    241.76511   -262.30965    229018.04   -20994.645    1601.2973   -22595.942   -546.11622    127.34844    78.603922    15.920896    29.715297 
   12600    242.59188   -309.77896    229018.04   -20979.563    1606.7734   -22586.337   -743.78597    127.97356    78.602837    15.922279    29.701202 
   12800    243.41553   -221.36138    229018.04   -21107.895    1612.2287   -22720.124   -360.92276    128.78252    78.605138    15.922228    29.706835 
   13000    236.27875   -442.63063    229018.04   -21145.635    1564.9592   -22710.594   -1229.9369    129.57563    78.606492    15.921722    29.695147 
   13200    238.07469   -294.64191    229018.04   -21092.294    1576.8544   -22669.149    -676.1814    130.17401    78.607241    15.920822     29.69471 
   13400     243.6585   -274.41111    229018.04   -21028.011    1613.8379   -22641.849   -560.58023    131.68104    78.605975    15.920206    29.696324 
   13600     243.0634   -316.77643    229018.04   -21037.392    1609.8964   -22647.288     -718.518    133.88052    78.607555    15.920496    29.703848 
   13800    238.83532   -215.33088    229018.04   -21121.254    1581.8923   -22703.146   -415.40752    135.16089    78.607452    15.918398    29.697164 
   14000    238.82148   -241.49123    229018.04   -21120.243    1581.8006   -22702.043   -488.26224    135.27999    78.606229    15.916996    29.730695 
   14200    236.65551   -263.54975    229018.04    -21199.97    1567.4546   -22767.424   -509.68758    137.52651    78.603718    15.912254    29.750457 
   14400    232.44719   -352.19143    229018.04    -21239.55    1539.5814   -22779.132   -890.99946    140.33102    78.603677    15.911585    29.733997 
   14600    240.38756   -377.54411    229018.04   -21190.555    1592.1733   -22782.729   -994.77144    141.65531    78.602321    15.907849    29.748296 
   14800    239.84673   -205.62976    229018.04    -21144.58    1588.5912   -22733.171   -295.91961    142.27614    78.601007    15.908817    29.727462 
   15000    239.03224   -321.41533    229018.04   -21107.734    1583.1966    -22690.93   -776.73499    144.43362    78.599751    15.908617    29.758974 
   15200    237.09275   -220.38393    229018.04   -21206.045    1570.3506   -22776.396   -381.29057    144.60418    78.598706    15.907222    29.766035 
   15400    239.69061   -284.48081    229018.04   -21157.295    1587.5572   -22744.852   -590.88258    145.68205    78.596969    15.906075     29.75512 
   15600    233.72907   -245.04559    229018.04   -21222.505    1548.0717   -22770.577   -478.94422    145.43384    78.596219    15.905178    29.754047 
   15800    242.83596   -317.41732    229018.04   -21071.671      1608.39   -22680.061   -770.27669    146.32742     78.59739    15.903605    29.744157 
   16000    237.29344   -333.67139    229018.04   -21116.902    1571.6799   -22688.582   -818.86771    147.55943    78.596035    15.903227     29.72772 
   16200    247.02217   -254.69703    229018.04   -21002.897    1636.1167   -22639.014   -502.93316      148.874    78.595723    15.901293    29.704639 
   16400    242.44938    -279.3142    229018.04   -21004.901    1605.8295   -22610.731   -603.09633    150.37604    78.594617    15.902748    29.696562 
   16600     234.8024   -320.21719    229018.04   -21036.562    1555.1808   -22591.743   -794.67417    150.91998    78.595002     15.90164    29.693825 
   16800    245.79698   -310.59419    229018.04   -21034.675    1628.0019   -22662.677   -744.95084    151.47892    78.593483    15.904602    29.677309 
   17000    245.85381   -301.58951    229018.04   -21086.213    1628.3783   -22714.592   -708.06528    154.02087    78.592309     15.90476    29.664483 
   17200    237.44719   -308.26289    229018.04   -21139.622    1572.6982    -22712.32   -683.07349     155.0223    78.594299    15.905341    29.652997 
   17400    243.39492   -360.00722    229018.04   -21108.574    1612.0921   -22720.666   -965.70694    154.82557    78.596071    15.904308    29.645795 
   17600     242.9824   -281.57981    229018.04   -21044.632    1609.3599   -22653.992   -634.85765    156.60991    78.596334    15.903087    29.642469 
   17800    244.27131   -289.33281    229018.04   -21032.114    1617.8968   -22650.011   -645.02934    157.31209    78.595853    15.904658    29.633741 
   18000    243.70682   -222.10685    229018.04    -21090.81     1614.158   -22704.968   -352.78315    159.20726    78.595109    15.905319    29.624499 
   18200    240.29672    -370.0064    229018.04   -21129.529    1591.5717   -22721.101   -954.94065    160.74432    78.593855    15.903867    29.622443 
   18400    242.11327   -350.78927    229018.04   -21152.971    1603.6034   -22756.575   -909.82115    161.09752    78.593241    15.903423    29.636479 
   18600    240.45042   -123.41432    229018.04   -21077.878    1592.5897   -22670.468   -26.397954    161.35265    78.594633    15.902465    29.625539 
   18800     240.9724   -371.17757    229018.04   -21115.455    1596.0469   -22711.502   -936.75058    163.50652    78.594815    15.904118    29.629672 
   19000    231.36971   -272.24542    229018.04   -21117.396    1532.4449   -22649.841   -594.35928    165.43156    78.596316     15.90461    29.633682 
   19200    233.74151   -343.33454    229018.04   -21099.174    1548.1542   -22647.328   -857.39537    166.29627    78.598034     15.90404    29.643776 
   19400    242.89745    -229.3371    229018.04    -21038.42    1608.7972   -22647.217    -410.1003    167.00101    78.598923    15.904325    29.645575 
   19600    235.72712   -310.84361    229018.04   -21074.163    1561.3056   -22635.469   -696.21202    167.74822    78.600622    15.905176      29.6427 
   19800    243.15437   -370.57371    229018.04   -21074.032    1610.4989   -22684.531   -950.84521    168.63985    78.600823    15.904492    29.654297 
   20000    237.07367   -228.48599    229018.04   -21126.829    1570.2242   -22697.053    -386.3637    170.10775    78.600233    15.903843    29.624095 
   20200    233.53606   -281.88082    229018.04    -21101.24    1546.7934   -22648.034   -565.47059    172.36654    78.603122    15.904846    29.616898 
   20400    240.08225   -343.48635    229018.04   -21185.516    1590.1512   -22775.667   -829.89743    173.05513    78.603712    15.904343    29.638506 
   20600     244.1988   -341.13449    229018.04   -21166.264    1617.4166   -22783.681   -852.84593    174.43519    78.600966    15.902127     29.62718 
   20800     237.3002   -357.09805    229018.04   -21134.251    1571.7246   -22705.976   -901.09704    176.27908    78.598819    15.902158    29.632744 
   21000    236.18232   -432.98626    229018.04    -21112.87    1564.3205    -22677.19   -1166.8531    178.94068    78.596633    15.901373    29.602354 
   21200    238.77594   -414.31628    229018.04   -21038.177     1581.499   -22619.676   -1146.7989    178.20356    78.596087    15.902817    29.613147 
   21400    232.90522   -494.58747    229018.04   -21162.085    1542.6151     -22704.7   -1384.3813    179.73706    78.596154    15.899624    29.615088 
   21600    237.70238   -177.66903    229018.04   -21079.728    1574.3884   -22654.116   -177.12724    179.75833    78.592773    15.899404    29.621831 
   21800    240.27117    -405.4365    229018.04    -21102.67    1591.4024   -22694.072   -1082.3895    182.48672     78.59214      15.8999    29.619502 
   22000     236.7437   -222.07749    229018.04   -21123.039    1568.0387   -22691.078   -386.41358    184.85597    78.595409    15.903122    29.624264 
   22200    241.08603    -332.3358    229018.04   -21101.656    1596.7996   -22698.455   -814.42957    187.21626    78.595683    15.905053    29.639067 
   22400    233.88011   -448.64567    229018.04   -21136.909    1549.0722   -22685.981     -1227.11    189.51623    78.593772     15.90658     29.63015 
   22600     237.6669   -226.75933    229018.04   -21112.136    1574.1535   -22686.289   -392.80863    191.55054    78.593553    15.905527    29.641751 
   22800    251.24216   -390.46748    229018.04   -21097.189    1664.0672   -22761.256   -1030.2479    193.46239    78.594391    15.904716    29.644369 
   23000     234.7969   -112.89034    229018.04   -21174.647    1555.1444   -22729.792    41.543824    194.04128      78.5951     15.90304    29.646349 
   23200    242.80503   -279.26654    229018.04    -21199.57    1608.1851   -22807.755   -600.55589    193.75929    78.595157    15.904524    29.649319 
   23400    244.64183   -388.79614    229018.04   -21108.148    1620.3509   -22728.499   -1028.2812    195.59501    78.596184    15.906832    29.646027 
   23600     237.4538   -269.18712    229018.04   -21206.997     1572.742   -22779.739    -529.7518    195.53289    78.597374    15.906187    29.642262 
   23800    238.04621   -180.49316    229018.04   -21235.891    1576.6657   -22812.556   -214.89595    197.01788    78.599038    15.906499    29.655059 
   24000    243.31134   -277.17489    229018.04   -21147.902    1611.5386    -22759.44   -574.37275    199.30657    78.599044     15.90752    29.658177 
   24200    237.19776   -391.88907    229018.04   -21158.837    1571.0462   -22729.883   -1042.2888    201.00689    78.598402    15.908942    29.668889 
   24400    239.45145   -347.91524    229018.04   -21119.887    1585.9732    -22705.86   -858.74075    203.86471    78.599313     15.90794    29.666644 
   24600    239.62148   -326.80048    229018.04   -21153.475    1587.0993   -22740.575   -763.52458    204.83074     78.59877    15.909805    29.668826 
   24800    240.26841    -332.9689    229018.04   -21114.855    1591.3842   -22706.239   -838.20967    207.49151    78.600625    15.910376    29.666914 
   25000     237.8745   -396.58215    229018.04    -21072.99    1575.5285   -22648.519    -1045.441    208.90507    78.601548    15.913733    29.666388 
   25200     235.6434   -438.57015    229018.04   -21056.938    1560.7511   -22617.689    -1235.871    211.22415    78.600951    15.913536    29.660905 
   25400    241.30058   -359.69953    229018.04   -21098.405    1598.2206   -22696.626   -922.43689    212.82353    78.601162    15.913342     29.65904 
   25600    245.43378   -345.27543    229018.04   -21076.196    1625.5963   -22701.792   -871.88947    213.05282    78.601813    15.912179    29.663272 
   25800    237.94579   -192.23735    229018.04   -21109.061    1576.0006   -22685.061   -227.99027    214.00529    78.601902    15.912504    29.650339 
   26000    240.47612   -295.07381    229018.04   -21148.041    1592.7599   -22740.801   -669.52832    214.82489    78.602755    15.915963    29.651524 
   26200    236.47963   -242.27179    229018.04   -21116.477    1566.2897   -22682.766   -442.20283    216.69344    78.600752     15.91533    29.638818 
   26400    233.50435   -474.52473    229018.04   -21186.256    1546.5834    -22732.84   -1372.8474    218.20749    78.598367    15.916763    29.624862 
   26600    241.82227   -242.73632    229018.04   -21139.268    1601.6759   -22740.944   -448.94935     219.1944    78.598773    15.915438    29.619654 
   26800    242.89176   -448.54607    229018.04   -21106.731    1608.7596   -22715.491   -1222.7089    219.89934    78.596704    15.913413    29.622796 
   27000    238.76842   -281.81131    229018.04   -21132.816    1581.4492   -22714.265   -625.09454    222.20375    78.598065    15.913283     29.61295 
   27200    242.78578   -434.83682    229018.04   -20995.594    1608.0576   -22603.652    -1236.374    224.18043    78.600035     15.91558    29.615384 
   27400    243.18456   -246.63084    229018.04   -21048.167    1610.6989   -22658.865   -480.95433     226.0205    78.599102    15.914256    29.609604 
   27600    244.17324   -179.66192    229018.04   -21041.727    1617.2472   -22658.974   -271.06546    225.84416    78.599562    15.911969    29.601188 
   27800    233.40579   -455.80293    229018.04   -21166.927    1545.9306   -22712.858   -1270.1429    227.26325    78.599225    15.909136    29.614542 
   28000    237.95232   -389.12341    229018.04   -21128.005    1576.0439   -22704.048   -1062.8272    230.92983    78.601092    15.910383    29.629138 
   28200     240.9533   -355.40983    229018.04   -21061.709    1595.9205    -22657.63   -913.82717    230.60939    78.600532    15.909625    29.616893 
   28400    242.28352    -323.7711    229018.04   -21067.483     1604.731   -22672.214   -773.02489    233.38865    78.601476    15.909252    29.621255 
   28600    245.50091    -259.9003    229018.04   -21102.717    1626.0409   -22728.758   -513.27663    234.83753    78.602696    15.910504    29.632539 
   28800    238.26114   -283.69064    229018.04   -21193.142    1578.0893   -22771.231   -624.51999    236.92897    78.602822    15.909348    29.664331 
   29000    240.52757   -222.97657    229018.04   -21120.643    1593.1007   -22713.743     -385.054    238.75408    78.603254    15.909066     29.67434 
   29200    237.37453   -213.18741    229018.04   -21120.938     1572.217   -22693.155   -340.22792    239.53788    78.602941    15.908588    29.681097 
   29400    242.24263   -335.98903    229018.04   -21075.359    1604.4602   -22679.819   -823.39298    241.49907    78.603217    15.908323    29.669516 
   29600     236.1452   -400.58732    229018.04   -21087.761    1564.0746   -22651.836   -1099.8847     244.7558     78.60385    15.910362     29.66203 
   29800     233.4058   -135.47317    229018.04   -21054.638    1545.9307   -22600.568   -51.426503    247.04171    78.603694     15.91262    29.637389 
   30000    239.39932   -70.299155    229018.04   -21096.582    1585.6279   -22682.209    232.37016    249.42158    78.604016    15.912325    29.632946 
   30200    232.36825   -175.17055    229018.04   -21104.601    1539.0585    -22643.66   -225.10457    250.13256    78.602576    15.911839     29.63532 
   30400     238.5605   -368.22259    229018.04   -21152.258    1580.0721    -22732.33    -967.1584    251.91925    78.603351    15.913807    29.635325 
   30600    231.59375   -351.03527    229018.04   -21244.289    1533.9287   -22778.218   -873.58287     252.2003    78.603114    15.913404    29.641419 
   30800    232.00964   -275.67818    229018.04    -21150.44    1536.6834   -22687.123   -609.75549    254.10265    78.603529    15.914205    29.645464 
   31000    235.32124   -255.63209    229018.04   -21112.274    1558.6173   -22670.891    -506.2527    256.65539    78.602523    15.916555    29.653674 
   31200    243.55705    -339.8238    229018.04   -21064.525     1613.166   -22677.691   -831.98345    258.77954    78.602434    15.915704    29.666128 
   31400    244.29783    -350.9091    229018.04   -21064.968    1618.0725   -22683.041   -881.84987    261.28129     78.60349    15.915288    29.661074 
   31600    244.24036   -244.91854    229018.04   -21024.549    1617.6918   -22642.241   -479.15867    262.86247     78.60501    15.914261    29.640798 
   31800    246.28951   -379.68233    229018.04   -21083.114    1631.2641   -22714.378   -983.50341     263.9894    78.604691    15.913981    29.622561 
   32000    244.56752   -151.38994    229018.04   -21071.575    1619.8587   -22691.434   -103.37847    265.35948    78.605008    15.916581    29.607701 
   32200    230.80366   -413.38029    229018.04   -21144.375    1528.6957   -22673.071   -1137.1133    268.64115    78.604809    15.917794    29.615732 
   32400    241.17865   -156.30531    229018.04   -21132.167     1597.413    -22729.58    -122.2841     270.1332    78.604902    15.919615    29.586918 
   32600    236.15348   -417.65368    229018.04   -21112.342    1564.1295   -22676.471   -1141.0528    271.10705    78.603506    15.921848    29.537449 
   32800    238.00588   -268.06959    229018.04   -21098.932    1576.3986   -22675.331   -551.76543    270.08097    78.603721     15.92229    29.539439 
   33000    241.40034   -394.97907    229018.04   -21064.063    1598.8813   -22662.944   -1052.5168    273.55735     78.60645      15.9221    29.535445 
   33200    241.13323   -403.31521    229018.04    -21091.07    1597.1122   -22688.182   -1081.6731    274.59269     78.60704    15.922853    29.521849 
   33400    236.45348   -254.25088    229018.04   -21107.811    1566.1165   -22673.927   -482.60263    275.56308    78.607533    15.921691    29.527365 
   33600    237.79349   -155.90426    229018.04   -21176.874    1574.9919   -22751.866   -122.65042    276.41527    78.607811    15.919714    29.526496 
   33800    241.32555   -371.54637    229018.04   -21063.872     1598.386   -22662.258   -930.94807     279.3781    78.609088    15.919226    29.547887 
   34000    236.26658   -292.18225    229018.04   -21121.254    1564.8786   -22686.132   -652.77258    283.35249    78.609936    15.923661    29.544982 
   34200    239.70077   -268.61732    229018.04    -21120.98    1587.6245   -22708.604   -552.77782    286.96027    78.610455    15.925258    29.524128 
   34400    241.93488   -315.43973    229018.04   -21155.688    1602.4218    -22758.11   -745.36539    289.56338    78.610904    15.927212    29.516644 
   34600     241.9851   -232.14809    229018.04   -21120.929    1602.7544   -22723.683   -434.12496    290.67044    78.611942    15.927475    29.516637 
   34800    242.11993   -261.06764    229018.04   -21102.427    1603.6474   -22706.075   -534.82106    293.99861    78.613243    15.929396    29.524224 
   35000     238.8191   -192.53503    229018.04   -21104.114    1581.7849   -22685.899   -247.74293    296.39594     78.61206    15.930699    29.528848 
   35200     242.9094   -360.94992    229018.04   -21099.906    1608.8764   -22708.783   -945.44866     298.9491    78.612334     15.92774    29.535657 
   35400    245.26255   -232.84544    229018.04   -21028.027    1624.4622   -22652.489   -467.43403    300.65547    78.612435    15.927481    29.536138 
   35600    238.42187   -345.80623    229018.04   -21137.126    1579.1539    -22716.28   -864.51856    301.62272    78.612546    15.927643    29.523207 
   35800    237.53612   -212.32482    229018.04   -21067.458    1573.2872   -22640.746   -357.34507    304.23777    78.611919    15.925253    29.540547 
   36000    241.82228   -248.77806    229018.04   -21158.398     1601.676   -22760.074   -502.48826    307.00089    78.610993    15.926721    29.517443 
   36200    241.77736   -277.14712    229018.04   -21150.717    1601.3785   -22752.096   -594.07379    307.63986    78.608325    15.928399    29.506337 
   36400    238.75903   -383.33153    229018.04   -21082.337     1581.387   -22663.724   -996.22446    310.39934    78.609121    15.928459     29.49274 
   36600    242.12367   -384.80722    229018.04   -21140.623    1603.6722   -22744.296   -1051.2636    313.56464    78.610163    15.927525    29.480031 
   36800     232.3818   -348.74086    229018.04   -21139.072    1539.1483    -22678.22   -888.15796    316.33633    78.609094    15.926895    29.459429 
   37000    235.64431   -276.64587    229018.04   -21091.744    1560.7571   -22652.501   -565.29356    319.76196    78.607273    15.926719    29.453115 
   37200    235.60062   -73.777704    229018.04   -21184.197    1560.4677   -22744.664    216.58341    321.98411    78.609923    15.924479    29.453956 
   37400    235.27205   -260.28899    229018.04   -21114.962    1558.2914   -22673.253   -529.14611    323.33841    78.612677    15.926987    29.438642 
   37600    238.89511   -327.73261    229018.04   -21053.226    1582.2883   -22635.514   -807.58332    327.14943    78.614616     15.92802    29.442444 
   37800    233.76701   -169.78042    229018.04   -21151.951    1548.3231   -22700.275   -176.87442    330.95963    78.615874    15.927913    29.469147 
   38000     239.5482   -458.01638    229018.04   -21095.559     1586.614   -22682.173   -1315.5246    333.89509    78.613613    15.928593    29.490625 
   38200    239.94968   -331.03627    229018.04   -21118.512    1589.2731   -22707.785   -792.12703    336.36423    78.613512    15.927979    29.479969 
   38400    238.86202   -306.13344    229018.04    -21117.02    1582.0691   -22699.089   -739.88111    341.78259    78.614348    15.930143    29.497967 
   38600    239.16327   -375.11587    229018.04   -21100.222    1584.0644   -22684.286   -933.19062    347.13562    78.612066    15.932692     29.51706 
   38800     239.9674   -401.78011    229018.04   -21067.322    1589.3904   -22656.712   -1107.4322    347.16033    78.609559    15.931709     29.50902 
   39000    238.94962    -385.0849    229018.04   -21071.435    1582.6493   -22654.085   -1017.3965    344.62958     78.60948    15.928247    29.496809 
   39200    234.33174   -367.77582    229018.04   -21160.228    1552.0634   -22712.292   -982.89405    343.75812    78.609346    15.927751    29.498067 
   39400    241.32148   -588.98321    229018.04   -21100.878     1598.359   -22699.237   -1829.5905    345.73667    78.609929    15.928975    29.493093 
   39600    243.30828    -402.2361    229018.04   -21118.364    1611.5183   -22729.882   -1110.7286    347.21494     78.61002    15.929035    29.510891 
   39800    241.38923   -271.74062    229018.04   -20955.057    1598.8077   -22553.865   -594.52823    350.47298    78.612731    15.929171    29.499283 
   40000    241.11214   -191.83738    229018.04   -21118.262    1596.9725   -22715.235   -277.40694    349.66466    78.611359    15.927786    29.519561 
   40200    231.11559   -506.61032    229018.04   -21200.969    1530.7617   -22731.731    -1498.189    348.93903    78.610782    15.927897    29.527546 
   40400    244.09459   -301.89148    229018.04   -21080.226    1616.7264   -22696.953   -734.45746    349.90712    78.611652    15.927013    29.517926 
   40600    232.05189   -103.74555    229018.04   -21184.811    1536.9632   -22721.774    52.592801    349.72699    78.612093    15.926975    29.524536 
   40800     236.7215   -462.44142    229018.04   -21156.349    1567.8917   -22724.241   -1380.6921    354.22785    78.611552    15.928706    29.509331 
   41000     240.6101   -341.22295    229018.04    -21057.52    1593.6473   -22651.167   -867.47434    360.15386    78.611857    15.927235    29.510348 
   41200     244.0781   -250.00907    229018.04   -21039.218    1616.6171   -22655.835   -510.66882     362.0136    78.611915    15.924482    29.519638 
   41400    240.11756   -359.18555    229018.04    -21103.91     1590.385   -22694.295   -941.56888    365.33358     78.61175    15.925526    29.535885 
   41600    244.21886   -247.78037    229018.04   -20991.076    1617.5494   -22608.625   -486.93073    368.45991    78.611153      15.9255    29.554318 
   41800    239.39012   -277.75181    229018.04   -21105.076     1585.567   -22690.643    -590.0672    373.20594     78.60952    15.924686    29.561643 
   42000    239.93201   -307.98639    229018.04   -21160.071     1589.156   -22749.228   -713.10077    377.83223    78.609295    15.924049    29.550662 
   42200    240.56806    -237.4459    229018.04   -21147.264    1593.3688   -22740.633   -469.81621    382.52325    78.609532    15.925709    29.574871 
   42400    235.08645   -273.15785    229018.04   -21134.917    1557.0622   -22691.979   -587.29583    385.48477    78.607738    15.924827    29.592311 
   42600    234.58343   -425.30518    229018.04   -21189.559    1553.7305    -22743.29   -1218.7862    384.92246    78.609443    15.922182    29.589584 
   42800     241.6712   -295.70364    229018.04   -21093.489    1600.6753   -22694.164   -661.07185    386.55514    78.609271     15.91941    29.595827 
   43000    240.71644    -141.5871    229018.04   -21026.537    1594.3516   -22620.888   -48.953404    387.38108     78.61014    15.917672    29.578877 
   43200    242.69364    -399.3249    229018.04   -21088.268    1607.4473   -22695.715   -1069.5611    389.63104    78.611915    15.916683    29.557651 
   43400    237.06128   -420.63946    229018.04   -21116.874    1570.1422   -22687.017   -1154.5465    390.05633    78.613259    15.914033    29.548939 
   43600    242.07494   -294.82246    229018.04   -21156.578    1603.3495   -22759.927   -656.99123    391.83862    78.611403    15.912948    29.543762 
   43800    239.47257   -290.56348    229018.04   -21127.708    1586.1131   -22713.821   -685.49007    392.55858    78.610048    15.911559    29.539127 
   44000    244.68514   -251.11577    229018.04   -21160.827    1620.6378   -22781.465   -487.30382    393.50629    78.610804    15.910383     29.54258 
   44200    234.74255   -362.83333    229018.04   -21116.567    1554.7844   -22671.351   -930.96735     390.8237    78.612524    15.910404    29.538513 
   44400    247.01197   -379.12995    229018.04    -21071.64    1636.0492   -22707.689   -1005.2778    392.24048     78.61279    15.910585    29.552135 
   44600    236.58977   -217.97197    229018.04   -21078.885    1567.0192   -22645.904   -360.75078    395.75013    78.612517     15.90985    29.542107 
   44800    235.18538   -194.06536    229018.04   -21080.679    1557.7174   -22638.396    -273.0932    396.93608    78.613161    15.910494    29.538549 
   45000    236.36579   -135.00791    229018.04   -21088.871    1565.5357   -22654.407   -45.478726    396.36796    78.613339    15.910012    29.525537 
   45200    242.90282   -401.75631    229018.04   -20955.741    1608.8328   -22564.574   -1107.9111    398.84861    78.611604    15.909737    29.544306 
   45400    249.40658   -287.17482    229018.04   -20978.371    1651.9096    -22630.28   -654.07445    399.77494    78.609748    15.909113    29.551925 
   45600    243.81962   -247.57459    229018.04   -20979.526    1614.9051   -22594.432   -475.01886    403.25447    78.608919    15.909058    29.576274 
   45800    234.94263   -242.31355    229018.04     -21057.1    1556.1096    -22613.21   -488.85655     406.9211    78.608967    15.908853    29.583566 
   46000    238.34987   -306.72756    229018.04   -21083.116     1578.677   -22661.793   -729.47041     411.3554    78.609402      15.9067    29.560126 
   46200    235.35551   -219.34129    229018.04   -21026.788    1558.8443   -22585.632   -358.53514    415.41673    78.611171    15.905317    29.552011 
   46400    239.21382   -272.94174    229018.04   -21019.505    1584.3992   -22603.904   -554.62835    420.02642    78.610352    15.903563    29.538148 
   46600    243.98304   -295.55037    229018.04   -21047.698    1615.9875   -22663.685   -668.16774     425.3031    78.611896    15.903382    29.529423 
   46800    240.95518   -297.13794    229018.04   -21004.189    1595.9329   -22600.122   -709.52745    422.48976    78.612967    15.905539    29.513759 
   47000    252.36135   -278.47658    229018.04   -20975.945    1671.4801   -22647.425   -596.91693    420.47699     78.61392    15.906186    29.527781 
   47200    248.71797   -267.00604    229018.04    -21033.87    1647.3486   -22681.219   -568.32279    424.17135    78.612397    15.907346    29.508529 
   47400    241.77094   -275.00621    229018.04   -21058.557     1601.336   -22659.893   -589.05439     426.5469    78.612174    15.906257    29.505598 
   47600    245.42346   -214.36377    229018.04   -21018.269    1625.5279   -22643.797   -352.42098    430.53116    78.615363    15.905825    29.495395 
   47800    238.58363   -283.28154    229018.04   -21013.324    1580.2252   -22593.549   -615.91294    438.29247    78.616158    15.908631    29.502189 
   48000    243.04466   -414.76371    229018.04   -21043.598    1609.7723    -22653.37   -1120.0604    441.50851    78.615483     15.90685    29.512451 
   48200    238.45844   -312.53038    229018.04   -21067.734    1579.3961   -22647.131   -685.88502    447.33923    78.613064    15.906724    29.510321 
   48400    238.90242   -386.31682    229018.04   -21092.312    1582.3367   -22674.648   -994.17971    452.86042    78.610231    15.904064    29.511615 
   48600    240.55616   -347.50282    229018.04   -21058.737      1593.29   -22652.027   -880.97037     456.4862    78.608361    15.901469    29.526527 
   48800    243.43117   -308.50313    229018.04   -21024.183    1612.3323   -22636.515   -776.33938    460.36752    78.607738    15.899228    29.509965 
   49000     232.0068   -432.08362    229018.04    -21061.81    1536.6645   -22598.475   -1235.4748    460.35568     78.60631    15.898607    29.500775 
   49200    240.13654   -288.93104    229018.04   -21069.399    1590.5108    -22659.91   -665.83215    457.47917    78.605485    15.896544    29.502357 
   49400    241.91535   -148.53479    229018.04   -21032.194    1602.2924   -22634.486   -115.73709    458.80033    78.605302    15.894784    29.514867 
   49600    237.89727   -339.97005    229018.04    -21047.55    1575.6792    -22623.23   -848.93824    458.65621    78.603858    15.891248    29.522354 
   49800    234.67896   -372.00939    229018.04   -21112.653    1554.3633   -22667.016   -955.39183    457.07713    78.603363    15.892608    29.532956 
   50000    240.23669   -283.34231    229018.04   -21125.067     1591.174   -22716.242   -615.52999    457.28538    78.602741    15.894136    29.532835 
   50200    241.27682   -199.18058    229018.04   -21121.298    1598.0632   -22719.361   -315.48901    455.40354    78.604521    15.895568    29.535056 
   50400    242.69518   -209.25638    229018.04   -21104.516    1607.4575   -22711.974   -370.96376    455.21249    78.605682    15.897415    29.546238 
   50600    236.94717   -245.20628    229018.04   -21138.737    1569.3864   -22708.123   -490.94308     458.7025    78.607438    15.895886    29.540475 
   50800    231.76179   -184.89815    229018.04   -21137.696    1535.0418   -22672.737   -233.19711    462.13195       78.608    15.895038    29.526477 
   51000    238.59601   -524.73869    229018.04   -21108.493    1580.3072     -22688.8   -1595.1097    468.56302    78.608709    15.893869    29.495626 
   51200    236.88879   -276.14648    229018.04   -21120.704    1568.9997   -22689.703   -613.56511    468.01027    78.608078    15.893013    29.492412 
   51400     237.8441   -459.05973    229018.04   -21135.984    1575.3271   -22711.311   -1299.8391    471.22288    78.606753    15.892187    29.501802 
   51600    236.12335   -416.62129    229018.04   -21106.242    1563.9299   -22670.172   -1136.6506    473.09089     78.60421    15.892693     29.51145 
   51800     243.3892   -310.90252    229018.04   -21066.327    1612.0543   -22678.381   -728.80177    472.31413    78.601935    15.893076    29.524759 
   52000    239.13149   -292.07861    229018.04   -21047.245    1583.8539   -22631.099   -643.64808    469.60795    78.598861    15.896172    29.499966 
   52200    245.01309   -411.31867    229018.04   -21096.068    1622.8099   -22718.878   -1133.6889    465.77477      78.6005     15.89768    29.507801 
   52400    234.98735     -307.354    229018.04   -21111.882    1556.4058   -22668.287   -702.97948    464.32532    78.599577     15.89684    29.518556 
   52600    243.82336   -232.14033    229018.04   -21070.926    1614.9299   -22685.856   -456.29539    469.44228    78.597495    15.898246    29.508794 
   52800    229.57124   -111.73148    229018.04   -21164.185     1520.533   -22684.718    51.775994    473.08272    78.598417    15.896944    29.513732 
   53000     235.3397   -363.68205    229018.04   -21133.437    1558.7395   -22692.177   -909.52425    474.15995    78.600103    15.897262    29.530237 
   53200    240.92113   -70.725864    229018.04   -21113.161    1595.7073   -22708.869    210.49248    469.51141    78.602236    15.898992    29.530983 
   53400    236.63183   -427.51346    229018.04   -21110.014    1567.2978   -22677.312   -1211.9063    468.69317    78.602111    15.898836    29.553404 
   53600    243.19411   -215.20857    229018.04   -21082.332    1610.7621   -22693.094   -365.11348    469.43707    78.602366    15.899138    29.531392 
   53800     239.6505   -283.01637    229018.04   -21090.052    1587.2915   -22677.343   -607.01353    470.37836    78.600765    15.898504    29.534488 
   54000    248.30291   -252.06935    229018.04    -21039.36    1644.5995   -22683.959   -495.89474    467.72352    78.598426     15.89933    29.532195 
   54200    235.03241   -165.82863    229018.04   -21153.641    1556.7042   -22710.346   -151.63325    469.57712    78.598803    15.901653    29.516858 
   54400    238.72576    -284.8114    229018.04   -21214.684    1581.1667    -22795.85   -603.51767    473.32733    78.598206    15.904858    29.522376 
   54600    243.99949   -282.65645    229018.04   -21137.109    1616.0965   -22753.206   -608.31957    477.87136    78.598343    15.904235     29.52344 
   54800    240.21127   -169.20538    229018.04   -21112.699    1591.0057   -22703.705   -173.77067     480.1969    78.599143    15.906236     29.49492 
   55000    242.25817   -441.52212    229018.04    -21123.66    1604.5631   -22728.223   -1234.1121    480.79297    78.598383    15.905113    29.491046 
   55200    241.21567   -247.18651    229018.04   -21094.708    1597.6582   -22692.367   -504.54956     481.4284     78.59896    15.903286    29.488133 
   55400    241.45322   -282.67162    229018.04   -21111.045    1599.2316   -22710.276   -614.30163    484.96812     78.59866    15.902458    29.502833 
   55600    243.00622    -308.5665    229018.04   -21113.797    1609.5177   -22723.315     -735.737    483.21222     78.59658    15.902225    29.512103 
   55800     227.2252   -238.10397    229018.04   -21138.242    1504.9943   -22643.236   -446.98641    485.86428    78.596572    15.899744    29.503686 
   56000    234.40146    -197.5061    229018.04   -21137.303    1552.5253   -22689.829   -294.90909    489.22366    78.598093    15.898244    29.497639 
   56200     249.6192   -284.65988    229018.04   -21093.852    1653.3178   -22747.169   -591.55793    490.48813    78.597216    15.898782      29.4842 
   56400    237.43281   -361.40892    229018.04   -21106.404     1572.603   -22679.007   -927.24035    494.39448     78.59837    15.898662      29.4679 
   56600     235.7313   -240.50697    229018.04    -21195.62    1561.3333   -22756.953   -433.35314    497.79393    78.600156    15.895318    29.451124 
   56800    241.71274   -462.84835    229018.04   -21153.723    1600.9504   -22754.673   -1292.2667    497.61638    78.599885    15.893886    29.455449 
   57000    227.09296   -252.56837    229018.04   -21212.513    1504.1184   -22716.632   -499.95431    497.61193     78.60028     15.89548    29.474432 
   57200    237.42915   -420.87247    229018.04   -21177.374    1572.5787   -22749.953   -1146.2212    500.86564    78.597227    15.894759    29.461069 
   57400    235.25881   -152.94095    229018.04   -21206.318    1558.2038   -22764.522   -90.034475    500.97507    78.597323    15.891135    29.475049 
   57600     243.0767   -251.73812    229018.04   -21157.592    1609.9845   -22767.577   -519.44673    495.58183    78.598774    15.890029    29.461365 
   57800    242.05613   -490.55427    229018.04    -21160.02    1603.2248   -22763.245   -1438.1222    496.70582    78.597721    15.886874    29.500602 
   58000    238.55481    -435.3507    229018.04   -21111.558    1580.0344   -22691.592   -1213.7172    498.24468    78.598003    15.884145    29.474036 
   58200    244.13798   -301.13402    229018.04   -21066.064    1617.0137   -22683.078   -681.45526    502.65056    78.597352    15.881659    29.502634 
   58400    228.95018   -332.78551    229018.04   -21203.286    1516.4195   -22719.706   -790.52611    503.85861    78.599653    15.881741    29.507564 
   58600    242.65126   -285.59125    229018.04   -21148.519    1607.1666   -22755.686   -601.83136    509.08358    78.598542    15.882132    29.498774 
   58800    238.36674   -167.62103    229018.04   -21214.765    1578.7887   -22793.554   -139.19459    509.97752    78.598655    15.884782    29.506009 
   59000    238.01233   -281.06062    229018.04   -21191.205    1576.4413   -22767.646   -637.90115    506.95173    78.598272    15.886837    29.495893 
   59200    233.12575   -292.94839    229018.04     -21199.8    1544.0758   -22743.876   -661.58388    509.76081    78.600121    15.886463    29.508169 
   59400    242.42819   -212.85472    229018.04   -21164.632    1605.6892   -22770.321   -384.68757    513.91881    78.600579    15.890656    29.507124 
   59600     243.9453   -227.62908    229018.04   -21083.262    1615.7375       -22699   -410.82138    516.78764    78.602955    15.891216    29.520725 
   59800    241.44735   -294.82875    229018.04   -21036.967    1599.1927    -22636.16   -660.94151    516.52234    78.602552    15.892884    29.548705 
   60000    229.59658   -229.18531    229018.04   -21136.842    1520.7008   -22657.542   -441.93445    514.53271    78.603291    15.891089    29.550463 
   60200    244.90683   -198.92647    229018.04   -21056.772    1622.1061   -22678.878   -294.49354    518.34075    78.603408    15.891851    29.558506 
   60400    243.07933   -155.88426    229018.04    -21177.58    1610.0019   -22787.581   -109.88135    526.22813    78.602997    15.890526    29.561066 
   60600    239.62663   -357.10975    229018.04   -21182.885    1587.1334   -22770.019   -888.66292    534.59114    78.602448    15.891768    29.564403 
   60800    233.97764   -299.11981    229018.04   -21198.737    1549.7181   -22748.455   -667.55788    538.05044    78.603104    15.890136    29.562563 
   61000     230.2159   -335.71559    229018.04   -21192.705    1524.8028   -22717.508    -836.9497    538.92629    78.602454    15.892772    29.559519 
   61200    235.69165   -390.48707    229018.04   -21277.019    1561.0706   -22838.089   -997.13259    536.74763    78.601607     15.89338    29.557125 
   61400    234.35963   -173.65319    229018.04   -21167.525    1552.2482   -22719.773   -169.71167    537.76124    78.603537    15.890777    29.546477 
   61600    242.00929   -382.67634    229018.04   -21127.986    1602.9146   -22730.901   -963.15382    540.77873    78.602085    15.891088    29.558374 
   61800    242.06494    -343.8006    229018.04   -21079.878    1603.2832   -22683.162   -866.51287    539.74136    78.604069    15.890693    29.569598 
   62000     231.9955   -450.61331    229018.04   -21185.125    1536.5897   -22721.715   -1281.3231    539.86384    78.604345    15.891166    29.577381 
   62200    244.31468   -300.86378    229018.04   -21120.132    1618.1841   -22738.316   -722.92378    539.41733    78.604248    15.891691    29.586075 
   62400    243.56364    -180.8016    229018.04   -21039.894    1613.2097   -22653.104   -203.29063    541.41425    78.604293    15.893893    29.571258 
   62600    246.45972   -359.96102    229018.04   -21093.191    1632.3914   -22725.582   -936.03903    545.39807    78.604716    15.896098    29.590242 
   62800    233.85413   -263.22408    229018.04   -21085.729       1548.9    -22634.63   -534.10152    551.85352     78.60274    15.899871    29.595665 
   63000    237.30426   -290.87105    229018.04   -21136.209    1571.7515   -22707.961   -630.10809    558.28164    78.601546    15.901257    29.607408 
   63200    234.82975   -302.41112    229018.04   -21220.473     1555.362   -22775.835   -700.06583    558.33644    78.599244    15.901189    29.601439 
   63400    242.34948   -329.60069    229018.04   -21123.329    1605.1678   -22728.497   -784.11447    558.65484     78.59781    15.902721    29.618654 
   63600    241.58057   -281.16526    229018.04   -21121.298    1600.0751   -22721.373   -567.60017    561.46144    78.594165    15.905784    29.598958 
   63800     243.9393    -265.3685    229018.04   -21070.839    1615.6978   -22686.537   -548.22868    562.54584     78.59409    15.906968    29.601167 
   64000    241.30745   -418.36871    229018.04   -21145.035    1598.2661   -22743.301   -1139.1165    560.84853    78.594505     15.90793    29.598103 
   64200    241.71867   -376.34339    229018.04   -21106.304    1600.9898   -22707.294   -987.90993    557.63776    78.595764    15.906809    29.609591 
   64400    243.11222   -343.30964    229018.04   -21050.433    1610.2198   -22660.652   -862.40864    555.63191    78.598054    15.905795    29.602061 
   64600    235.62258   -229.92452    229018.04   -21128.058    1560.6132   -22688.671   -360.39475    557.83338    78.599958    15.905189    29.599966 
   64800    241.38263   -260.05579    229018.04   -21082.671     1598.764   -22681.435   -515.10084    559.92523     78.60046    15.906144    29.597359 
   65000    236.03253    -361.2421    229018.04   -21131.168    1563.3284   -22694.497   -979.01027    560.44211    78.601813    15.905767     29.64193 
   65200     238.9482   -310.06322    229018.04   -21134.584    1582.6399   -22717.224   -722.62871    561.47962    78.601003    15.904278    29.637948 
   65400    246.20966    -210.8596    229018.04   -21055.488    1630.7352   -22686.223   -359.92039     567.8232    78.600661    15.902071    29.639899 
   65600    241.94927   -334.01082    229018.04   -21050.024    1602.5171   -22652.541   -850.72898    573.40453    78.600161    15.902195    29.643243 
   65800    237.80733   -328.19392    229018.04   -21164.484    1575.0835   -22739.567   -750.41205    572.11589    78.596896    15.901822    29.644382 
   66000    237.70821   -376.56975    229018.04   -21167.957     1574.427   -22742.385    -996.4747    569.78837    78.595241    15.897328    29.661641 
   66200    241.36145   -349.74182    229018.04   -21117.479    1598.6238   -22716.103   -861.14193    571.33021    78.593918    15.895334    29.644769 
   66400    233.91896    -234.7354    229018.04   -21198.861    1549.3294   -22748.191   -410.74225     572.5242    78.594609    15.896411    29.645241 
   66600    237.42419   -387.21614    229018.04   -21152.839    1572.5459   -22725.385   -1039.3699    572.42745    78.595419    15.898531    29.654664 
   66800    235.95481   -307.75689    229018.04   -21182.747    1562.8136   -22745.561   -705.32346      571.604    78.593558    15.899146    29.644271 
   67000    236.27081   -315.83147    229018.04   -21105.404    1564.9066    -22670.31   -732.45461    570.46504    78.591457    15.902727    29.671179 
   67200     243.3542   -327.13817    229018.04   -21169.256    1611.8224   -22781.078     -770.177    568.86547    78.591056    15.904281    29.676419 
   67400    238.91486   -361.32024    229018.04   -21120.254    1582.4191   -22702.674   -894.56039    571.00639    78.588961    15.906636    29.644303 
   67600    230.86572   -423.23894    229018.04   -21141.048    1529.1067   -22670.154   -1123.2217    572.74276    78.589783    15.906786    29.661595 
   67800    236.23341   -197.94892    229018.04   -21097.641    1564.6589   -22662.299   -288.65169    569.61476     78.59131    15.907468    29.650577 
   68000    239.98455   -289.27245    229018.04   -21101.717    1589.5041   -22691.221   -621.27927    570.55019    78.592556    15.908738    29.653513 
   68200     236.4461   -352.34167    229018.04   -21152.803    1566.0676    -22718.87   -914.85306    567.29298    78.591564    15.906169    29.668757 
   68400    245.85025   -175.70444    229018.04   -21020.359    1628.3547   -22648.714   -216.88783     565.9961    78.592517    15.907938    29.646488 
   68600     234.5762    -153.4409    229018.04   -21049.929    1553.6826   -22603.611   -119.47223     565.8061    78.592836     15.90634    29.656641 
   68800     245.2255   -565.66843    229018.04   -21017.125    1624.2167   -22641.342   -1750.3967    567.26999    78.592513    15.906037    29.668003 
   69000    239.80328   -171.14623    229018.04   -21014.794    1588.3034   -22603.098   -177.82499    564.82565    78.591385    15.906375    29.672849 
   69200    246.38729   -226.31299    229018.04   -21081.583    1631.9117   -22713.495   -404.54776    566.05923    78.590712    15.902876    29.668695 
   69400    239.42448   -227.55232    229018.04   -21084.031    1585.7945   -22669.826   -409.75013    566.61526    78.589585    15.899971    29.679284 
   69600    242.01629   -208.67214    229018.04   -21115.145     1602.961   -22718.106   -334.20484    566.89266    78.589816    15.899013    29.699753 
   69800    238.86779   -305.96405    229018.04   -21116.324    1582.1073   -22698.432   -730.73778    567.07902    78.591382    15.902233    29.688121 
   70000    236.78661   -295.30852    229018.04   -21197.144    1568.3229   -22765.467    -689.5641    566.82934    78.591561    15.901149    29.669584 
   70200    235.91691   -255.03604    229018.04   -21206.516    1562.5626   -22769.078   -541.52728     566.9848    78.591358    15.900699    29.665225 
   70400    236.50646   -331.00589    229018.04   -21178.589    1566.4674   -22745.057   -787.22135    567.67688    78.592422    15.901088    29.657252 
   70600    241.72624   -312.71375    229018.04   -21158.506    1601.0399   -22759.546   -736.67376    568.58612    78.591942    15.901037    29.656254 
   70800    235.99437   -222.19674    229018.04   -21193.547    1563.0756   -22756.622   -400.28336    573.06298    78.591293    15.900685    29.650107 
   71000     244.3062   -303.23282    229018.04   -21149.248    1618.1279   -22767.376   -688.12605    572.50717    78.590293    15.899631    29.627777 
   71200    247.68329    -110.9334    229018.04   -21014.817    1640.4956   -22655.312     108.4465    567.71155    78.589609    15.899088    29.627196 
   71400    246.20085   -395.16293    229018.04   -21087.363    1630.6769    -22718.04   -1079.2195    563.68287     78.58876    15.898869    29.635132 
   71600    240.50137   -118.54591    229018.04   -21129.579    1592.9271   -22722.506   -11.689126    561.14665    78.588949    15.898923    29.613065 
   71800    240.45259   -260.41004    229018.04   -21132.185     1592.604   -22724.789    -519.8838    562.80878    78.588148    15.899459    29.615949 
   72000    233.76777   -345.82046    229018.04   -21145.554    1548.3281   -22693.882   -875.66076    567.55832    78.588247    15.899801    29.616323 
   72200    239.67818   -295.21808    229018.04   -21098.127    1587.4748   -22685.602   -699.60527      570.375    78.588479    15.895178    29.633069 
   72400    240.14203   -380.84738    229018.04   -21059.157    1590.5471   -22649.704   -1024.1648    575.38095    78.588716    15.891478    29.634495 
   72600    242.54676   -352.31446    229018.04   -21089.704    1606.4745   -22696.178   -900.88775    577.02848    78.589452    15.888212    29.639479 
   72800     239.7435   -181.16247    229018.04   -21115.393    1587.9075   -22703.301   -232.87441    577.21968    78.589837    15.886924     29.63109 
   73000    233.05458   -363.06531    229018.04   -21110.121    1543.6044   -22653.725   -941.14999    580.28553     78.59208    15.889621    29.609898 
   73200    246.44389   -288.37493    229018.04    -21010.87    1632.2866   -22643.156   -632.30197    577.98864    78.592513    15.890648    29.600198 
   73400    241.78642   -484.25482    229018.04   -21028.273    1601.4385   -22629.711   -1416.3012    577.54111    78.594275    15.892225     29.62556 
   73600    241.99446   -229.76978    229018.04   -21098.534    1602.8164   -22701.351   -445.51523    579.83376    78.593084    15.893753    29.600522 
   73800    251.22962   -244.59767    229018.04   -21045.843    1663.9842   -22709.828   -471.52714    582.74454    78.593685    15.895109    29.568532 
   74000    241.40908   -477.46182    229018.04   -20968.867    1598.9392   -22567.807   -1424.4993    585.46007    78.593973    15.894257    29.575811 
   74200    241.02082   -204.11155    229018.04    -21048.63    1596.3677   -22644.998   -319.00657    584.85688    78.594295    15.894096    29.572633 
   74400    240.34917   -281.33744    229018.04   -21113.314     1591.919   -22705.233   -623.70256    585.27196    78.593333    15.895803    29.556423 
   74600     240.6077   -321.96173    229018.04   -21153.337    1593.6314   -22746.968   -767.30963    583.24469     78.59412    15.895345    29.551013 
   74800    233.93025   -399.77448    229018.04   -21114.231    1549.4042   -22663.635   -1074.5219    584.49911    78.593098    15.895957    29.550009 
   75000    238.75583    -254.3697    229018.04   -21144.136    1581.3658   -22725.501   -534.61625    585.35936    78.591472     15.89683    29.566031 
   75200    245.32706   -308.88479    229018.04   -21127.972    1624.8894   -22752.861   -735.25733    584.32734    78.590555     15.89562    29.575419 
   75400     239.5831   -195.54117    229018.04   -21076.725    1586.8451    -22663.57   -307.68503    585.09855    78.590433    15.894823    29.558816 
   75600    237.53044   -193.43648    229018.04    -21051.35    1573.2496     -22624.6    -282.0128    585.59216    78.591884    15.894796    29.549962 
   75800    243.19629   -145.55659    229018.04   -21112.651    1610.7766   -22723.427   -83.025458    584.85109    78.591494    15.893579    29.563205 
   76000    237.94206   -242.17295    229018.04   -21110.402    1575.9759   -22686.377   -467.57297    585.48709      78.5926    15.894242    29.567325 
   76200    236.16845   -374.03853    229018.04   -21152.409    1564.2286   -22716.638   -944.22549    586.94233    78.595966    15.894729    29.584341 
   76400    230.00094   -430.78468    229018.04   -21199.608     1523.379   -22722.987   -1214.6066    586.88748    78.594951    15.895376     29.57875 
   76600     243.0945   -267.44044    229018.04   -21115.094    1610.1024   -22725.196    -521.2994    585.72875    78.593381    15.893212    29.586866 
   76800    236.43809    -141.9478    229018.04   -21040.505    1566.0146    -22606.52     -60.9704    587.62686    78.595802     15.89147    29.584681 
   77000    235.24272    -427.5953    229018.04   -21138.497    1558.0972   -22696.595    -1210.412    590.06785      78.5952    15.893707    29.609533 
   77200    238.47356   -111.51883    229018.04   -21152.409    1579.4962   -22731.905    19.784031    587.85673    78.596409    15.893406    29.611314 
   77400    237.39607   -383.73789    229018.04   -21140.185    1572.3596   -22712.545   -1047.7088    588.11269     78.59585    15.893976    29.616465 
   77600    238.90311    -417.7922    229018.04    -21109.09    1582.3413   -22691.432     -1122.03    590.46557    78.595578    15.893784    29.632768 
   77800     240.8741   -431.65401    229018.04    -21130.58    1595.3959   -22725.976   -1224.6683    592.09542     78.59775    15.893046    29.630412 
   78000     233.9304   -233.21249    229018.04   -21145.879    1549.4053   -22695.284   -433.42835    590.91572     78.59918    15.894116     29.63688 
   78200    242.64558   -394.75809    229018.04   -21040.308     1607.129   -22647.437   -1064.2789    591.94407    78.600064     15.89599    29.629069 
   78400    237.12912   -301.19697    229018.04   -21076.131    1570.5915   -22646.723    -720.2663    591.44665    78.601985    15.895516    29.637702 
   78600    234.70061   -169.76117    229018.04   -21167.947    1554.5066   -22722.454    -204.3693     591.8844    78.600071    15.896099    29.644918 
   78800    238.91555   -287.09969    229018.04   -21158.669    1582.4237   -22741.093   -618.10254    593.70514    78.600778    15.897687    29.627596 
   79000    235.67769   -307.42068    229018.04   -21153.292    1560.9781    -22714.27   -715.36586    593.47909    78.600742    15.899952    29.592141 
   79200    236.96131   -287.01101    229018.04   -21142.263    1569.4801   -22711.743   -594.87234    597.07143    78.600569    15.899765    29.606478 
   79400    238.93747   -332.70923    229018.04   -21205.108    1582.5688   -22787.676   -837.30946    598.42588    78.600532    15.900301    29.614068 
   79600    236.87245   -262.43262    229018.04   -21150.347    1568.8915   -22719.238   -578.71449    600.49469    78.603244    15.900951    29.634487 
   79800    244.39998   -242.49976    229018.04   -21110.132     1618.749   -22728.881   -491.59039    599.75086    78.604944    15.901745    29.646758 
   80000    241.40868   -141.04151    229018.04   -21184.482    1598.9366   -22783.419   -93.046237    599.45983    78.608441    15.900086    29.649039 
   80200    237.90736    -239.2681    229018.04   -21177.553    1575.7461   -22753.299   -459.21621    601.76365    78.608984    15.899693    29.648141 
   80400    232.58493   -143.85045    229018.04    -21238.26    1540.4937   -22778.754   -45.956911    603.44796    78.609887     15.89592    29.626504 
   80600    248.43652    -324.3103    229018.04   -21079.446    1645.4845    -22724.93   -764.21137    606.82069    78.610305     15.89486    29.633643 
   80800    239.01606   -324.63391    229018.04   -21158.924    1583.0894   -22742.013   -756.60417    608.43175    78.609521    15.894628    29.636431 
   81000    248.17517   -338.06316    229018.04   -21071.111    1643.7535   -22714.865   -850.77515    611.21813    78.607532    15.896632    29.613407 
   81200    241.15498   -299.46532    229018.04   -21071.191    1597.2562   -22668.447   -709.03208    612.85828    78.606298    15.896546    29.618754 
   81400    240.76128   -352.72189    229018.04   -21172.344    1594.6486   -22766.993    -916.1923    615.04576    78.606909    15.896956    29.610401 
   81600    239.55462   -331.37972    229018.04   -21075.382    1586.6565   -22662.038   -811.98011    618.29206     78.60733    15.894814    29.607445 
   81800     240.3006   -413.02688    229018.04    -21082.15    1591.5974   -22673.748   -1122.5814    622.85748    78.606849     15.89421    29.588141 
   82000    243.95325   -348.22755    229018.04   -21051.033    1615.7902   -22666.823   -859.26316    625.51318    78.604597    15.895162    29.597114 
   82200    241.36408   -181.34276    229018.04   -21179.161    1598.6412   -22777.802   -284.60778    625.24837    78.604759    15.894801    29.610004 
   82400    245.22213   -356.13207    229018.04   -21198.462    1624.1944   -22822.656   -883.54003    632.42755    78.601644    15.892514    29.621537 
   82600    242.78621   -142.80415    229018.04   -21144.794    1608.0604   -22752.855   -82.504447    633.23097    78.602839    15.891103    29.627742 
   82800    243.02435   -150.12292    229018.04   -21108.436    1609.6377   -22718.074   -88.008158    637.20206    78.604033    15.889603    29.601132 
   83000    240.57902   -274.10327    229018.04   -21150.977    1593.4414   -22744.418   -561.23963    641.18885    78.603114    15.888967    29.600151 
   83200    234.32219    -287.3799    229018.04   -21149.466    1552.0002   -22701.466   -628.39088    646.22146    78.603297    15.888023    29.580046 
   83400    235.21343   -134.31086    229018.04   -21148.708    1557.9032   -22706.612   -29.988616    647.24485    78.602583     15.88744    29.564874 
   83600    244.51248   -343.76952    229018.04   -21105.765    1619.4942   -22725.259   -852.78974    644.22047    78.605014    15.885729    29.572188 
   83800     238.2127   -263.35534    229018.04   -21137.354    1577.7685   -22715.123   -524.82192     644.2975     78.60318    15.884579    29.538594 
   84000    235.59742    -330.8836    229018.04   -21146.733    1560.4465    -22707.18   -822.82432    643.76176    78.603319    15.883555      29.5352 
   84200    236.02603   -452.37146    229018.04   -21162.259    1563.2853   -22725.545   -1309.3172    643.10077    78.602946     15.87991    29.538553 
   84400    245.61145   -272.89738    229018.04   -21120.098     1626.773   -22746.871   -573.20238    641.30042    78.603788    15.880318    29.531883 
   84600    239.76207   -303.01669    229018.04   -21123.053    1588.0305   -22711.084   -691.54718    639.91982    78.603291    15.880235    29.553394 
   84800    234.17537   -148.93365    229018.04   -21160.682    1551.0278    -22711.71   -105.70086    635.48801     78.60262    15.880141     29.54363 
   85000    236.04688   -395.71129    229018.04   -21081.433    1563.4235   -22644.857   -1074.8548    636.53452    78.602756    15.880434    29.551831 
   85200    244.57549   -293.93572    229018.04   -21020.981    1619.9115   -22640.892   -674.32113    635.64046    78.602678    15.881369    29.566396 
   85400    243.82888   -199.38798    229018.04   -21046.672    1614.9664   -22661.638   -281.40197    637.58049    78.603651    15.881891    29.567894 
   85600     239.8362   -370.66446    229018.04   -21036.596    1588.5215   -22625.118   -976.86361    641.74779    78.602515    15.883268    29.580589 
   85800    240.83682   -349.01535    229018.04   -21059.212     1595.149   -22654.361   -865.80297    644.36873    78.602155    15.882928    29.574772 
   86000    244.25082   -347.81189    229018.04   -21014.774    1617.7611   -22632.535   -866.46892    648.51793    78.600558    15.882912     29.58733 
   86200    240.26891    -312.4326    229018.04   -21080.717    1591.3875   -22672.104   -726.53369    651.04559    78.600617     15.88334    29.585606 
   86400     235.6635   -233.43815    229018.04   -21111.154    1560.8842   -22672.038   -446.05478    655.23941     78.59987    15.884555    29.586546 
   86600    241.39961   -316.21755    229018.04   -21029.235    1598.8765   -22628.111   -755.91955    662.03279    78.600083    15.888738    29.576277 
   86800     239.1195   -253.14237    229018.04     -21079.4    1583.7745   -22663.175   -500.30947    665.47132    78.599007    15.887403    29.571259 
   87000    239.18138    -180.2605    229018.04   -21131.796    1584.1844    -22715.98    -212.3805    662.64645    78.598066    15.888514    29.555619 
   87200    243.00886   -331.03159    229018.04   -21086.811    1609.5351   -22696.346   -809.49714    662.73506    78.597846    15.888938    29.556905 
   87400    236.47759   -354.30949    229018.04   -21102.218    1566.2762   -22668.494   -917.85117    661.66041    78.596947    15.887563    29.571338 
   87600    245.65496   -169.22995    229018.04   -21070.067    1627.0612   -22697.129   -165.24434    659.53388    78.598511    15.884551    29.568166 
   87800    230.57602   -111.67145    229018.04   -21214.008     1527.188   -22741.196    64.510581    660.53334    78.598493    15.884163    29.556451 
   88000    239.62917   -376.00887    229018.04   -21039.837    1587.1502   -22626.987   -996.00722    661.65648    78.599683     15.88568    29.556495 
   88200    243.92827   -150.82825    229018.04   -21018.273    1615.6247   -22633.897   -119.61882    660.71581    78.600118    15.886927    29.536697 
   88400    237.52111   -498.23806    229018.04   -21019.017    1573.1878   -22592.205    -1493.398    663.11032    78.599393    15.886764    29.540154 
   88600     241.9683   -175.49875    229018.04   -21104.833    1602.6432   -22707.476   -191.70711    662.68576    78.601453    15.887472    29.526993 
   88800    234.56145   -241.44033    229018.04    -21122.15    1553.5849   -22675.735    -425.4481    665.49022     78.60191    15.885857     29.51219 
   89000    229.54939   -114.82634    229018.04   -21176.668    1520.3883   -22697.056   0.45601519    665.82835    78.602034    15.883648    29.499471 
   89200    235.30983   -318.21972    229018.04   -21108.166    1558.5417   -22666.708   -743.15952    667.10596    78.601771    15.882985    29.495081 
   89400     239.5784   -296.33953    229018.04   -21093.778     1586.814   -22680.592   -705.68123    667.23605    78.603553     15.88041    29.501703 
   89600     234.0341   -313.40377    229018.04   -21187.903    1550.0921   -22737.995   -716.54617    671.17462    78.604865    15.879515    29.525666 
   89800     240.1574    -334.1942    229018.04   -21133.534    1590.6489   -22724.183   -829.20906    673.56417    78.603223    15.880069    29.503722 
   90000    242.08471   -261.92962    229018.04    -21058.42    1603.4142   -22661.834   -533.13842    675.90678    78.603593    15.881262    29.500398 
   90200    238.01036   -306.72091    229018.04   -21096.313    1576.4283   -22672.742   -698.84127    677.93434    78.603506    15.881959    29.499763 
   90400    236.63689   -177.56373    229018.04   -21179.237    1567.3313   -22746.568    -212.6354    678.85198    78.602945    15.883155    29.528065 
   90600    235.04394   -193.25734    229018.04    -21161.82    1556.7806   -22718.601    -299.7634    678.95018    78.601704    15.882897    29.531082 
   90800     245.1444   -139.88947    229018.04    -21056.62    1623.6796   -22680.299   -36.022131    679.61963    78.599925    15.880936     29.55261 
   91000    241.67438   -162.93093    229018.04   -21149.208    1600.6964   -22749.905   -167.63204    676.73867    78.598903    15.878951    29.534336 
   91200    238.58562   -295.04671    229018.04   -21151.447    1580.2384   -22731.686   -669.41896    678.49479    78.598157    15.878485    29.539434 
   91400    238.41695    -261.7773    229018.04   -21096.624    1579.1213   -22675.745   -528.06444    681.41648     78.59803     15.87979    29.537099 
   91600    241.81101   -143.79737    229018.04   -21087.135    1601.6014   -22688.736   -87.632941    683.24298     78.59613    15.878335    29.525187 
   91800    240.64564   -307.68666    229018.04   -21060.766    1593.8827   -22654.648   -729.77425    685.54547    78.596262    15.877243    29.508253 
   92000    237.02706   -177.08706    229018.04   -21098.672    1569.9155   -22668.587   -196.31931    683.68563    78.595506    15.875131    29.477659 
   92200    239.54631   -289.69746    229018.04   -21076.389    1586.6015    -22662.99   -643.74986     681.8288    78.595148    15.872884    29.467061 
   92400    251.14922   -277.52106    229018.04   -21054.646    1663.4517   -22718.097   -541.89842    679.77604      78.5938    15.874416    29.466448 
   92600    242.71531   -396.55608    229018.04   -21054.701    1607.5909   -22662.292   -1047.5978    679.71737    78.594569    15.876905    29.464157 
   92800    238.41242   -201.63099    229018.04   -21161.184    1579.0913   -22740.275    -292.3755    679.47194     78.59465    15.876494     29.48095 
   93000     239.4268   -215.35128    229018.04   -21196.486    1585.8099   -22782.296   -356.47734    679.98883    78.593172    15.877635    29.469186 
   93200    239.86051   -479.25132    229018.04   -21122.256    1588.6825   -22710.938   -1367.7503     682.2459    78.592565    15.877772    29.458138 
   93400    236.26922   -237.98728    229018.04   -21190.761    1564.8961   -22755.657   -430.44697    684.29996    78.593987     15.87567    29.443943 
   93600    235.86429   -345.59368    229018.04   -21152.885    1562.2141   -22715.099   -855.35152     685.7655    78.594355    15.876474    29.443471 
   93800    238.91371   -421.31936    229018.04   -21051.746    1582.4115   -22634.158   -1144.8587    685.75078    78.595018    15.877319    29.449172 
   94000    238.40498    -180.3055    229018.04   -21049.346     1579.042   -22628.388   -216.70212    687.32866    78.597719    15.876608    29.454838 
   94200    237.72139   -265.60532    229018.04   -21073.018    1574.5143   -22647.532   -543.76338    691.01524    78.597824    15.875319    29.465728 
   94400    241.45588    -190.2984    229018.04   -21017.812    1599.2492   -22617.061   -236.77184    689.71014    78.597074    15.876596    29.467972 
   94600    233.34268   -273.38799    229018.04   -21071.448    1545.5125   -22616.961   -568.59697     691.3043    78.597975    15.877568    29.447922 
   94800    240.31982   -306.65372    229018.04    -20992.33    1591.7247   -22584.055   -695.57621    690.42808    78.600372    15.877474     29.46581 
   95000    241.19565   -341.25133    229018.04   -20988.945    1597.5256    -22586.47   -836.98435    689.58082     78.60152    15.878278    29.473345 
   95200    241.24021   -288.80443    229018.04   -21107.079    1597.8208     -22704.9     -607.205    688.97136     78.60351    15.880842    29.497391 
   95400    235.36242   -316.10305    229018.04   -21159.864      1558.89   -22718.754   -747.97887      690.831    78.606386    15.878469    29.519101 
   95600    234.04957   -148.57779    229018.04   -21168.419    1550.1945   -22718.614   -75.728428    693.55789       78.609    15.878008    29.514264 
   95800    239.79428   -488.51789    229018.04   -21136.219    1588.2439   -22724.463   -1432.8796    695.33125    78.608012    15.876959    29.508175 
   96000    232.38854   -194.02371    229018.04   -21179.437     1539.193    -22718.63   -220.29627    694.57109     78.60665    15.877667    29.528795 
   96200    232.42859   -439.89442    229018.04   -21215.857    1539.4582   -22755.315   -1207.3149    695.84678    78.607378    15.879878    29.516126 
   96400    237.16167   -324.47733    229018.04   -21143.753    1570.8071    -22714.56   -750.49706    695.19958    78.608093    15.880279    29.509727 
   96600    235.69831    -393.3999    229018.04   -21234.978    1561.1148   -22796.093   -1038.6853     696.9658    78.608117    15.880932    29.515566 
   96800    237.23419   -379.71472    229018.04   -21193.453    1571.2874   -22764.741   -975.94563    698.79794    78.607813    15.883532    29.521967 
   97000    237.19302   -205.85191    229018.04   -21138.041    1571.0147   -22709.056   -338.73629    697.73228    78.610547    15.883092    29.512866 
   97200    237.34878   -326.78553    229018.04   -21070.331    1572.0464   -22642.378   -790.97943    698.52015    78.613325    15.884184    29.515232 
   97400     239.3806   -358.43275    229018.04    -21036.75    1585.5039   -22622.254   -957.85112       700.52    78.612788     15.88295     29.50728 
   97600    240.25392   -309.39664    229018.04    -21072.65    1591.2882   -22663.938   -694.01652    703.21096    78.609836    15.882342     29.50974 
   97800    238.49439   -399.70102    229018.04   -21161.597    1579.6342   -22741.231   -1101.2265    704.85391    78.608988     15.88182    29.512092 
   98000    231.10327   -348.30056    229018.04    -21206.53    1530.6801    -22737.21   -881.49859    705.69965    78.603255    15.879457    29.511889 
   98200    233.14738   -349.13972    229018.04    -21190.71     1544.219   -22734.929   -903.65177    712.22787     78.60189    15.877114    29.514423 
   98400    239.57395   -208.05943    229018.04   -21126.412    1586.7845   -22713.196    -316.3864     714.0819    78.600972    15.879014    29.514651 
   98600    240.73187   -179.03924    229018.04   -21110.051    1594.4538   -22704.505    -207.3499     714.4622    78.600828    15.881146    29.519372 
   98800     250.6045   -379.20487    229018.04   -20988.705    1659.8438   -22648.549   -995.43953    718.42305    78.602912    15.881371    29.530439 
   99000    248.46127   -305.33876    229018.04   -20976.153    1645.6484   -22621.802   -680.63181    719.43453    78.603548    15.882038    29.528976 
   99200     244.7828   -152.46919    229018.04     -21054.6    1621.2846   -22675.885   -68.337894    723.89828    78.603432    15.883932    29.521135 
   99400     239.7321   -174.01235    229018.04   -21135.255     1587.832   -22723.087   -204.51649    725.40921    78.602448     15.88535    29.513605 
   99600    234.68619   -483.62165    229018.04   -21058.494    1554.4111   -22612.905    -1416.386     725.9408    78.601823    15.886689    29.526115 
   99800    242.89122   -415.21342    229018.04   -21044.607     1608.756   -22653.363   -1139.7972    723.14649     78.60071    15.887758    29.531145 
  100000    240.79206   -340.76177    229018.04   -21059.438    1594.8525   -22654.291   -863.59462    722.75068    78.601514    15.886159    29.543461 
  100200    245.86034   -289.47764    229018.04   -21012.614    1628.4215   -22641.035   -677.27044    723.65946     78.60145    15.884593    29.569409 
  100400    243.38747   -240.82045    229018.04   -21043.514    1612.0428   -22655.556   -443.90867     724.9043    78.601728    15.885392    29.567587 
  100600    241.51085   -319.90145    229018.04   -21111.877    1599.6133   -22711.491   -779.49178    730.93923    78.602425     15.88584     29.56768 
  100800    242.85073   -296.36172    229018.04   -21096.364    1608.4878   -22704.852   -636.30928    735.74338    78.604483    15.885639    29.554445 
[...]
 5175800    227.33316   -475.61804    229018.04   -23240.498    1505.7094   -24746.207   -1352.6633    11598.765    77.926792    15.477569     29.94926 
 5176000    215.43001   -352.86602    229018.04   -23363.296    1426.8705   -24790.167   -938.78318    11598.416    77.927372    15.477397       29.953 
 5176200    220.78705   -319.18588    229018.04   -23362.936    1462.3521   -24825.288   -750.51544    11594.727    77.927415    15.480143    29.958141 
 5176400    220.71107   -495.06421    229018.04   -23304.528    1461.8489   -24766.377   -1452.2154    11598.828    77.929054    15.482115    29.957956 
 5176600    225.37369   -376.81513    229018.04   -23270.884     1492.731   -24763.615    -974.7568    11596.309    77.928477    15.481896    29.957069 
 5176800    224.21219   -310.50912    229018.04   -23325.768     1485.038   -24810.806    -777.4769    11594.826    77.930995    15.481315    29.954193 
 5177000    229.01019   -427.81991    229018.04   -23234.646    1516.8169   -24751.463   -1182.7183    11598.595      77.9317    15.481085    29.956597 
 5177200    231.76258   -346.21761    229018.04   -23217.159     1535.047   -24752.206   -869.90725    11598.249    77.934447    15.478367    29.943241 
 5177400    222.52913    -291.9882    229018.04   -23269.534    1473.8905   -24743.425    -670.8759     11594.05    77.935406    15.477172    29.945706 
 5177600    225.03448   -391.63928    229018.04     -23268.9    1490.4843   -24759.384   -1038.4525    11598.483    77.935671    15.475849    29.953599 
 5177800    222.67071   -392.80487    229018.04   -23237.915    1474.8283   -24712.743     -1074.18    11594.837    77.935091    15.475028    29.951406 
 5178000    224.45563    -313.9109    229018.04   -23322.674    1486.6504   -24809.325   -715.03609    11596.751    77.935208    15.475051    29.944103 
 5178200    221.43817   -350.01674    229018.04   -23320.781    1466.6647   -24787.446   -915.72429    11595.633    77.938187     15.47525     29.94509 
 5178400    231.99222   -323.91178    229018.04   -23235.697     1536.568   -24772.265   -845.33331    11595.035    77.938342    15.478436    29.949387 
 5178600    221.82721   -275.90349    229018.04   -23293.592    1469.2414   -24762.833    -635.1132     11593.11    77.939179    15.479198    29.950575 
 5178800    226.77252   -539.82523    229018.04    -23257.51     1501.996   -24759.506   -1643.0906    11597.912    77.940497    15.480153    29.939289 
 5179000    232.02254    -284.1713    229018.04   -23217.336    1536.7688   -24754.105   -674.68406    11592.741    77.939221    15.483009    29.932686 
 5179200    219.16767   -354.94657    229018.04   -23272.889    1451.6264   -24724.516   -907.56288    11593.117     77.93753    15.486092    29.943925 
 5179400    220.67495   -430.13093    229018.04   -23313.768    1461.6096   -24775.377   -1234.6307    11595.947    77.939383    15.486552    29.941399 
 5179600    228.59572   -418.66112    229018.04   -23285.245    1514.0717   -24799.317    -1165.329    11593.562    77.940511    15.486407    29.933814 
 5179800    220.41103   -348.19754    229018.04   -23266.988    1459.8616   -24726.849   -879.90849    11592.035    77.942314    15.488174    29.928541 
 5180000     227.2975   -467.23353    229018.04   -23303.851    1505.4731   -24809.324   -1369.1979    11591.683    77.943015    15.491032    29.938574 
 5180200    231.99733   -481.99461    229018.04   -23318.917    1536.6018   -24855.519   -1446.0835    11593.476    77.942829    15.494878    29.941834 
 5180400    220.91849   -418.17691    229018.04   -23302.035    1463.2227   -24765.258   -1184.9378    11592.595    77.944607    15.493991    29.945913 
 5180600    221.13389   -372.59996    229018.04   -23323.985    1464.6494   -24788.635   -989.29699    11593.038    77.943252    15.494971    29.939607 
 5180800    224.26933   -414.27401    229018.04   -23342.156    1485.4165   -24827.573   -1144.3463    11592.232    77.944444    15.495767    29.947786 
 5181000    229.06958   -424.64482    229018.04    -23298.23    1517.2103    -24815.44   -1220.1695     11594.44     77.94702    15.496578    29.932975 
 5181200    226.21893   -362.87049    229018.04    -23265.23    1498.3294    -24763.56   -924.22925     11592.19    77.946983    15.498765    29.935063 
 5181400    225.58574   -343.54174    229018.04   -23264.202    1494.1356   -24758.337    -863.7654    11593.002    77.945841    15.501274    29.944135 
 5181600     225.9503   -381.94136    229018.04   -23259.551    1496.5502   -24756.101   -1006.7133    11593.375    77.944921    15.502263    29.942349 
 5181800    226.35073   -370.15551    229018.04   -23354.337    1499.2024    -24853.54   -982.36178    11590.892    77.945922    15.504232    29.944555 
 5182000    223.47351   -301.48755    229018.04   -23360.682    1480.1455   -24840.828   -671.14745    11592.731     77.94576    15.506464    29.943634 
 5182200    228.48717    -508.8415    229018.04   -23277.311    1513.3527   -24790.664   -1506.8865    11596.487    77.946495    15.506687    29.952538 
 5182400    227.46616   -313.74035    229018.04   -23268.987    1506.5902   -24775.577   -757.45046    11592.309     77.94814    15.509315    29.959303 
 5182600    233.63728   -394.58637    229018.04   -23249.733    1547.4638   -24797.197   -1105.8843    11590.391    77.948094     15.51243    29.977231 
 5182800    228.23188   -484.57741    229018.04   -23251.161    1511.6619   -24762.823   -1429.1236    11594.282    77.951661    15.512658    29.957185 
 5183000     230.0658   -232.99953    229018.04   -23243.928    1523.8086   -24767.736   -461.35705     11587.82    77.953337    15.512477    29.957244 
 5183200    230.72258   -458.48947    229018.04   -23244.368    1528.1587   -24772.526   -1320.9294    11594.158    77.954741    15.512685    29.953579 
 5183400    219.20913   -412.93536    229018.04   -23283.001     1451.901   -24734.902   -1162.2289    11589.613    77.955969    15.512448    29.957374 
 5183600    226.59154   -265.60028    229018.04   -23274.481    1500.7973   -24775.279   -550.98301     11592.33    77.956149    15.511022    29.959707 
 5183800    223.78441     -401.872    229018.04     -23328.4    1482.2047   -24810.605    -1112.843    11591.538    77.958044    15.510072    29.953735 
 5184000    225.65567    -404.8193    229018.04   -23283.973    1494.5987   -24778.572   -1120.6013    11594.366    77.959001      15.5111    29.971956 
 5184200    223.19415   -303.00912    229018.04   -23281.125    1478.2952    -24759.42   -706.20903    11590.977    77.958339    15.509625     29.96283 
 5184400    227.63846   -438.97264    229018.04   -23264.202    1507.7315   -24771.933   -1267.7409    11593.097    77.957767     15.51008    29.969266 
 5184600    227.77045   -339.78481    229018.04   -23284.623    1508.6057   -24793.228   -820.10689      11589.4    77.959883    15.510727    29.968603 
 5184800    227.07498    -389.9147    229018.04    -23264.14    1503.9994   -24768.139   -1079.4371    11591.245     77.96128    15.512493    29.984074 
 5185000    225.27017   -383.41015    229018.04   -23250.414    1492.0454   -24742.459   -1002.6734    11592.591    77.961672    15.516664    29.975404 
 5185200    222.57138    -488.2247    229018.04   -23272.483    1474.1704   -24746.654   -1477.2987    11591.236    77.963807    15.514748    29.980381 
 5185400    227.16913   -314.71992    229018.04    -23307.36    1504.6229   -24811.983   -769.78186    11592.587    77.964103    15.515738    29.977219 
 5185600    228.52436   -353.43529    229018.04   -23267.383    1513.5991   -24780.982   -914.25347    11589.837    77.966519    15.516097    29.962919 
 5185800    232.65232   -296.51102    229018.04   -23182.768    1540.9401   -24723.708    -686.0374    11593.385    77.968409    15.516398    29.950099 
 5186000    231.37267   -373.91179    229018.04     -23240.7    1532.4645   -24773.164   -1005.4533    11593.367    77.972285    15.515677    29.956365 
 5186200    226.75437   -355.96127    229018.04   -23308.486    1501.8758   -24810.362   -948.44656    11590.955    77.974586     15.51556    29.970457 
 5186400     225.4413    -366.0271    229018.04   -23328.365    1493.1789   -24821.544   -965.67696    11589.602    77.974947    15.517013    29.972997 
 5186600    224.73423   -439.99416    229018.04   -23247.768    1488.4957   -24736.264   -1239.2922    11592.599    77.976787     15.51583    29.971794 
 5186800    227.15183   -321.68802    229018.04   -23263.308    1504.5083   -24767.816   -822.19386    11590.382    77.979861    15.514772    29.970135 
 5187000    224.32032   -472.42686    229018.04   -23254.068    1485.7542   -24739.822     -1365.92    11593.619    77.978491    15.517996    29.970816 
 5187200    225.71388   -361.03367    229018.04   -23278.227    1494.9843   -24773.211   -981.48499    11590.192    77.979797    15.518548    29.959427 
 5187400    225.32141   -265.20212    229018.04   -23250.379    1492.3848   -24742.764    -587.3923    11588.851    77.980637    15.519918     29.95821 
 5187600    221.60708     -451.479    229018.04   -23273.071    1467.7835   -24740.855   -1243.4354    11593.615    77.980396      15.5225    29.954553 
 5187800    225.91537   -322.80768    229018.04   -23259.119    1496.3188   -24755.438   -810.77082    11590.484    77.984185    15.522849    29.952604 
 5188000    225.57571   -347.16974    229018.04   -23252.973    1494.0691   -24747.043   -895.43538    11590.061    77.983897    15.524426    29.949899 
 5188200    229.58258   -396.86302    229018.04   -23242.577    1520.6081   -24763.185   -1052.4164    11593.804    77.985016     15.52446    29.953399 
 5188400    224.15551    -367.0261    229018.04   -23289.494    1484.6627   -24774.157   -949.29183    11593.244    77.984635    15.524246    29.964222 
 5188600     230.1626   -383.35119    229018.04   -23217.365    1524.4498   -24741.815   -1019.9551    11592.124    77.986498    15.522859    29.956924 
 5188800    227.67258   -399.71009    229018.04   -23257.246    1507.9574   -24765.203   -1094.2478    11592.354    77.987094    15.523995    29.948479 
 5189000    226.68226   -453.89222    229018.04   -23255.695    1501.3982   -24757.093   -1321.5187     11594.05    77.986614      15.5259    29.970515 
 5189200    221.93363   -360.56299    229018.04   -23268.964    1469.9463   -24738.911   -925.61948    11592.814    77.987869    15.528655    29.961409 
 5189400    230.09923   -326.11611    229018.04    -23251.34      1524.03    -24775.37   -847.34168    11589.899    77.986047    15.531141    29.966439 
 5189600     221.6773   -325.29877    229018.04   -23251.864    1468.2485   -24720.113   -796.31688    11590.798    77.988293    15.533975    29.971002 
 5189800    227.52437   -392.33634    229018.04   -23277.098    1506.9758   -24784.073   -1051.5784    11592.963    77.987955    15.534365    29.970287 
 5190000    230.37941   -430.83207    229018.04   -23250.522    1525.8858   -24776.408   -1208.1041    11590.785    77.987901    15.536415    29.966939 
 5190200    225.59553   -434.40106    229018.04    -23242.27    1494.2004   -24736.471   -1231.2321    11592.343    77.990809    15.536001     29.95432 
 5190400    225.07977    -312.0247    229018.04   -23261.652    1490.7844   -24752.437   -711.29995    11591.611    77.991216    15.536011    29.962698 
 5190600    233.07331   -398.08884    229018.04   -23242.814    1543.7284   -24786.543   -1144.0996    11590.172    77.993619    15.537354    29.949642 
 5190800    231.74982   -462.06656    229018.04   -23262.202    1534.9625   -24797.165   -1356.4639    11594.123    77.993064    15.539259    29.967632 
 5191000    221.74204   -377.42083    229018.04   -23363.289    1468.6774   -24831.966   -1040.3472    11592.802    77.994499    15.540975    29.970906 
 5191200    226.78052   -397.18735    229018.04   -23296.658     1502.049   -24798.707   -1067.2356    11591.585    77.997705    15.540933    29.971588 
 5191400    231.74791   -397.45074    229018.04   -23257.435    1534.9498   -24792.385   -1040.1376    11592.591    78.000063    15.543081    29.964201 
 5191600    227.69371   -375.90865    229018.04   -23279.695    1508.0974   -24787.792   -1006.1523     11590.44    78.000976    15.543717    29.975771 
 5191800    228.26624   -358.04581    229018.04   -23233.305    1511.8895   -24745.194   -943.20649    11590.839     78.00326    15.543745    29.964185 
 5192000    229.58259   -344.37674    229018.04   -23232.301    1520.6081   -24752.909   -905.14976    11593.619    78.004351     15.54597    29.960729 
 5192200    225.14248    -347.6659    229018.04   -23255.005    1491.1997   -24746.204   -878.68551    11593.279    78.008185     15.54537    29.952176 
 5192400    222.95144   -417.25275    229018.04   -23307.955    1476.6876   -24784.642   -1153.0731    11596.698    78.008217     15.54516    29.949322 
 5192600    224.43404    -352.4343    229018.04   -23305.391    1486.5074   -24791.898    -921.7242    11592.045    78.010929    15.545387    29.953544 
 5192800    224.51346   -445.61361    229018.04   -23237.334    1487.0334   -24724.368   -1274.4074    11590.348    78.011974    15.545226    29.943565 
 5193000    222.32147   -455.60509    229018.04   -23272.524    1472.5151   -24745.039   -1289.0979    11594.242     78.01065    15.545546    29.949813 
 5193200    219.94544   -366.55312    229018.04   -23264.925    1456.7778   -24721.703   -977.30245    11590.727    78.009546     15.54608    29.945887 
 5193400    232.71731   -413.45795    229018.04   -23222.567    1541.3705   -24763.938   -1170.3742    11593.125    78.010467    15.546354    29.952286 
 5193600    225.83448   -413.44297    229018.04   -23279.963    1495.7831   -24775.746   -1150.3041    11591.704    78.010743    15.547247    29.951348 
 5193800    227.83663   -466.59686    229018.04   -23295.085     1509.044   -24804.129   -1352.1114    11593.823    78.013045    15.544301    29.962112 
 5194000    223.78296   -389.51924    229018.04   -23304.186    1482.1951   -24786.382   -1100.0775    11591.007    78.012559    15.542618    29.964491 
 5194200    228.56347    -401.5437    229018.04   -23278.873    1513.8581   -24792.731   -1093.1093    11591.781    78.011753     15.54207    29.972288 
 5194400    226.51192   -456.36356    229018.04   -23272.826      1500.27   -24773.096   -1342.6466    11592.248    78.013109    15.542144     29.95486 
 5194600    224.68464   -367.41042    229018.04   -23315.323    1488.1672   -24803.491   -969.93944     11590.54    78.010394    15.544581     29.96167 
 5194800     222.4747   -321.08587    229018.04   -23334.375      1473.53   -24807.905   -780.88726    11590.345    78.009485    15.544873    29.964071 
 5195000    220.88704   -421.82186    229018.04   -23245.194    1463.0144   -24708.208   -1192.5521     11593.67    78.011445    15.544374    29.954157 
 5195200    224.55916    -391.4666    229018.04   -23304.515    1487.3362   -24791.851   -1026.8852     11593.72    78.013499      15.5439    29.949637 
 5195400    232.24496   -291.17725    229018.04   -23226.747    1538.2419   -24764.989    -668.9154    11593.596    78.012908    15.542855    29.953925 
 5195600    224.11472   -317.74478    229018.04   -23276.384    1484.3925   -24760.776   -764.77568    11592.177    78.012909     15.54205    29.952837 
 5195800    227.89249   -318.92107    229018.04   -23243.985     1509.414   -24753.399   -741.71116      11593.6    78.014272    15.540683    29.947849 
 5196000    231.02457   -298.44211    229018.04   -23232.277    1530.1589   -24762.436   -729.11626     11589.16    78.015403    15.537954     29.95254 
 5196200    228.67389   -467.62911    229018.04   -23198.543    1514.5895   -24713.133   -1361.3219    11592.705    78.016086     15.53759    29.958206 
 5196400    229.54187   -326.66255    229018.04   -23255.271    1520.3384    -24775.61   -818.02453    11589.739    78.016101    15.536227    29.959721 
 5196600    225.66997   -362.42817    229018.04   -23367.471    1494.6935   -24862.164   -976.69637    11590.651    78.019002     15.53506    29.956027 
 5196800    228.66645   -339.76532    229018.04   -23251.536    1514.5402   -24766.077   -872.98816    11589.189    78.019655    15.533186    29.949542 
 5197000    228.30045   -393.13895    229018.04   -23295.272     1512.116   -24807.388   -1066.9455    11591.512    78.019676    15.533966    29.951536 
 5197200    234.32432   -252.57315    229018.04   -23202.412    1552.0143   -24754.427   -505.13629    11589.114    78.019875    15.533684    29.942848 
 5197400    229.91061   -359.97348    229018.04   -23291.592    1522.7807   -24814.373   -928.44954    11588.668    78.020741    15.534474    29.948894 
 5197600    221.37161   -358.73863    229018.04   -23270.388    1466.2239   -24736.612   -899.40804    11589.678    78.020568    15.534198    29.953563 
 5197800    229.39271   -365.72397    229018.04   -23166.249    1519.3505     -24685.6   -959.61188    11590.035    78.020458     15.53477    29.945207 
 5198000    239.92786   -270.60308    229018.04   -23179.124    1589.1286   -24768.253    -582.8043    11587.196    78.022231    15.535011    29.953142 
 5198200    227.66226   -405.79681    229018.04   -23233.063    1507.8891   -24740.952   -1080.3463     11589.12     78.02211    15.535918    29.955538 
 5198400    232.85862   -449.15391    229018.04   -23257.283    1542.3064    -24799.59   -1292.8056    11591.334    78.024191     15.53548    29.949051 
 5198600    228.40714   -286.11246    229018.04    -23311.18    1512.8227   -24824.003   -667.99415    11586.085    78.023729    15.533678    29.950489 
 5198800    225.23169   -431.94007    229018.04   -23321.423    1491.7906   -24813.213   -1181.9223    11590.221    78.026768    15.530757    29.944634 
 5199000    227.14206   -460.56839    229018.04   -23227.747    1504.4436   -24732.191   -1332.7119     11590.18    78.025765    15.530915    29.955538 
 5199200    226.17182   -374.62361    229018.04    -23273.15    1498.0174   -24771.167   -1034.0389    11588.677    78.026948    15.527909    29.963312 
 5199400    227.19469   -324.86675    229018.04   -23298.299    1504.7922   -24803.092    -800.9272     11590.93    78.027804    15.527782    29.944666 
 5199600    231.75367   -420.16861    229018.04   -23253.134    1534.9879   -24788.122   -1144.8555    11590.779    78.029253    15.526817    29.945192 
 5199800    224.00015   -369.03627    229018.04   -23309.963    1483.6336   -24793.596   -986.65294    11587.727    78.029419    15.526057    29.949206 
 5200000    234.77658    -339.2694    229018.04   -23229.859    1555.0098   -24784.869   -824.72477    11590.892    78.028881    15.525655    29.967889 
Loop time of 7819.58 on 64 procs for 5200000 steps with 8943 atoms

Performance: 574.558 ns/day, 0.042 hours/ns, 664.997 timesteps/s
100.0% CPU use with 64 MPI tasks x no OpenMP threads

MPI task timing breakdown:
Section |  min time  |  avg time  |  max time  |%varavg| %total
---------------------------------------------------------------
Pair    | 0.27738    | 1833.8     | 6027.9     |4648.8 | 23.45
Neigh   | 0.7472     | 243.3      | 869.03     |1939.2 |  3.11
Comm    | 19.048     | 2160.8     | 6307.2     |4101.9 | 27.63
Output  | 233.79     | 233.86     | 234.08     |   0.3 |  2.99
Modify  | 149.33     | 3273.8     | 7492.4     |5353.4 | 41.87
Other   |            | 74.03      |            |       |  0.95

Nlocal:    139.734 ave 439 max 0 min
Histogram: 24 11 13 0 0 0 0 0 0 16
Nghost:    819.641 ave 1297 max 0 min
Histogram: 8 0 4 0 0 4 24 0 12 12
Neighs:    0 ave 0 max 0 min
Histogram: 64 0 0 0 0 0 0 0 0 0
FullNghs:  13990.3 ave 53580 max 0 min
Histogram: 40 8 0 0 0 0 0 0 6 10

Total # of neighbors = 895380
Ave neighs/atom = 100.121
Neighbor list builds = 561244
Dangerous builds = 0
write_data 		${DIR}/data.${NAME}_run
write_data 		run_27/data.${NAME}_run
write_data 		run_27/data.ibeam_cooling_27_run
Total wall time: 2:10:34
