
### Dimensions ###


### IMPORT ATOMS ###
read_data ../Box_Setup/data.Ibeam_240K
  orthogonal box = (0 0 0) to (189.989 26.9999 39.8504)
  20 by 2 by 4 MPI processor grid
  reading atoms ...
  8482 atoms
  reading velocities ...
  8482 velocities
group water type 2
2436 atoms in group water
group graphite type 1
6046 atoms in group graphite


# Define potential
#
pair_style          sw
pair_coeff * * MLC_e.sw C mW

# Add velocity/set timestep
#

fix		1 graphite setforce 0.0 0.0 0.0
velocity 	graphite set 0.0 0.0 0.0
velocity            water create ${START_TEMP} ${SEED} rot yes dist gaussian
velocity            water create 240 ${SEED} rot yes dist gaussian
velocity            water create 240 1234 rot yes dist gaussian
timestep            5.0

# Define output
#
compute 1 water msd
compute 2 water temp


thermo	            100
thermo_style custom step c_2 press vol etotal ke pe c_1[4] density

# Neighbor lists
#
neigh_modify        delay 0 every 1 check yes


# Set fixes
#
fix                 2 water momentum 10 linear 1 1 1 rescale
fix                 3 all nve
fix                 4 water temp/csvr ${START_TEMP} ${START_TEMP} 500.0 928347
fix                 4 water temp/csvr 240 ${START_TEMP} 500.0 928347
fix                 4 water temp/csvr 240 240 500.0 928347

# Run 0.05 ns equilibration
#
dump                1 all custom 100 ${DIR}/eq.${NAME}.dump id type x y z vx vy vz
dump                1 all custom 100 run_13/eq.${NAME}.dump id type x y z vx vy vz
dump                1 all custom 100 run_13/eq.ibeam_cooling_13.dump id type x y z vx vy vz
run                 10000
Neighbor list info ...
  update every 1 steps, delay 0 steps, check yes
  max neighbors/atom: 2000, page size: 100000
  master list distance cutoff = 6.67472
  ghost atom cutoff = 6.67472
  binsize = 3.33736, bins = 57 9 12
  1 neighbor lists, perpetual/occasional/extra = 1 0 0
  (1) pair sw, perpetual
      attributes: full, newton on
      pair build: full/bin/atomonly
      stencil: full/bin/3d
      bin: standard
Per MPI rank memory allocation (min/avg/max) = 0.4608 | 3.725 | 4.735 Mbytes
Step c_2 Press Volume TotEng KinEng PotEng c_1[4] Density 
       0          240   -262.64038    204420.41   -23347.773    1741.9854   -25089.758            0   0.94632332 
     100    242.04858   -173.71061    204420.41   -23357.657    1756.8545   -25114.511   0.84470085   0.94632332 
     200    236.47996   -267.17742    204420.41   -23375.081     1716.436   -25091.517    1.2357286   0.94632332 
     300     237.4376   -295.45289    204420.41   -23368.491    1723.3868   -25091.878    1.5855083   0.94632332 
     400    235.93287   -524.47772    204420.41   -23365.109    1712.4651   -25077.574    2.0414536   0.94632332 
     500    237.49284   -553.84732    204420.41   -23336.191    1723.7877   -25059.978    2.4569784   0.94632332 
     600    249.38067   -250.10484    204420.41    -23258.71    1810.0728   -25068.783    2.8954474   0.94632332 
     700    241.22401   -368.03272    204420.41   -23271.974    1750.8696   -25022.844    3.4143087   0.94632332 
     800    243.20625   -147.37147    204420.41   -23252.035    1765.2572   -25017.293    3.7386888   0.94632332 
     900    245.70988   -195.18136    204420.41   -23276.981    1783.4293   -25060.411    4.0451726   0.94632332 
    1000    239.39987   -440.84998    204420.41   -23303.619    1737.6295   -25041.248    4.4991112   0.94632332 
    1100     247.8969   -315.50871    204420.41   -23291.089    1799.3032   -25090.392    4.6389914   0.94632332 
    1200    238.12379   -478.88684    204420.41    -23282.82    1728.3673   -25011.187     5.014627   0.94632332 
    1300    241.01792   -515.20679    204420.41    -23229.88    1749.3737   -24979.254    5.2148789   0.94632332 
    1400    239.47461   -376.66209    204420.41   -23271.139     1738.172   -25009.311    5.5115126   0.94632332 
    1500    237.97736   -306.17256    204420.41   -23300.317    1727.3045   -25027.621    5.7298221   0.94632332 
    1600    241.65072   -378.44837    204420.41   -23289.886    1753.9668   -25043.853    6.1672733   0.94632332 
    1700    237.83096   -242.90393    204420.41   -23314.069    1726.2419   -25040.311    6.3195737   0.94632332 
    1800    240.95584   -22.271869    204420.41   -23289.883    1748.9231   -25038.806    6.8425201   0.94632332 
    1900    243.26503   -377.22224    204420.41   -23249.534    1765.6839   -25015.218    7.2705751   0.94632332 
    2000    242.96758   -307.80828    204420.41   -23229.324    1763.5249   -24992.849    7.7340964   0.94632332 
    2100    241.58755   -471.78017    204420.41   -23331.585    1753.5082   -25085.093    8.0578767   0.94632332 
    2200    239.20106   -607.37108    204420.41   -23304.643    1736.1864   -25040.829    8.4907009   0.94632332 
    2300    242.49822    -329.3054    204420.41   -23280.923    1760.1181   -25041.041    8.5942211   0.94632332 
    2400    241.44072   -252.11499    204420.41   -23281.912    1752.4425   -25034.355    9.0450765   0.94632332 
    2500    237.58905   -318.26279    204420.41   -23315.499    1724.4861   -25039.986    9.4920494   0.94632332 
    2600    237.12452   -385.71793    204420.41   -23315.426    1721.1143    -25036.54    9.8619464   0.94632332 
    2700    243.79103   -264.00616    204420.41   -23308.202    1769.5017   -25077.704    9.9711078   0.94632332 
    2800    241.84706    -255.9928    204420.41   -23249.266    1755.3919   -25004.658    10.384292   0.94632332 
    2900    237.44741   -408.76376    204420.41   -23240.944     1723.458   -24964.402    10.767478   0.94632332 
    3000    245.59377   -350.35737    204420.41   -23233.988    1782.5865   -25016.575    11.032548   0.94632332 
    3100    238.02408   -313.14378    204420.41   -23225.419    1727.6436   -24953.062    11.476019   0.94632332 
    3200    235.70041   -424.62726    204420.41   -23284.356    1710.7778   -24995.134    11.943911   0.94632332 
    3300    234.75907   -374.20313    204420.41   -23375.297    1703.9453   -25079.243    12.269401   0.94632332 
    3400    237.38007   -376.49442    204420.41   -23334.831    1722.9692     -25057.8    12.567427   0.94632332 
    3500    240.52307   -276.18976    204420.41   -23327.812     1745.782   -25073.594    13.011122   0.94632332 
    3600    239.69201   -164.69755    204420.41   -23319.889    1739.7499   -25059.639    13.349038   0.94632332 
    3700    247.79371   -307.59148    204420.41   -23302.946    1798.5543     -25101.5     13.64719   0.94632332 
    3800    242.15504   -312.70442    204420.41   -23299.462    1757.6273   -25057.089     13.87906   0.94632332 
    3900    242.54401   -298.73297    204420.41   -23315.772    1760.4505   -25076.223    14.102461   0.94632332 
    4000    238.61454   -127.53096    204420.41   -23355.748    1731.9293   -25087.678    14.448864   0.94632332 
    4100    238.36189   -146.98229    204420.41   -23346.183    1730.0956   -25076.278    14.635939   0.94632332 
    4200    240.72768   -371.30056    204420.41    -23328.17    1747.2671   -25075.437    14.833002   0.94632332 
    4300    236.71786   -322.68742    204420.41   -23387.872    1718.1627   -25106.034    15.188146   0.94632332 
    4400    237.25783   -112.35806    204420.41   -23333.951     1722.082   -25056.033    15.453402   0.94632332 
    4500    245.18205   -290.15454    204420.41   -23367.255    1779.5981   -25146.853    15.588192   0.94632332 
    4600     234.1316   -367.00177    204420.41   -23422.487    1699.3909   -25121.878    15.741208   0.94632332 
    4700    245.34028   -237.53008    204420.41   -23369.001    1780.7466   -25149.748    15.798508   0.94632332 
    4800    239.19112   -145.20424    204420.41   -23339.718    1736.1143   -25075.832    16.110218   0.94632332 
    4900    241.21323   -337.57604    204420.41   -23292.766    1750.7914   -25043.557     16.46675   0.94632332 
    5000    233.94655   -303.46059    204420.41   -23327.521    1698.0478   -25025.569    16.759492   0.94632332 
    5100    244.02166    -403.6819    204420.41   -23272.844    1771.1757    -25044.02     16.92155   0.94632332 
    5200    239.14151   -210.62521    204420.41   -23299.064    1735.7542   -25034.819    17.279763   0.94632332 
    5300    242.73919   -281.95788    204420.41    -23360.42    1761.8672   -25122.287    17.374201   0.94632332 
    5400    237.59914   -235.52645    204420.41   -23348.547    1724.5593   -25073.106    17.673275   0.94632332 
    5500    237.98516    -273.5159    204420.41    -23348.37    1727.3611   -25075.731    17.875114   0.94632332 
    5600    238.47096   -442.65696    204420.41   -23365.316    1730.8872   -25096.203    18.224606   0.94632332 
    5700    237.84028   -444.52926    204420.41   -23339.736    1726.3096   -25066.045    18.670924   0.94632332 
    5800    237.77118   -452.23282    204420.41   -23310.939     1725.808   -25036.747    19.161792   0.94632332 
    5900    238.22437    -158.5161    204420.41    -23327.61    1729.0974   -25056.707    19.413429   0.94632332 
    6000    234.01949   -406.16667    204420.41   -23339.278    1698.5772   -25037.856    19.788412   0.94632332 
    6100    237.89512   -380.08188    204420.41   -23359.265    1726.7076   -25085.972    20.199136   0.94632332 
    6200     236.9949   -279.23533    204420.41   -23368.691    1720.1736   -25088.864     20.41995   0.94632332 
    6300    239.59262   -187.33825    204420.41   -23291.257    1739.0285   -25030.286    20.704617   0.94632332 
    6400    239.49633   -196.68119    204420.41   -23344.886    1738.3296   -25083.216    21.130127   0.94632332 
    6500    239.88816   -275.04483    204420.41   -23357.401    1741.1736   -25098.574      21.5378   0.94632332 
    6600     236.1274   -295.99342    204420.41   -23368.826     1713.877   -25082.703    22.029644   0.94632332 
    6700    238.47259   -348.36766    204420.41   -23384.064     1730.899   -25114.963    22.603569   0.94632332 
    6800    241.54046   -383.84734    204420.41   -23354.764    1753.1664   -25107.931    22.829992   0.94632332 
    6900    246.76633   -284.45733    204420.41   -23315.103    1791.0973   -25106.201    23.252657   0.94632332 
    7000    235.02097   -197.29062    204420.41   -23313.882    1705.8463   -25019.729    23.596643   0.94632332 
    7100    237.94117   -124.92645    204420.41   -23311.704    1727.0419   -25038.746    23.951184   0.94632332 
    7200    237.96242   -292.32493    204420.41   -23361.411    1727.1961   -25088.608    24.194609   0.94632332 
    7300    235.36973   -241.47781    204420.41   -23400.015    1708.3776   -25108.392    24.191817   0.94632332 
    7400    240.67224   -274.13461    204420.41   -23370.344    1746.8647   -25117.209    24.450503   0.94632332 
    7500    237.89077   -272.15915    204420.41   -23336.416     1726.676   -25063.092    24.912522   0.94632332 
    7600    240.63969    -242.7388    204420.41   -23293.877    1746.6284   -25040.505    25.062094   0.94632332 
    7700    238.66549   -340.34626    204420.41   -23300.194    1732.2991   -25032.493    25.229591   0.94632332 
    7800    231.23774   -414.42669    204420.41    -23367.19    1678.3865   -25045.577    25.861971   0.94632332 
    7900    238.46122    -395.0513    204420.41   -23330.776    1730.8165   -25061.593    26.347869   0.94632332 
    8000    242.09904    -339.8695    204420.41   -23257.843    1757.2208   -25015.064    26.896533   0.94632332 
    8100    244.47107    -83.39407    204420.41   -23254.861    1774.4376   -25029.298     27.35885   0.94632332 
    8200     243.9959   -305.59614    204420.41    -23272.27    1770.9888   -25043.259    27.682625   0.94632332 
    8300    243.37268   -430.94708    204420.41   -23236.088    1766.4652   -25002.553    28.060836   0.94632332 
    8400    248.53508   -365.88674    204420.41   -23234.052    1803.9353   -25037.988    28.126818   0.94632332 
    8500    238.43285   -399.94268    204420.41   -23274.253    1730.6106   -25004.864    28.316958   0.94632332 
    8600     242.1408    -259.0791    204420.41   -23276.778    1757.5239   -25034.302    28.468323   0.94632332 
    8700    240.46761   -346.24576    204420.41   -23295.398    1745.3794   -25040.777    28.761939   0.94632332 
    8800    238.90524   -345.02884    204420.41   -23314.252    1734.0393   -25048.292    29.055618   0.94632332 
    8900    235.92128   -228.48043    204420.41   -23341.191    1712.3809   -25053.572     29.62122   0.94632332 
    9000    240.28939   -325.40175    204420.41    -23296.26    1744.0859   -25040.346     30.13728   0.94632332 
    9100    237.64019   -345.56157    204420.41   -23308.296    1724.8572   -25033.154    30.349707   0.94632332 
    9200    245.73714   -410.06511    204420.41   -23252.641    1783.6271   -25036.269    30.904791   0.94632332 
    9300    237.04894   -381.70211    204420.41   -23330.785    1720.5658    -25051.35    31.296588   0.94632332 
    9400    242.88918   -337.80309    204420.41   -23306.592    1762.9559   -25069.548    31.442299   0.94632332 
    9500    236.56741   -225.11032    204420.41   -23365.165    1717.0707   -25082.236    31.685008   0.94632332 
    9600    238.76568   -295.52682    204420.41   -23384.229    1733.0264   -25117.255    32.017518   0.94632332 
    9700    240.98656     -401.283    204420.41   -23348.472    1749.1461   -25097.618      32.1015   0.94632332 
    9800     242.3783    -338.8609    204420.41   -23292.638    1759.2477   -25051.886    32.593804   0.94632332 
    9900    238.01974   -185.64563    204420.41   -23313.506    1727.6121   -25041.118    33.106328   0.94632332 
   10000    242.22933   -276.16428    204420.41   -23331.416    1758.1665   -25089.583    33.354621   0.94632332 
Loop time of 13.6317 on 160 procs for 10000 steps with 8482 atoms

Performance: 316.909 ns/day, 0.076 hours/ns, 733.586 timesteps/s
97.8% CPU use with 160 MPI tasks x no OpenMP threads

MPI task timing breakdown:
Section |  min time  |  avg time  |  max time  |%varavg| %total
---------------------------------------------------------------
Pair    | 0.00044513 | 3.2993     | 11.041     | 217.9 | 24.20
Neigh   | 0.00036693 | 0.093171   | 0.35653    |  35.5 |  0.68
Comm    | 0.011986   | 3.3284     | 11.345     | 207.2 | 24.42
Output  | 0.17748    | 0.17765    | 0.18459    |   0.1 |  1.30
Modify  | 0.65429    | 6.5622     | 13.272     | 219.0 | 48.14
Other   |            | 0.171      |            |       |  1.25

Nlocal:    53.0125 ave 164 max 0 min
Histogram: 61 6 51 2 0 0 0 5 5 30
Nghost:    543.15 ave 898 max 0 min
Histogram: 20 0 4 0 7 50 19 8 36 16
Neighs:    0 ave 0 max 0 min
Histogram: 160 0 0 0 0 0 0 0 0 0
FullNghs:  5312.21 ave 20680 max 0 min
Histogram: 88 32 0 0 0 0 0 7 15 18

Total # of neighbors = 849954
Ave neighs/atom = 100.207
Neighbor list builds = 573
Dangerous builds = 0
write_data 	    ${DIR}/data.${NAME}_eq
write_data 	    run_13/data.${NAME}_eq
write_data 	    run_13/data.ibeam_cooling_13_eq

undump              1
unfix               4



################################################
#######         Run Simulation         #########
################################################

reset_timestep      0
timestep	    10.0
log                 ${DIR}/log.run_${NAME}
log                 run_13/log.run_${NAME}
log                 run_13/log.run_ibeam_cooling_13
