
# Set production fixes - Nose/Hoover
#
fix                 4 water temp/csvr ${START_TEMP} ${END_TEMP} 500.0 928347
fix                 4 water temp/csvr 240 ${END_TEMP} 500.0 928347
fix                 4 water temp/csvr 240 227 500.0 928347


## divide "droplet" into core and surface
#region		core_reg cylinder z 135 135 44.6 20 INF units box
#region		surface_reg cylinder z 135 135 44.6 20 INF units box side out
#group		core dynamic all region core_reg
#group		surface dynamic all region surface_reg

## compute pressure core
#compute        peratom_core core stress/atom NULL
#compute        p_core core reduce sum c_peratom_core[1] c_peratom_core[2] c_peratom_core[3]
#variable       press_core equal -(c_p_core[1]+c_p_core[2]+c_p_core[3])/(3*1249982.5)


## compute pressure surface
#compute        peratom_surf surface stress/atom NULL
#compute        p_surf surface reduce sum c_peratom_surf[1] c_peratom_surf[2] #c_peratom_surf[3]
#variable       press_surf equal -(c_p_surf[1]+c_p_surf[2]+c_p_surf[3])/(3*42395)

## compute total pressure of drop
compute        peratom water stress/atom NULL
compute        p water reduce sum c_peratom[1] c_peratom[2] c_peratom[3]
variable       press equal -(c_p[1]+c_p[2]+c_p[3])/(3*58301)


# compute order parameter
compute        3 all orientorder/atom nnn NULL cutoff 3.5

# compute center of mass of bridge
compute 	4 water com

# Run simulation
thermo_style        custom step c_2 press vol etotal ke pe v_press c_1[4] c_4[*]
thermo              200
dump		     1 water custom 400 ${DIR}/prod.${NAME}.dump id type x y z vx vy vz c_3[*] c_peratom[*]
dump		     1 water custom 400 run_13/prod.${NAME}.dump id type x y z vx vy vz c_3[*] c_peratom[*]
dump		     1 water custom 400 run_13/prod.ibeam_cooling_13.dump id type x y z vx vy vz c_3[*] c_peratom[*]
run                 ${STEPS}
run                 5200000
Neighbor list info ...
  update every 1 steps, delay 0 steps, check yes
  max neighbors/atom: 2000, page size: 100000
  master list distance cutoff = 6.67472
  ghost atom cutoff = 6.67472
  binsize = 3.33736, bins = 57 9 12
  2 neighbor lists, perpetual/occasional/extra = 1 1 0
  (1) pair sw, perpetual
      attributes: full, newton on
      pair build: full/bin/atomonly
      stencil: full/bin/3d
      bin: standard
  (2) compute orientorder/atom, occasional, copy from (1)
      attributes: full, newton on
      pair build: copy
      stencil: none
      bin: none
Per MPI rank memory allocation (min/avg/max) = 0.8516 | 6.02 | 7.259 Mbytes
Step c_2 Press Volume TotEng KinEng PotEng v_press c_1[4] c_4[1] c_4[2] c_4[3] 
       0    242.22933   -276.16428    204420.41   -23331.416    1758.1665   -25089.583   -437.04165    33.354621    95.095913    14.535875    27.959756 
     200    238.05718   -202.55266    204420.41   -23388.661    1727.8839   -25116.545   -232.26677    34.647642    95.095459    14.534935    27.954836 
     400     240.1399   -311.37076    204420.41   -23348.883    1743.0009   -25091.884   -561.81045    35.991701    95.095453    14.535782    27.957645 
     600    242.09702   -468.31081    204420.41   -23208.203    1757.2061   -24965.409   -1095.6933    37.508705    95.096356    14.534376    27.960164 
     800    244.20066   -277.91788    204420.41   -23242.804    1772.4749   -25015.279   -473.77438    38.048992    95.098142    14.532983    27.958356 
    1000    241.71259   -347.85393    204420.41   -23300.375    1754.4158   -25054.791   -666.35493    39.582744     95.09678    14.532492    27.965072 
    1200    237.94151   -417.86116    204420.41   -23253.311    1727.0443   -24980.355    -936.2917     40.97384    95.098794    14.532993    27.950647 
    1400    237.07623   -364.35172    204420.41   -23244.989    1720.7639   -24965.753   -805.37958     42.72474    95.099522    14.533182    27.936543 
    1600    242.23171   -435.45959    204420.41    -23251.13    1758.1838   -25009.314    -990.2697    44.034315    95.098958    14.534051    27.929133 
    1800      251.729   -233.56927    204420.41   -23207.692    1827.1177    -25034.81   -297.04044    45.177076    95.098441    14.535384    27.934881 
    2000    247.39126   -457.19555    204420.41    -23155.77    1795.6332   -24951.403   -1054.6202    47.167938    95.099177    14.537851     27.93594 
    2200     240.1936   -255.57588    204420.41   -23214.176    1743.3906   -24957.567    -345.6624    49.663461    95.099385    14.536076    27.924067 
    2400    242.09034   -385.51502    204420.41    -23183.41    1757.1577   -24940.567   -825.79148    50.210089    95.098813    14.535027    27.916042 
    2600    239.10105   -272.55156    204420.41   -23256.187    1735.4606   -24991.648   -405.07285     51.82124    95.099158    14.535042    27.928554 
    2800    252.93016   -324.93521    204420.41   -23205.433     1835.836   -25041.269   -623.52501    53.178903      95.0998     14.53332    27.929578 
    3000    244.42595   -410.93795    204420.41   -23194.163    1774.1101   -24968.273   -881.11982    55.342527    95.100995    14.532357    27.938492 
    3200    240.87395   -239.39738    204420.41   -23263.348    1748.3287   -25011.677   -330.89147    56.796312     95.10158    14.530401     27.92845 
    3400    239.83034   -453.43487    204420.41    -23262.51     1740.754   -25003.264   -1089.2229    58.573788    95.100688     14.52927    27.939443 
    3600     239.1045   -338.36857    204420.41   -23237.851    1735.4856   -24973.337   -663.84202    60.519572    95.100267     14.53032    27.943256 
    3800    242.64202   -283.25565    204420.41   -23172.838    1761.1619       -24934    -455.6793    63.028043    95.101156    14.533973    27.933817 
    4000    244.98404    -583.2488    204420.41    -23252.12    1778.1609   -25030.281   -1512.7371    64.644161    95.101109    14.534191    27.942557 
    4200    243.35482   -319.26774    204420.41   -23222.033    1766.3356   -24988.369   -551.92554    66.558658    95.101305    14.538893    27.956926 
    4400    240.62239   -435.79307    204420.41   -23251.486    1746.5029   -24997.989    -994.9811    67.780864    95.100655    14.540053    27.947043 
    4600    236.41657   -147.38126    204420.41   -23335.834    1715.9759    -25051.81   0.95397659    69.132269    95.101922    14.539136     27.97235 
    4800    239.69185   -158.06955    204420.41   -23202.943    1739.7487   -24942.691    -6.420488    70.758535    95.102674    14.537654    27.957847 
    5000    234.68794     -330.788    204420.41   -23255.738     1703.429   -24959.167   -614.34082    72.101171    95.100641    14.540131    27.946888 
    5200    242.65687   -286.94007    204420.41   -23258.647    1761.2697   -25019.917   -467.11843    73.222896    95.099411    14.541729    27.919048 
    5400    236.67488   -155.40014    204420.41    -23281.97    1717.8508   -24999.821    23.115599    75.617458      95.0985    14.545709     27.93304 
    5600    240.59029   -345.42871    204420.41   -23300.146    1746.2699   -25046.416   -669.28292    77.763134    95.096421    14.546784    27.945351 
    5800    245.38994   -327.09808    204420.41    -23251.92     1781.107   -25033.027    -603.0048    78.810264    95.094329    14.546515    27.944788 
    6000    238.28458   -422.67143    204420.41   -23316.052    1729.5344   -25045.587   -936.43264    80.180538    95.093244    14.543905    27.961782 
    6200    238.72088   -404.21371    204420.41    -23293.42    1732.7012   -25026.121   -845.61903    81.759339    95.094243    14.545532    27.955851 
    6400    232.26834   -196.72229    204420.41   -23239.444    1685.8669   -24925.311   -146.04059    83.198937    95.094282    14.547186    27.964381 
    6600    234.14402   -148.85749    204420.41   -23268.724    1699.4811   -24968.205   -5.6550587    83.776891     95.09675    14.549513    27.986165 
    6800    238.13691    -359.7343    204420.41   -23276.191    1728.4626   -25004.654   -714.11723    84.402173    95.097231    14.552704    27.993977 
    7000    234.09087   -376.11523    204420.41   -23254.459    1699.0953   -24953.554   -808.24442    86.179978    95.096657    14.555907     27.99266 
    7200    238.66135    -396.7814    204420.41   -23373.374    1732.2691   -25105.643     -901.353    87.779467    95.096777    14.558312    27.995348 
    7400    233.96594   -276.72648    204420.41   -23323.676    1698.1886   -25021.864   -420.37133    88.493142    95.097403    14.559848    27.973742 
    7600    246.93608   -187.67156    204420.41   -23240.948    1792.3294   -25033.277   -175.36947    89.903024    95.097836    14.558277    27.965229 
    7800    229.58039   -447.06598    204420.41   -23348.233     1666.357    -25014.59   -1066.5149    89.861144     95.09687    14.559093    27.973494 
    8000    243.24069   -80.175542    204420.41   -23191.694    1765.5072   -24957.201    243.44474    92.173525    95.095617    14.560733    27.945894 
    8200    237.55835   -314.74694    204420.41   -23205.086    1724.2633   -24929.349   -573.49162    93.560366    95.092895    14.564229    27.931277 
    8400    238.43646   -374.97766    204420.41   -23125.358    1730.6368   -24855.995   -778.87979    96.076001    95.092197     14.56391    27.904842 
    8600    237.12169   -117.06252    204420.41   -23183.359    1721.0938   -24904.452    122.50103    96.231721    95.093981    14.563043    27.888095 
    8800    236.24382   -377.75743    204420.41   -23203.411     1714.722   -24918.133   -771.19642     98.64807    95.092915    14.562344    27.899187 
    9000    237.95863    -306.3054    204420.41   -23192.898    1727.1686   -24920.067   -503.46479    100.51754    95.092131    14.565576    27.906592 
    9200    242.93728   -169.45002    204420.41   -23193.351     1763.305   -24956.656   -89.087931    101.43335    95.090973    14.566611    27.899484 
    9400    236.91837   -364.86052    204420.41   -23222.566    1719.6181   -24942.184   -712.84367    103.86979    95.091783    14.566265    27.905247 
    9600    234.80632   -307.56163    204420.41   -23258.973    1704.2882   -24963.261   -542.44385    104.39196    95.089654    14.566952     27.89711 
    9800    247.23146   -232.67788    204420.41   -23159.316    1794.4733   -24953.789   -312.01638    106.44586    95.087351    14.566472    27.886651 
   10000     242.1796   -363.36034    204420.41   -23229.668    1757.8056   -24987.473   -750.56675    108.59056    95.088372    14.564357    27.884789 
   10200    245.18273   -271.68378    204420.41   -23141.092     1779.603   -24920.695   -414.80121    110.69081    95.089685    14.564887     27.88951 
   10400    242.22535   -265.97151    204420.41   -23156.884    1758.1376   -24915.022   -413.16035    112.16652    95.089016    14.566199    27.885561 
   10600    238.88823    -7.402879    204420.41   -23217.505    1733.9158   -24951.421    522.59995    114.37781    95.091498    14.568328    27.879872 
   10800    234.21475   -354.81991    204420.41   -23262.012    1699.9945   -24962.007   -713.15034    118.59973    95.091523    14.571119    27.888116 
   11000    240.49647   -429.02062    204420.41   -23274.968    1745.5889   -25020.557   -951.84682    119.85014    95.092209     14.57361     27.88488 
   11200    238.01056   -342.51615    204420.41   -23254.102    1727.5455   -24981.648   -659.01543    120.11284    95.092317    14.573945    27.885796 
   11400    235.31088   -252.34796    204420.41   -23220.362    1707.9505   -24928.313   -366.75419    122.00948    95.093415     14.57324    27.882518 
   11600    243.10842   -514.86616    204420.41   -23175.203    1764.5472    -24939.75   -1244.8371    123.38955    95.094193    14.573698    27.878574 
   11800    244.69756   -328.49997    204420.41   -23173.707    1776.0816   -24949.789   -619.73841    125.20617    95.094396     14.57173     27.88353 
   12000    243.40512   -432.44377    204420.41   -23170.169    1766.7007   -24936.869   -980.50855    125.94452    95.094886    14.571929    27.872229 
   12200    248.56436   -224.13373    204420.41     -23214.2    1804.1478   -25018.347   -250.29176    127.37759    95.094439    14.575529    27.873456 
   12400    240.40967     -350.082    204420.41   -23216.936    1744.9589   -24961.895   -713.76604    128.99637    95.095254     14.58105    27.879913 
   12600    237.64714   -484.82672    204420.41   -23129.286    1724.9077   -24854.194   -1206.7849    130.19005    95.095164     14.58356    27.886602 
   12800     238.6231   -310.28241    204420.41   -23159.502    1731.9915   -24891.493   -556.32017    131.41839     95.09576    14.584654    27.881395 
   13000    239.69507   -195.28139    204420.41    -23198.78    1739.7721   -24938.552    -156.2833    132.14232    95.094841    14.586062    27.890599 
   13200    236.26347   -282.82062    204420.41   -23264.296    1714.8646   -24979.161    -464.8924    133.64254    95.092385    14.586758    27.893973 
   13400    231.98479   -385.49775    204420.41   -23315.847    1683.8089   -24999.656   -798.36265    134.73393     95.09223    14.588333    27.885479 
   13600    237.80558   -496.79176    204420.41   -23236.085    1726.0577   -24962.143   -1202.8947    136.89711    95.092505    14.589254    27.868048 
   13800     236.3623   -405.69271    204420.41   -23181.401     1715.582   -24896.983    -868.6204    138.64013    95.091244    14.589485    27.848459 
   14000    249.82434   -414.57107    204420.41    -23106.41    1813.2931   -24919.703   -894.45987    139.82975    95.089384    14.587838    27.837406 
   14200     243.5636   -376.10405    204420.41   -23156.656     1767.851   -24924.507    -780.0541    140.57636    95.087415    14.587888    27.827931 
   14400    240.60382   -456.99242    204420.41   -23230.827    1746.3681   -24977.195   -1126.0019    141.68364    95.087986    14.589865    27.839191 
   14600    243.17655    -223.9663    204420.41   -23205.148    1765.0417    -24970.19   -235.59167    142.40339    95.087857    14.585413    27.820295 
   14800    241.17866   -524.42486    204420.41   -23155.435    1750.5404   -24905.975    -1263.709    143.20271    95.088728    14.581671    27.830159 
   15000    240.02842   -170.88261    204420.41   -23204.378    1742.1917    -24946.57    -61.51272    145.27163    95.090295    14.581473    27.852419 
   15200    235.01828   -460.98523    204420.41   -23186.274    1705.8267     -24892.1   -1084.2947    145.95181    95.090786    14.584227    27.849302 
   15400    237.94065   -301.32717    204420.41   -23234.061    1727.0381   -24961.099   -509.27034    148.11694    95.091755    14.587467    27.867586 
   15600    248.40474   -328.58571    204420.41   -23106.973    1802.9893   -24909.962   -640.43548    150.15312    95.092643    14.586738    27.870393 
   15800    242.42737   -519.83923    204420.41   -23168.428    1759.6039   -24928.032   -1272.0967     151.4256     95.09281     14.58681    27.865965 
   16000    240.05639   -548.26401    204420.41   -23200.556    1742.3947   -24942.951   -1414.3878    152.20996    95.092804    14.586159    27.868581 
   16200    241.44074   -414.80994    204420.41   -23166.418    1752.4427   -24918.861     -935.595    153.41625    95.094088    14.584506    27.883397 
   16400    241.57599   -318.45159    204420.41   -23238.314    1753.4243   -24991.738   -592.22684    155.12274     95.09543    14.587341    27.876201 
   16600    243.03074   -267.22507    204420.41   -23174.863    1763.9833   -24938.847   -387.31588    157.85734     95.09534    14.589489    27.892571 
   16800     235.8345   -161.39233    204420.41   -23196.869    1711.7511    -24908.62   -107.14243    158.61455    95.093274    14.590969    27.890849 
   17000    240.86753   -609.34035    204420.41   -23250.767    1748.2821   -24999.049   -1600.8699    159.95854    95.093463    14.589102    27.899642 
   17200    240.35525   -487.02856    204420.41   -23236.932    1744.5639   -24981.495    -1175.315    159.14452    95.094875    14.589142    27.906493 
   17400    237.66784   -261.72166    204420.41   -23310.158     1725.058   -25035.216   -338.44238    160.06356    95.093305    14.588813    27.883057 
   17600    234.37768   -328.24694    204420.41   -23217.334    1701.1771   -24918.512   -594.94876    162.07223    95.093241    14.588287     27.87872 
   17800     241.2729   -237.18253    204420.41   -23239.433    1751.2245   -24990.658   -321.02579    163.83507    95.093052    14.589811    27.875176 
   18000    240.64608   -338.55643    204420.41   -23194.966    1746.6748   -24941.641   -671.74815    165.43034    95.094172    14.592028     27.86304 
   18200    230.24244   -390.38137    204420.41   -23241.953    1671.1624   -24913.116   -825.00754    166.57068    95.093981    14.590857    27.875879 
   18400    242.26393   -193.97268    204420.41   -23196.655    1758.4176   -24955.073   -157.84696     167.0456    95.093538    14.592066    27.877805 
   18600    234.74983   -392.36029    204420.41   -23161.886    1703.8782   -24865.765   -883.58266    169.23451    95.092595    14.594269    27.864242 
   18800    242.14682    -569.0909    204420.41   -23195.302    1757.5676   -24952.869   -1470.5444     171.3172     95.09251    14.596844    27.871547 
   19000    245.29401   -271.17973    204420.41    -23138.42    1780.4107    -24918.83   -430.73701    174.39526    95.092736    14.596067     27.87615 
   19200    243.41827   -256.14563    204420.41   -23142.346    1766.7961   -24909.142   -390.67369    177.11389    95.091723    14.594937    27.878844 
   19400    247.04838   -481.39429    204420.41   -23097.068    1793.1445   -24890.213   -1143.4219    179.07298    95.091266    14.593116    27.906311 
   19600    242.69758   -245.08798    204420.41   -23124.376    1761.5652   -24885.941   -337.51127    180.06866    95.090552    14.597159    27.933748 
   19800    241.70768   -378.82315    204420.41   -23138.786    1754.3802   -24893.166   -761.30763    181.30058    95.090623    14.598908    27.912541 
   20000    248.61042   -443.13973    204420.41   -23145.102    1804.4822   -24949.584   -1026.4258     182.2216    95.089473    14.599893    27.907873 
   20200    235.61767   -350.47438    204420.41   -23250.914    1710.1772   -24961.091   -687.76517    183.04046    95.090755    14.601107    27.906987 
   20400    241.46965   -288.51586    204420.41   -23133.466    1752.6525   -24886.119   -476.39714    184.47384    95.090162    14.600477    27.891153 
   20600    234.10788   -314.77928    204420.41   -23225.163    1699.2188   -24924.382   -511.09416    186.05825    95.089526    14.602213    27.906893 
   20800    240.86885   -306.54279    204420.41   -23157.546    1748.2917   -24905.838   -565.63956     185.9858     95.09115    14.601879    27.906259 
   21000    240.26867   -227.35887    204420.41   -23198.662    1743.9355   -24942.598   -274.26224    186.07107    95.091225    14.599869    27.918369 
   21200    242.72349   -503.82289    204420.41   -23185.074    1761.7532   -24946.827   -1232.2437    187.79683    95.090538    14.599624     27.91034 
   21400    244.15029   -395.73591    204420.41   -23172.528    1772.1093   -24944.637   -870.09375    189.02208    95.090166    14.599667    27.907806 
   21600    245.05131   -324.62013    204420.41   -23083.978    1778.6492   -24862.628   -601.58173    190.13484    95.091718    14.600016    27.921286 
   21800    241.23384   -459.68066    204420.41   -23221.156     1750.941   -24972.097   -1064.7776     189.6629    95.091372    14.598348    27.923284 
   22000    234.53519    -113.3451    204420.41   -23271.875    1702.3203   -24974.196    153.97028     190.7717    95.090099    14.597978    27.918153 
   22200    229.00695   -458.04384    204420.41   -23288.061    1662.1948   -24950.256   -1097.2945    193.14083     95.09087    14.598003    27.908754 
   22400     244.6454   -436.29318    204420.41   -23133.286     1775.703   -24908.989   -937.89444    193.68508    95.090063    14.596661    27.911588 
   22600    240.06405   -409.02165    204420.41   -23208.937    1742.4503   -24951.387   -873.94123    194.87702     95.08924    14.592766    27.895679 
   22800    245.41881   -572.97039    204420.41    -23212.93    1781.3166   -24994.247   -1509.2919     196.2498    95.087751    14.593895    27.908279 
   23000    231.76457   -391.76694    204420.41   -23302.529    1682.2104    -24984.74   -815.53351    197.80447    95.086172    14.592926    27.888177 
   23200    238.31998   -132.11551    204420.41   -23177.935    1729.7914   -24907.727     48.54321    198.90649    95.085307    14.588816    27.872069 
   23400     242.0678   -313.51621    204420.41   -23209.785     1756.994   -24966.779   -563.12866     201.5009    95.084661    14.586886    27.849507 
   23600    243.45599    -479.0123    204420.41   -23117.319    1767.0699   -24884.389   -1170.9964    203.66647    95.082361    14.585285    27.853032 
   23800    239.10811    -198.4121    204420.41   -23128.496    1735.5118   -24864.008   -151.92832    204.41838    95.081288    14.582814    27.824799 
   24000    237.46481   -266.05716    204420.41   -23191.748    1723.5843   -24915.332   -393.54364    206.38927    95.081781    14.583256    27.821063 
   24200    239.78383   -501.99285    204420.41   -23198.539    1740.4163   -24938.955   -1242.6789    208.62758    95.081159    14.582538     27.82307 
   24400    241.10062   -290.26487    204420.41   -23248.096     1749.974    -24998.07   -484.23243    209.14673    95.080883    14.579548    27.834439 
   24600    232.32249    -381.9442    204420.41   -23270.565      1686.26   -24956.825   -843.13979    211.34565    95.082375    14.579121    27.866528 
   24800     237.2098   -262.45593    204420.41    -23250.33    1721.7334   -24972.063   -404.87685    212.84397    95.082852    14.578187    27.839955 
   25000    237.29774   -207.74792    204420.41   -23263.663    1722.3717   -24986.034   -186.38108    212.31648    95.083382    14.575503    27.860204 
   25200    235.64619   -422.24127    204420.41   -23361.001    1710.3842   -25071.385   -903.10295     213.7955    95.084209    14.575157    27.855907 
   25400    236.38019   -471.50941    204420.41   -23184.863    1715.7118   -24900.575   -1156.1372    216.19043     95.08339    14.574749    27.857443 
   25600    247.93989    -497.0869    204420.41   -23057.344    1799.6153   -24856.959   -1202.8922      218.934    95.082373    14.571937    27.869618 
   25800    246.73767   -133.47976    204420.41   -23154.553    1790.8892   -24945.442    62.887562    219.99815     95.08258    14.570809    27.845118 
   26000    243.92421   -464.73229    204420.41   -23235.214    1770.4684   -25005.682   -1104.0513    221.01251    95.082528    14.568192     27.84603 
   26200    234.78968   -460.23848    204420.41   -23205.242    1704.1674   -24909.409   -1121.5055     223.5884     95.08141    14.564898    27.865994 
   26400    239.56777   -347.64451    204420.41   -23260.362    1738.8481    -24999.21   -688.51548    224.30137    95.081819    14.566431     27.88483 
   26600     238.6053   -252.64034    204420.41    -23176.12    1731.8623   -24907.983   -372.09232    225.64104    95.083942    14.566658    27.907586 
   26800    246.15863   -389.77367    204420.41   -23216.529    1786.6864   -25003.215   -797.31985    225.98906    95.083109    14.567244    27.896451 
   27000    247.00889   -336.25154    204420.41   -23180.086    1792.8578   -24972.944   -643.73074    228.19759    95.083986    14.569026    27.890408 
   27200    240.73122   -463.23022    204420.41   -23211.244    1747.2928   -24958.537    -1082.329    230.54413    95.082142    14.571555    27.921494 
   27400     234.9544   -219.36742    204420.41   -23118.762     1705.363   -24824.126   -292.77752     231.3721    95.080765     14.57426    27.913822 
   27600    237.78847   -387.84193    204420.41   -23255.338    1725.9335   -24981.271   -811.42696    234.00501    95.081237    14.574141     27.90962 
   27800    241.93729   -406.89922    204420.41    -23149.14    1756.0468   -24905.187   -893.29622    235.40036    95.080607    14.573407    27.914724 
   28000    235.06859   -392.15185    204420.41   -23268.035    1706.1918   -24974.226   -846.42541    238.53384    95.079457    14.576057    27.921709 
   28200    238.11465     -218.531    204420.41   -23213.283     1728.301   -24941.584   -254.52392    239.76774    95.078048     14.57797    27.916471 
   28400    238.85755    -303.3991    204420.41   -23197.857    1733.6932    -24931.55   -536.95554    241.34802    95.077653    14.579184     27.93197 
   28600    246.06116   -350.09897    204420.41   -23205.323    1785.9789   -24991.302   -696.72567    242.20737    95.078334    14.578244    27.948213 
   28800    239.20668   -230.57045    204420.41    -23224.33    1736.2273   -24960.557   -264.56204     242.9139    95.077344    14.577999    27.930859 
   29000    242.99709   -598.37476    204420.41   -23185.709    1763.7391   -24949.448   -1592.7111    245.39739    95.077329    14.576747    27.920896 
   29200    243.49806   -147.79183    204420.41   -23145.727    1767.3753   -24913.103    14.980014    245.29874    95.077514    14.575104    27.919285 
   29400    245.04345   -215.16394    204420.41   -23196.947    1778.5921   -24975.539   -220.13507     244.1679    95.076196    14.575811     27.89296 
   29600    240.41761   -429.26202    204420.41   -23232.147    1745.0165   -24977.164   -991.15553     245.4955     95.07615    14.577446    27.905649 
   29800     237.4228    -210.2927    204420.41   -23319.678    1723.2794   -25042.958   -215.54223    246.28945    95.078033    14.575678    27.902851 
   30000    233.40787   -349.59741    204420.41   -23364.185    1694.1379   -25058.323   -692.17939    247.82198    95.081135    14.574551    27.890866 
   30200    239.36958   -383.68583    204420.41   -23299.515    1737.4096   -25036.925   -808.91912    249.35892    95.082034    14.575723    27.906529 
   30400    240.04693   -322.88025    204420.41   -23268.215     1742.326   -25010.541   -592.72093    251.14548    95.078981    14.577233    27.912113 
   30600    234.66009   -379.56277    204420.41   -23315.258    1703.2269   -25018.485   -800.18805    253.54194    95.078613    14.579874    27.911345 
   30800    238.02651   -312.94713    204420.41   -23233.269    1727.6612    -24960.93   -559.85626    255.79655     95.07882    14.580323    27.919076 
   31000    241.69327   -159.65267    204420.41   -23236.631    1754.2756   -24990.906   -80.673538    256.45662    95.078766    14.581854    27.921846 
   31200    235.88807    -396.3551    204420.41   -23215.946    1712.1399   -24928.086   -888.60265    258.16005    95.079679    14.584041    27.931261 
   31400    239.84058    -447.2889    204420.41   -23192.012    1740.8283    -24932.84    -1063.933    261.54799    95.080804    14.584677    27.922007 
   31600    236.00288   -319.02265    204420.41   -23256.895    1712.9732   -24969.868   -580.27866    263.08854    95.082033    14.582753    27.944556 
   31800    238.58865   -269.13301    204420.41   -23185.999    1731.7414    -24917.74   -384.70453    263.84541    95.082995    14.583383    27.953045 
   32000    241.60034   -421.23138    204420.41   -23252.237    1753.6011   -25005.838   -966.71247    264.45903    95.084011    14.583434    27.948142 
   32200    237.44117   -305.95819    204420.41   -23275.613    1723.4127   -24999.025   -531.66473    265.56761    95.083076    14.583041    27.937526 
   32400    238.31678   -507.99495    204420.41   -23260.561    1729.7682   -24990.329   -1245.4066    268.14025     95.08291     14.58333    27.924771 
   32600    240.77411   -181.28437    204420.41   -23191.093    1747.6041   -24938.697    -91.63112    268.27972    95.084707     14.58213    27.918968 
   32800    242.02376   -435.76672    204420.41   -23190.674    1756.6744   -24947.349   -1003.6499    270.16657     95.08456     14.58197     27.91591 
   33000      246.737   -150.93002    204420.41   -23184.617    1790.8844   -24975.502    22.903057    270.49451    95.086541    14.581058    27.922273 
   33200    232.94528    -335.0584    204420.41   -23232.599    1690.7803   -24923.379   -672.89195     270.7469    95.087048    14.580572    27.919152 
   33400    236.95293   -194.14008    204420.41   -23268.155    1719.8689   -24988.024   -162.56339    271.12232    95.087639    14.577793    27.900788 
   33600    234.44596   -437.13727    204420.41   -23275.126    1701.6727   -24976.799   -1011.5681    272.47248    95.087112    14.576828    27.909298 
   33800    242.99281   -271.37468    204420.41   -23078.265    1763.7081   -24841.973   -386.73932    273.75583     95.08466    14.580428     27.92304 
   34000    236.03697     -198.667    204420.41   -23156.586    1713.2206   -24869.806   -204.14923     275.1389    95.084751    14.579746    27.921059 
   34200    243.11977   -384.73375    204420.41   -23158.988    1764.6296   -24923.618   -812.47684    276.65249    95.085187    14.580737    27.911776 
   34400    238.00681   -408.75856    204420.41   -23206.123    1727.5183   -24933.641   -893.63483    276.59305    95.082989    14.582385    27.905568 
   34600    245.16485   -356.65313    204420.41   -23099.656    1779.4733   -24879.129    -729.7151    276.22762    95.081415    14.579731    27.898573 
   34800    238.36911   -274.82395    204420.41    -23205.19     1730.148   -24935.338    -407.5957    276.77577    95.081812    14.578363     27.91592 
   35000    231.65747   -411.68287    204420.41   -23220.194     1681.433   -24901.627   -892.41622    279.08224    95.080887    14.576206    27.901634 
   35200     244.9382   -302.69266    204420.41   -23154.368    1777.8282   -24932.196   -562.64007    279.09381     95.07953    14.572181    27.881812 
   35400    241.88603   -498.44544    204420.41    -23169.53    1755.6747   -24925.205   -1233.5206    280.67691    95.080206     14.56853    27.870008 
   35600    235.22094   -416.76312    204420.41   -23186.449    1707.2977   -24893.746   -907.69867    281.94261    95.080355    14.567818    27.868086 
   35800    247.50932   -178.83305    204420.41   -23089.888    1796.4901   -24886.378   -95.372608    282.94283    95.078239    14.569817    27.867294 
   36000    233.81383   -392.94475    204420.41   -23217.615    1697.0845     -24914.7    -822.7976    283.78841    95.078305    14.569957    27.877624 
   36200     241.9135   -296.55985    204420.41   -23226.741    1755.8741   -24982.615   -523.89143    284.83873    95.077865    14.567611    27.883834 
   36400    240.54183    -328.4618    204420.41   -23191.109    1745.9181   -24937.027   -637.76884    288.05402     95.07868    14.565735    27.891383 
   36600    237.30329    -247.0957    204420.41    -23170.14     1722.412   -24892.552   -343.59156    289.74685     95.07734    14.564158    27.889809 
   36800    232.27557    -222.1764    204420.41   -23253.281    1685.9194   -24939.201    -253.3504    292.74857    95.077376    14.561782    27.910814 
   37000    239.74415   -458.71187    204420.41   -23205.657    1740.1283   -24945.785   -1072.2622    296.52571    95.076916     14.56149    27.907961 
   37200    241.84255   -425.02472    204420.41   -23217.148    1755.3591   -24972.507   -934.54073    298.69078    95.074197    14.564251    27.896696 
   37400    233.76518   -404.61853    204420.41   -23240.035    1696.7313   -24936.766   -882.94119    298.72666    95.073071    14.566428    27.896572 
   37600    229.84844   -226.07105    204420.41   -23268.723    1668.3026   -24937.026   -250.80174    299.69532    95.071247     14.56497    27.895101 
   37800    235.47635   -448.54702    204420.41    -23296.33    1709.1515   -25005.481    -1033.933    301.10327    95.072363     14.56447    27.877427 
   38000    240.18606   -408.47918    204420.41   -23199.776    1743.3359   -24943.111   -918.81499    304.79717     95.07084    14.567692    27.869248 
   38200    241.30639   -356.84609    204420.41   -23221.379    1751.4675   -24972.847    -702.8657    304.10759    95.069451    14.568045    27.867046 
   38400    243.91945   -120.35169    204420.41    -23165.53    1770.4338   -24935.964    83.119413     305.0197    95.069269    14.568701    27.860959 
   38600    241.89276   -379.45528    204420.41   -23195.882    1755.7235   -24951.605   -782.65125    307.99583    95.068895    14.569861    27.868735 
   38800    238.54006   -261.57601    204420.41    -23164.68    1731.3887   -24896.069   -350.85025     308.9342    95.069431    14.570412    27.874714 
   39000    239.94445   -468.07483    204420.41   -23149.177    1741.5822   -24890.759   -1125.4464    309.83086    95.069716    14.570514    27.871797 
   39200    236.85424   -360.51721    204420.41   -23225.421    1719.1526   -24944.573   -732.89974    313.26304    95.070936    14.568805    27.876385 
   39400    241.32739   -260.16786    204420.41   -23190.552      1751.62   -24942.172   -336.73749    316.23435    95.072944    14.566879    27.861177 
   39600    238.22996   -567.93804    204420.41   -23140.087    1729.1379   -24869.225   -1459.9379    320.07989    95.072014    14.566986    27.853588 
   39800    237.98729   -384.06143    204420.41    -23200.53    1727.3766   -24927.907   -800.50866    323.66571    95.071111    14.568761    27.850933 
   40000    241.42169   -282.79936    204420.41   -23201.537    1752.3044   -24953.842   -435.98941    325.16442    95.071743    14.567822    27.849204 
   40200    237.56073    -461.7535    204420.41   -23220.128    1724.2805   -24944.408   -1103.3827    328.02846    95.071992    14.566637    27.838198 
   40400    235.15065   -577.96356    204420.41   -23255.167    1706.7875   -24961.954   -1455.4152    329.58907    95.071626    14.562728    27.824068 
   40600    246.40451   -204.13941    204420.41   -23163.204    1788.4711   -24951.675    -180.8352    329.63196    95.070379    14.560068    27.835313 
   40800    239.25331    -308.6111    204420.41    -23253.67    1736.5657   -24990.236    -559.2193     330.9761    95.071606    14.556932    27.839573 
   41000    236.48928   -261.32093    204420.41   -23252.949    1716.5036   -24969.453   -380.83702    332.01202    95.073684    14.554261    27.853708 
   41200    248.90811   -398.28353    204420.41   -23165.873    1806.6429   -24972.516   -871.94356    332.51482    95.074321     14.55125    27.853454 
   41400     235.4726   -404.90272    204420.41   -23234.712    1709.1243   -24943.836   -885.04051    333.36558    95.076971    14.548445    27.847141 
   41600    247.94298   -384.87295    204420.41   -23223.078    1799.6377   -25022.715   -790.78874    336.11793    95.076479    14.548116    27.864067 
   41800    239.56898   -384.82661    204420.41   -23234.137    1738.8569   -24972.994    -808.4184    338.37319    95.076965    14.547192    27.878083 
   42000    240.77103   -331.12265    204420.41   -23281.789    1747.5817    -25029.37   -621.34771    338.11714    95.077261    14.545671    27.870522 
   42200    233.48464   -462.31991    204420.41   -23338.856    1694.6951   -25033.551      -1088.6    339.13896    95.077764    14.544139     27.88113 
   42400    240.37289   -190.19437    204420.41    -23256.85    1744.6919   -25001.542   -112.56146    339.19099    95.080321    14.544404    27.885613 
   42600    241.06527   -382.18187    204420.41   -23257.094    1749.7174   -25006.812   -796.80631    340.32146    95.081245    14.544323    27.895723 
   42800    238.16671   -333.92661    204420.41   -23235.777    1728.6789   -24964.456   -642.85396     339.8685    95.080584    14.544472    27.902409 
   43000    239.08336   -293.83778    204420.41    -23285.81    1735.3322   -25021.142   -451.79941    341.02964    95.078758    14.544837    27.895832 
   43200    233.11677   -435.36375    204420.41   -23295.715    1692.0251   -24987.741   -962.05403    346.08993    95.077155    14.546743    27.877655 
   43400     236.4832   -402.18188    204420.41   -23267.319    1716.4595   -24983.778   -854.61102    347.29698    95.076085    14.547824    27.898256 
   43600    237.98893   -511.54228    204420.41   -23262.896    1727.3885   -24990.285   -1249.1865    349.15371    95.077002    14.551476    27.895141 
   43800    236.28267   -224.52934    204420.41   -23296.764     1715.004   -25011.768   -287.71039    350.46128    95.080249     14.55286    27.895327 
   44000    236.51436   -444.42248    204420.41   -23357.531    1716.6857   -25074.216   -1008.4919    352.88969    95.080979    14.553337    27.881865 
   44200    241.80499   -358.85481    204420.41   -23290.924    1755.0865    -25046.01   -749.67976    353.49866    95.081817    14.553875    27.859199 
   44400    246.07934   -266.56771    204420.41   -23293.091    1786.1109   -25079.202   -380.44488    354.21305    95.081539    14.553738    27.868329 
   44600    235.67185   -499.73356    204420.41   -23336.576    1710.5705   -25047.147   -1202.9119    355.10973     95.08289    14.554128    27.883155 
   44800    241.61796   -225.67162    204420.41   -23331.395     1753.729   -25085.124    -259.4095    353.72774    95.083014    14.553847    27.879345 
   45000    238.60209   -594.05648    204420.41   -23264.689     1731.839   -24996.528   -1541.6272    356.70529    95.081263    14.556019    27.891931 
   45200    238.50367   -39.912724    204420.41   -23287.133    1731.1246   -25018.258    359.03037    357.53472     95.08239     14.55579    27.878808 
   45400    236.48583   -417.73939    204420.41   -23324.332    1716.4786   -25040.811    -934.3149    359.88884    95.082671    14.552166    27.894894 
   45600    248.70153     -396.554    204420.41   -23257.892    1805.1435   -25063.035   -876.24549    361.01736    95.081791    14.550547    27.894095 
   45800     242.1626   -312.93263    204420.41   -23296.605    1757.6821   -25054.288   -529.51615    362.09741      95.0813    14.553303    27.900561 
   46000    237.34543   -291.46026    204420.41   -23199.475    1722.7178   -24922.193   -484.40261    362.44418    95.082269    14.559951    27.892441 
   46200     244.8705   -525.17275    204420.41   -23159.568    1777.3368   -24936.905    -1306.452    363.38051    95.083633    14.562786    27.881537 
   46400    235.25226   -469.02676    204420.41   -23241.318     1707.525   -24948.843   -1069.3111    362.39872    95.082686    14.566042    27.884322 
   46600    233.67266    -400.7832    204420.41   -23278.372    1696.0598   -24974.432   -854.25922    362.01544    95.083812    14.569205    27.876646 
   46800    236.51497   -281.81292    204420.41   -23239.153    1716.6901   -24955.844   -460.98592    363.59956    95.084303     14.56909    27.860445 
   47000    240.95024   -238.82046    204420.41     -23217.3    1748.8825   -24966.182   -317.66623    366.01454    95.086497    14.569555    27.864813 
   47200    232.02672   -502.30049    204420.41   -23318.241    1684.1132   -25002.354   -1237.1293    367.57158    95.087659    14.566075     27.86267 
   47400    243.41931   -424.79981    204420.41   -23207.583    1766.8037   -24974.387   -954.43263    369.55102    95.087669    14.565371    27.876029 
   47600     239.8782   -119.95527    204420.41   -23244.959    1741.1014    -24986.06    87.063802    372.41655    95.088968    14.567045    27.883568 
   47800    229.69416   -434.26826    204420.41   -23267.606    1667.1828   -24934.789   -1022.8753    374.56965    95.089979    14.565761     27.88709 
   48000    238.93211    -365.7005    204420.41   -23251.027    1734.2343   -24985.262   -769.92095    376.80924    95.089865    14.567502    27.887824 
   48200    234.25432   -350.30687    204420.41   -23211.263    1700.2817   -24911.544    -646.9914      379.728     95.08969    14.565481    27.896022 
   48400    238.50243   -382.04078    204420.41   -23220.088    1731.1156   -24951.203   -812.58285    381.54531    95.088821    14.566978    27.890297 
   48600    242.52605   -358.88238    204420.41   -23297.363    1760.3202   -25057.683   -745.49863    382.44714    95.087786    14.568011    27.887264 
   48800    243.54918   -308.19509    204420.41    -23297.17    1767.7463   -25064.916     -546.534    384.13531    95.087152    14.566756    27.857445 
   49000    240.86538   -440.95535    204420.41   -23303.409    1748.2666   -25051.676   -1014.2279     385.9219    95.088038     14.56736    27.844602 
   49200    240.85925   -434.34369    204420.41   -23215.041    1748.2221   -24963.263   -1008.5593    385.90341    95.088072    14.569132    27.839949 
   49400    238.48178   -120.68726    204420.41   -23310.513    1730.9658   -25041.479    111.18661    385.34083    95.088378    14.569982    27.844961 
   49600    235.06418   -362.43183    204420.41   -23279.112    1706.1599   -24985.272   -732.19744    389.15856    95.089025    14.569866    27.821763 
   49800    243.32517   -297.88614    204420.41   -23277.176    1766.1204   -25043.297   -550.07581    390.90666    95.089302      14.5715    27.809803 
   50000    234.52102   -352.10358    204420.41   -23319.181    1702.2174   -25021.399   -720.94908    389.57223    95.089373     14.57546    27.802261 
   50200    238.46844   -178.66759    204420.41   -23193.908    1730.8689   -24924.777   -117.37606    390.75218    95.089745    14.577979    27.793087 
   50400    240.92715   -315.03371    204420.41   -23228.405    1748.7149    -24977.12   -556.17309    393.20353    95.089144    14.579954    27.776662 
   50600    250.40555    -362.4619    204420.41   -23123.168    1817.5117   -24940.679   -766.74964    395.40301    95.087725    14.579934    27.788483 
   50800    237.04158   -266.24377    204420.41   -23320.672    1720.5124   -25041.184   -433.99834    398.30154    95.088278    14.583361     27.78542 
   51000    236.94698   -368.37137    204420.41   -23258.899    1719.8258   -24978.724   -770.08049    399.67853    95.089507     14.58343     27.79032 
   51200     242.8809   -354.99316    204420.41   -23260.811    1762.8958   -25023.707   -729.01087    400.42558    95.087379    14.582982    27.806738 
   51400    236.14382   -156.79703    204420.41   -23231.479    1713.9962   -24945.475    -4.278228    402.29282    95.088138    14.584581    27.797537 
   51600    235.85732   -393.56711    204420.41   -23262.285    1711.9167   -24974.202   -868.38165    405.36497    95.089359    14.584885    27.804385 
   51800    240.13969    -193.3738    204420.41   -23253.561    1742.9993    -24996.56   -178.69486    403.42163    95.089256    14.586995    27.793952 
   52000    236.77578   -279.50061    204420.41   -23306.848    1718.5831   -25025.431   -406.41251    404.47873    95.088636     14.58987    27.797166 
   52200     239.1421   -419.16536    204420.41   -23317.974    1735.7585   -25053.732   -921.46485    406.69047    95.088911    14.589212     27.80122 
   52400    234.06952   -528.70657    204420.41   -23375.939    1698.9404   -25074.879   -1349.5101    406.28834    95.090098    14.588676    27.751884 
   52600    244.79385   -219.14324    204420.41   -23234.679    1776.7805    -25011.46    -291.6931    404.85802    95.088644     14.58911    27.755342 
   52800    238.64274   -587.00771    204420.41   -23162.959    1732.1341   -24895.093    -1522.816    404.99168    95.088188    14.587911    27.770783 
   53000    239.45509   -355.86502    204420.41   -23112.144    1738.0303   -24850.174    -713.1075    405.71542    95.086613    14.589651    27.791216 
   53200    238.76789   -287.69586    204420.41   -23208.923    1733.0424   -24941.965   -472.82182    406.91584    95.085783    14.589494     27.80485 
   53400    236.09223   -286.75551    204420.41   -23215.904    1713.6217   -24929.526   -499.11059    406.78113    95.084662    14.589537    27.813775 
   53600    234.99752   -117.98364    204420.41   -23298.124     1705.676     -25003.8    107.31006    405.88078    95.083234    14.588684    27.807833 
   53800    231.97684   -420.96012    204420.41   -23265.848    1683.7511   -24949.599   -934.28353    407.49872    95.084164    14.585567    27.805876 
   54000    240.70168   -347.21944    204420.41   -23209.273    1747.0783   -24956.352   -685.82255     409.9992    95.085687     14.58237    27.809332 
   54200    243.28938    -400.9805    204420.41   -23179.542    1765.8606   -24945.403   -872.57924    412.44811    95.086717    14.582155    27.827849 
   54400    248.40074   -344.41156    204420.41   -23131.592    1802.9602   -24934.553   -675.83849    412.97302    95.086266    14.580712    27.844114 
   54600    246.54584   -340.70324    204420.41   -23169.315    1789.4969   -24958.812   -636.35897    414.13076    95.085168    14.579308    27.890162 
   54800    238.45015   -468.34711    204420.41   -23179.343    1730.7361   -24910.079   -1120.9288    415.56926    95.086453    14.579842    27.902832 
   55000    245.13136   -183.46157    204420.41   -23143.829    1779.2302   -24923.059   -120.38434    415.27143    95.086776     14.58082    27.883591 
   55200    234.29635   -256.36992    204420.41   -23282.872    1700.5867   -24983.459   -356.20305    416.73615    95.086466    14.578282    27.896652 
   55400    237.66148   -353.08735    204420.41   -23256.459    1725.0118   -24981.471   -670.53794    415.83353    95.087298    14.579481    27.904047 
   55600     242.1121   -124.31351    204420.41   -23204.724    1757.3156   -24962.039    67.310991    416.57203    95.087419    14.580994    27.900514 
   55800    251.33255   -418.43947    204420.41   -23124.942    1824.2401   -24949.182   -981.95602    420.62371    95.087336    14.582367    27.903898 
   56000    245.00443   -209.64215    204420.41   -23184.994    1778.3089   -24963.303   -201.40853    422.88806    95.087622    14.586876    27.882304 
   56200    240.34428   -260.18335    204420.41   -23217.365    1744.4843    -24961.85   -361.55344    427.07534    95.088302    14.588191    27.897025 
   56400    240.51094   -210.77214    204420.41   -23291.598    1745.6939   -25037.292   -196.88293    428.19221     95.08716    14.589592    27.876847 
   56600    234.03617   -404.83466    204420.41   -23367.351    1698.6983    -25066.05   -880.80411    428.29585    95.087498    14.588671    27.885708 
   56800    240.58898   -462.15448    204420.41   -23230.565    1746.2604   -24976.825   -1096.5376    430.32632    95.085498    14.590821    27.883885 
   57000    234.21747   -310.56003    204420.41   -23307.833    1700.0142   -25007.847   -551.24232     432.0949    95.084235    14.592172    27.892502 
   57200    244.25264   -284.23565    204420.41   -23214.298    1772.8522    -24987.15   -456.77768    432.36646    95.084456    14.591778    27.880571 
   57400    238.09898   -357.99297    204420.41   -23261.262    1728.1873    -24989.45   -731.69721    434.99118     95.08421    14.590852    27.876396 
   57600    234.14334   -377.58273    204420.41    -23319.69    1699.4761   -25019.166   -764.34304    436.63762    95.083868    14.594003    27.868769 
   57800    241.67957   -190.91815    204420.41   -23245.738    1754.1761   -24999.914   -163.63198    437.90872    95.082806    14.594315    27.871841 
   58000    238.00294   -470.89881    204420.41   -23251.269    1727.4902   -24978.759   -1102.9484     437.5253    95.082718    14.595129    27.871865 
   58200     242.8217   -441.96218    204420.41   -23205.753    1762.4661   -24968.219   -996.42188    439.83812    95.081886    14.596822    27.857912 
   58400    241.52561   -364.06617    204420.41   -23274.845    1753.0587   -25027.903   -729.46713     441.3629    95.083565    14.599109    27.865252 
   58600    239.97846   -492.35287    204420.41    -23314.32    1741.8291   -25056.149    -1182.369    442.20684    95.083769    14.600301    27.875309 
   58800    239.04903   -326.19309    204420.41     -23274.3     1735.083   -25009.383   -590.51178    441.93236    95.084885    14.599539    27.870113 
   59000    242.45871   -289.80272    204420.41   -23202.052    1759.8314   -24961.883   -516.52137    444.76359    95.084611    14.598714    27.860097 
   59200    242.60637   -115.19771    204420.41   -23266.722    1760.9031   -25027.625    82.709255     449.0604    95.082784    14.597887     27.85679 
   59400    238.89183   -290.97142    204420.41   -23270.985     1733.942   -25004.927   -496.11043    450.04842    95.083138     14.59847    27.828675 
   59600    234.57102   -519.09086    204420.41   -23334.283    1702.5804   -25036.863   -1308.5579    452.97899    95.082519    14.597397    27.814388 
   59800    239.26756   -187.92439    204420.41   -23244.279    1736.6691   -24980.948   -137.33104    452.96555    95.081362    14.597703    27.811214 
   60000    244.84736    -350.1065    204420.41   -23205.508    1777.1688   -24982.677   -728.56622    455.98814     95.08005    14.599782    27.809358 
   60200    241.14693   -519.68553    204420.41   -23249.837    1750.3101   -25000.147   -1280.1894    459.70121    95.080151    14.602458    27.811806 
   60400     245.8534   -353.40995    204420.41   -23181.872     1784.471   -24966.343   -681.57224    461.09594    95.080296    14.607746    27.817271 
   60600    242.43435    -487.5085    204420.41   -23188.789    1759.6545   -24948.443   -1172.8415    462.16061    95.078123    14.608795    27.818932 
   60800    239.22977   -114.94925    204420.41   -23151.926    1736.3949   -24888.321    100.39549    462.49362     95.07764    14.607673    27.816212 
   61000    241.24488   -353.16246    204420.41   -23203.408    1751.0211   -24954.429   -729.77573      466.574    95.080182    14.603448    27.812994 
   61200    243.92087   -419.72524    204420.41   -23161.818    1770.4441   -24932.262   -949.11075    470.29714    95.082465    14.604679     27.81485 
   61400    245.22244   -586.30834    204420.41   -23177.314    1779.8913   -24957.205   -1516.9129    471.05501    95.081409    14.603394    27.801008 
   61600    240.94141   -141.66426    204420.41   -23205.486    1748.8184   -24954.304    9.7167218    469.00739     95.08034     14.60319    27.804438 
   61800    237.12206   -295.47404    204420.41   -23268.649    1721.0965   -24989.745   -528.53062    471.52439    95.079313    14.601462    27.798325 
   62000    239.93808   -474.47593    204420.41   -23184.586     1741.536   -24926.122   -1096.4623    471.88838    95.078694    14.597469    27.803322 
   62200    243.06306   -277.34991    204420.41   -23174.337    1764.2179   -24938.555   -473.55393    471.02852    95.080105    14.594332    27.819103 
   62400     236.5264   -539.10232    204420.41   -23192.152    1716.7731   -24908.925   -1380.8392    473.02541     95.08035    14.594823    27.795433 
   62600    241.14796   -395.09809    204420.41   -23231.561    1750.3176   -24981.879    -888.8114    473.39945    95.080914    14.593592    27.812838 
   62800    234.01914   -493.28429    204420.41   -23296.138    1698.5747   -24994.712   -1206.3452    471.57931    95.080284    14.592489    27.805064 
   63000    232.49876   -290.10873    204420.41   -23190.503    1687.5393   -24878.042   -525.23651    472.40264    95.081403    14.591906    27.813074 
   63200    237.11241   -306.24328    204420.41   -23221.747    1721.0265   -24942.774   -558.35719    475.43383    95.082763    14.590207    27.808622 
   63400    236.03922   -301.49862    204420.41   -23295.742     1713.237   -25008.979   -516.70486    477.82932    95.083428     14.58852    27.803088 
   63600     235.0664   -476.19495    204420.41   -23316.965     1706.176   -25023.141   -1146.9683    480.76697    95.083942    14.586568    27.804498 
   63800    236.22883   -342.23285    204420.41    -23370.47    1714.6132   -25085.083   -665.98675    481.66821    95.086531    14.585828    27.787192 
   64000    242.72088   -354.74722    204420.41    -23263.94    1761.7343   -25025.675   -736.17312    486.58318    95.086408    14.584621     27.80086 
   64200    242.17988   -309.61682    204420.41   -23242.292    1757.8076     -25000.1   -579.72372     484.0487    95.086589    14.582667    27.802274 
   64400    242.08768   -361.62759    204420.41   -23265.096    1757.1384   -25022.235   -757.38482    485.45511    95.086462    14.580892    27.817052 
   64600    232.81632     -372.507    204420.41   -23282.545    1689.8443   -24972.389   -799.29487    487.85121    95.087118    14.579675    27.812634 
   64800    231.00795    -221.4446    204420.41    -23281.54    1676.7187   -24958.259   -205.04568    488.34824    95.089453    14.577244    27.815485 
   65000    240.34614   -276.32373    204420.41   -23212.313    1744.4978   -24956.811   -460.75553    489.08597    95.090321     14.57752    27.821528 
   65200    239.10648   -282.43905    204420.41   -23270.823       1735.5   -25006.323   -454.90913    489.96721    95.091406    14.579407    27.810027 
   65400    236.85842   -403.69975    204420.41   -23274.367     1719.183    -24993.55   -885.68048    492.64102    95.091734    14.580842     27.82093 
   65600    241.44074   -409.73802    204420.41    -23172.12    1752.4427   -24924.563    -890.0536    492.89473    95.091747    14.581439    27.814846 
   65800    236.32429   -376.05268    204420.41   -23229.008    1715.3061   -24944.314   -795.34803    494.76669    95.092178    14.582838    27.800018 
   66000    241.77489   -484.08079    204420.41   -23207.341    1754.8681   -24962.209   -1179.3029    497.03133    95.092053     14.58182    27.794129 
   66200    245.30667   -201.60375    204420.41   -23254.728    1780.5026   -25035.231   -208.16259     497.6937     95.09205    14.581518    27.786244 
   66400    239.63502   -362.96706    204420.41   -23254.578    1739.3363   -24993.915   -748.82627    498.19318    95.092906    14.579671     27.79174 
   66600    235.35589   -323.61113    204420.41   -23274.913    1708.2772    -24983.19   -586.72262     498.2108    95.093603    14.577529    27.810831 
   66800    239.77766   -375.25367    204420.41   -23251.819    1740.3716   -24992.191   -755.50064    496.92229    95.093186    14.573545    27.821745 
   67000    231.02729   -409.12732    204420.41    -23364.84     1676.859   -25041.699   -895.38494    496.98254    95.091425    14.571408    27.816436 
   67200    242.38214   -314.57336    204420.41   -23298.639    1759.2756   -25057.914   -556.91391    496.59676    95.090253     14.56619    27.820245 
   67400    241.50675    -494.7787    204420.41   -23229.388    1752.9218   -24982.309   -1223.1428    500.23746    95.090043     14.56492    27.809316 
   67600     240.4752   -488.33961    204420.41   -23152.469    1745.4345   -24897.904   -1195.3064    503.14523    95.088805    14.565391    27.832841 
   67800    241.30434   -371.15455    204420.41   -23173.738    1751.4526    -24925.19   -770.82223     505.0114     95.08842    14.563387     27.83792 
   68000    239.28635   -209.22385    204420.41   -23263.172    1736.8056   -24999.977   -208.09375    503.87631     95.08794    14.562527    27.816575 
   68200     239.1883   -314.12048    204420.41   -23253.725    1736.0938   -24989.819    -591.9427    503.70673    95.088466    14.562992    27.819691 
   68400    243.49122   -168.64484    204420.41   -23223.982    1767.3256   -24991.308   -18.490533    502.14445    95.090392    14.563286    27.833738 
   68600    234.21799   -508.90119    204420.41   -23242.478     1700.018   -24942.496   -1249.1758    504.52053    95.089832    14.564552    27.834982 
   68800    248.69621    -249.4887    204420.41   -23196.501    1805.1048   -25001.606   -344.89248    506.96755    95.089894     14.56246    27.840374 
   69000    242.45853   -425.96537    204420.41   -23178.342    1759.8301   -24938.172   -979.88772    510.19699    95.088675    14.563941    27.840011 
   69200    235.60665   -206.55312    204420.41   -23264.246    1710.0973   -24974.343   -167.63681    512.95489    95.087811    14.565293    27.851901 
   69400    233.92996   -384.98571    204420.41   -23276.434    1697.9274   -24974.362   -860.47987    513.42383    95.088161    14.565766    27.860182 
   69600    248.18337   -384.63606    204420.41   -23165.033    1801.3825   -24966.416   -838.59622    513.76084    95.087282    14.568817    27.853793 
   69800    234.59375   -324.58167    204420.41   -23199.619    1702.7454   -24902.364   -635.80748    516.24224    95.088744     14.57252    27.858936 
   70000    237.69545   -331.02193    204420.41   -23249.965    1725.2583   -24975.223   -635.38986     518.5545    95.087942    14.574894    27.877263 
   70200    247.29989   -398.99569    204420.41   -23125.458      1794.97   -24920.428   -870.54568    522.48449    95.088395    14.574544    27.863883 
   70400     241.3844   -180.49813    204420.41   -23161.697    1752.0337   -24913.731   -117.62478    523.12429    95.087841    14.569873     27.85456 
   70600    238.25703   -432.15188    204420.41   -23207.506    1729.3344    -24936.84   -983.10596    523.59205    95.089501    14.571204    27.852647 
   70800     242.6258   -288.21142    204420.41   -23199.582    1761.0442   -24960.626   -463.76837    523.82121    95.090464    14.567572     27.84682 
   71000    237.31764   -376.98571    204420.41   -23204.302    1722.5161   -24926.819   -783.62284     525.1018      95.0892    14.568216    27.853641 
   71200    241.19869   -268.80321    204420.41   -23232.898    1750.6858   -24983.584    -461.2875     528.4041    95.090813    14.563941    27.844118 
   71400    240.67526   -267.30869    204420.41   -23240.024    1746.8866   -24986.911   -443.41418    529.68124    95.093029    14.561105    27.865566 
   71600    241.84621   -316.89509    204420.41   -23171.129    1755.3857   -24926.514   -604.72332    529.86075    95.093261    14.564227    27.869133 
   71800    238.06528   -493.90602    204420.41   -23269.177    1727.9427    -24997.12   -1194.7968    531.66944    95.093222    14.566257    27.879134 
   72000    241.50999    -165.2701    204420.41   -23268.544    1752.9453    -25021.49   -26.667627    533.90563    95.092953    14.568653    27.870668 
   72200     245.3209   -238.79165    204420.41   -23120.104    1780.6059    -24900.71   -286.25694    537.44252    95.094135    14.567507    27.848926 
   72400    244.77833   -260.73087    204420.41   -23208.759    1776.6678   -24985.427   -378.99976    538.29128    95.093266    14.570029    27.811877 
   72600    242.22764   -295.33027    204420.41   -23196.247    1758.1542   -24954.401   -509.72026    539.54757    95.092262    14.570802    27.786537 
   72800    240.02189   -368.37204    204420.41   -23247.949    1742.1443   -24990.093   -727.75836    539.81706    95.093749    14.570265    27.789713 
   73000    238.08354   -357.14661    204420.41   -23262.698    1728.0752   -24990.774   -732.90831     540.2613    95.094032    14.568865    27.802232 
   73200    237.98514   -364.67127    204420.41   -23227.843     1727.361   -24955.204   -743.65887    539.49634    95.095127    14.570425    27.798384 
   73400    244.91782   -572.43944    204420.41   -23158.262    1777.6803   -24935.942   -1490.9913    540.19941     95.09687    14.568918    27.794686 
   73600    244.09636   -453.20962    204420.41   -23219.775    1771.7179   -24991.493   -1047.4053    542.02973    95.095907     14.56703    27.786176 
   73800    235.71275   -255.24461    204420.41   -23320.684    1710.8674   -25031.551   -382.96073    544.65817    95.096278    14.561439    27.805529 
   74000    235.97339   -432.35742    204420.41   -23276.528    1712.7592   -24989.287    -1001.941    550.19395    95.095585    14.558548    27.831403 
   74200    236.42021   -281.35228    204420.41   -23162.007    1716.0023   -24878.009   -477.53919    553.05062    95.094767    14.558217    27.858908 
   74400    239.10702   -375.49404    204420.41    -23182.63    1735.5039   -24918.134   -791.33027    555.13362    95.096419    14.561614    27.849335 
   74600    236.33045   -393.15384    204420.41   -23217.425    1715.3508   -24932.776    -826.5148    558.26773    95.096597    14.561492     27.82802 
   74800    241.51885   -291.00149    204420.41   -23218.429    1753.0096   -24971.439   -519.02651    557.94146    95.096417    14.561984    27.827534 
   75000    241.58828   -515.33822    204420.41   -23226.262    1753.5136   -24979.775   -1270.1951    556.76093     95.09505    14.558584    27.829867 
   75200    241.09134   -256.76497    204420.41   -23140.558    1749.9066   -24890.464    -370.9491    558.15447    95.094949    14.558715    27.827853 
   75400     237.6294   -186.28113    204420.41   -23260.236    1724.7789   -24985.015   -87.810687    558.86394    95.094315    14.561003    27.830851 
   75600    240.15465   -282.82378    204420.41   -23202.703    1743.1079    -24945.81   -463.03948    560.53726    95.094891    14.560307    27.837754 
   75800    242.07185   -382.83609    204420.41   -23148.628    1757.0235   -24905.651    -812.9553    564.84327    95.094993    14.559016    27.862966 
   76000    245.53858   -489.95447    204420.41   -23136.519    1782.1859   -24918.705   -1167.7591     567.0454    95.096227    14.560238    27.870854 
   76200    239.21658   -246.06911    204420.41   -23263.003    1736.2991   -24999.302   -313.60756    568.09537    95.096712    14.560042    27.846348 
   76400    234.10827   -368.19872    204420.41   -23216.841    1699.2216   -24916.062    -801.5461    573.38015    95.097034    14.560122    27.856423 
   76600    242.64366   -439.71631    204420.41   -23179.163    1761.1738   -24940.336   -984.97911    576.81376    95.096224    14.563666    27.879413 
   76800     236.6481   -269.96418    204420.41    -23180.19    1717.6564   -24897.847   -406.34272    576.88406    95.095813    14.568539    27.883862 
   77000     240.2146   -359.74388    204420.41   -23195.051     1743.543   -24938.594   -723.39077    575.09158    95.094648    14.571048    27.885011 
   77200      241.291   -287.80687    204420.41   -23184.208    1751.3558   -24935.564   -475.48441     572.3758     95.09534    14.573643    27.896052 
   77400    241.47759   -347.16633    204420.41   -23224.837    1752.7102   -24977.547   -701.06804    573.79108    95.097342    14.573703    27.895305 
   77600     237.9151   -389.19726    204420.41   -23282.322    1726.8527   -25009.175   -842.87289    574.84004    95.097306    14.571321     27.87068 
   77800    237.78663   -236.97923    204420.41   -23310.522    1725.9202   -25036.442   -333.14526    575.96448    95.095922    14.570873    27.878885 
   78000    241.95086   -507.05299    204420.41   -23271.524    1756.1453   -25027.669   -1272.7979    577.29675    95.096268    14.571528    27.867657 
   78200    239.27369   -364.89642    204420.41   -23284.354    1736.7136   -25021.067   -725.31638    578.94107    95.095755     14.56938    27.879868 
   78400    240.55266   -253.09712    204420.41   -23221.193    1745.9968    -24967.19   -356.15473    580.34373    95.096015    14.567042    27.884349 
   78600    240.28554   -379.28449    204420.41    -23214.65     1744.058   -24958.707   -831.57575    581.09625      95.0961    14.564577    27.880971 
   78800    238.46491   -402.82664    204420.41   -23183.035    1730.8433   -24913.879    -874.1451    580.25973    95.095261    14.565002    27.878094 
   79000    244.58837   -212.29469    204420.41   -23194.163    1775.2891   -24969.452    -186.5536    579.50741    95.093678    14.564011    27.873521 
   79200    242.83407   -471.43919    204420.41   -23140.337    1762.5558   -24902.893   -1140.8048    585.31783    95.093872    14.562546    27.853544 
   79400    247.33587   -187.73137    204420.41   -23150.981    1795.2311   -24946.212   -169.81806     587.7172    95.092649    14.560592    27.829074 
   79600    236.55914   -276.53455    204420.41    -23287.54    1717.0107   -25004.551   -434.63188    587.08252    95.093915    14.562338    27.812613 
   79800    237.09904   -352.24708    204420.41    -23273.09    1720.9294    -24994.02   -667.60099    587.78214      95.0943    14.562769    27.795803 
   80000    237.16382   -346.25144    204420.41   -23294.455    1721.3996   -25015.855   -684.96325    587.58152    95.094728    14.565076    27.781751 
   80200    238.82215   -286.66689    204420.41   -23296.543    1733.4362   -25029.979   -512.47346    588.97547    95.095805    14.566711    27.765813 
   80400    234.61911   -488.84674    204420.41   -23286.865    1702.9294   -24989.794   -1173.5575    592.01788    95.095645    14.567708    27.759234 
   80600      239.778   -255.58745    204420.41   -23244.117    1740.3741   -24984.491   -342.82216    590.96242    95.095907    14.567353    27.776256 
   80800    244.91022   -186.87194    204420.41   -23222.245    1777.6251    -24999.87   -105.84681    591.48901    95.095465    14.568399    27.798523 
   81000    237.91794   -414.94179    204420.41   -23275.135    1726.8732   -25002.008   -919.27892     595.6148    95.095656    14.569216    27.795348 
   81200    246.01942   -214.33944    204420.41   -23258.309     1785.676   -25043.985   -192.65098    596.61789    95.097926    14.567452    27.813413 
   81400    242.96073   -306.61165    204420.41   -23212.099    1763.4752   -24975.574   -569.76359    598.14366    95.097571     14.56691    27.793009 
   81600    232.09461   -457.81939    204420.41   -23258.468    1684.6059   -24943.074   -1033.5219    599.66743    95.096952    14.566521    27.791945 
   81800    238.95587    -411.1528    204420.41   -23321.382    1734.4068   -25055.788   -919.23273    600.87696     95.09907    14.566014    27.802872 
   82000    237.17416   -279.85204    204420.41   -23273.612    1721.4747   -24995.087   -466.85378     602.3923    95.098196    14.566382    27.809855 
   82200    238.93361   -373.65517    204420.41    -23181.21    1734.2452   -24915.455   -778.88224    603.82691    95.096717    14.564757    27.825266 
   82400    246.75275   -264.87979    204420.41   -23236.053    1790.9987   -25027.051   -402.81161    605.26009    95.096255    14.565501    27.831118 
   82600    240.52958   -385.74503    204420.41    -23162.54    1745.8292   -24908.369   -854.27292    607.16831    95.095216    14.565664    27.836799 
   82800    237.56914   -263.89932    204420.41   -23272.913    1724.3415   -24997.254   -387.98932    608.29066    95.094522     14.56832    27.824303 
   83000     244.6344   -440.28428    204420.41   -23141.977    1775.6231     -24917.6   -1027.3127     612.2691    95.094073    14.567211    27.795998 
   83200    244.92708   -336.01516    204420.41   -23148.534    1777.7475   -24926.281   -656.72936    613.86875    95.094811    14.566136     27.77775 
   83400    241.21462    -529.8455    204420.41   -23143.845    1750.8014   -24894.647   -1329.3162    612.82286    95.092746    14.566544    27.775532 
   83600    235.70158   -434.82316    204420.41   -23282.585    1710.7863   -24993.371   -994.81722    611.99185    95.091038    14.564387    27.769126 
   83800    235.36418   -143.90897    204420.41   -23218.936    1708.3374   -24927.274    49.638693    610.45216    95.091484    14.565513    27.770368 
   84000     242.2359   -334.59126    204420.41    -23205.98    1758.2142   -24964.194   -647.53706    612.60124    95.093052    14.570871    27.761681 
   84200    243.22529   -228.03104    204420.41   -23160.791    1765.3954   -24926.186   -267.18363    611.31882    95.093999    14.572177    27.766572 
   84400    236.62376   -253.95952    204420.41   -23286.833    1717.4797   -25004.313   -340.32982    612.49108    95.093894    14.572551    27.760879 
   84600    247.12246   -390.85487    204420.41   -23178.543    1793.6822   -24972.226   -831.81324    619.23359     95.09682    14.572449     27.77704 
   84800    240.86204   -375.83448    204420.41   -23250.667    1748.2423   -24998.909   -782.60743    616.60161    95.097684    14.573379    27.787372 
   85000     244.6406   -266.04972    204420.41   -23178.174    1775.6681   -24953.842    -418.6756    613.97708    95.098374    14.575896    27.760663 
   85200    244.57283   -322.91884    204420.41   -23152.249    1775.1762   -24927.426    -590.4361     614.5951    95.101374    14.578128    27.765471 
   85400    234.67761   -448.50321    204420.41   -23275.479    1703.3541   -24978.833   -1004.8353    614.06519    95.101399    14.579942    27.772286 
   85600    242.39672   -202.37709    204420.41    -23251.29    1759.3815   -25010.671   -209.21399    612.44262    95.100946    14.580318    27.757562 
   85800    238.82923   -342.56252    204420.41   -23274.914    1733.4876   -25008.402   -684.86818     612.9727    95.099958    14.582957    27.771014 
   86000    242.40821   -264.66355    204420.41   -23193.495    1759.4648    -24952.96   -406.21012    616.98465    95.098727    14.584228    27.788089 
   86200    239.62386   -306.12642    204420.41   -23205.343    1739.2552   -24944.598   -572.69321     619.1897    95.097557    14.585703    27.833948 
   86400    235.11038   -271.75458    204420.41   -23309.082    1706.4952   -25015.577    -402.3548    622.39524     95.09566    14.586901    27.840033 
   86600    242.66302   -446.51267    204420.41   -23259.037    1761.3143   -25020.351   -1037.7951    623.91805    95.094307    14.586934    27.847272 
   86800    239.60098   -187.63649    204420.41   -23305.207    1739.0892   -25044.296   -117.87305    624.21435    95.093895    14.590274    27.856961 
   87000    241.66115   -334.69539    204420.41   -23236.999    1754.0424   -24991.041   -644.65183    625.31825     95.09455    14.591011    27.847626 
   87200    240.31637   -423.95718    204420.41   -23194.795    1744.2817   -24939.077   -932.11892    625.51855    95.094251    14.591922    27.844878 
   87400     233.3137   -227.14728    204420.41   -23299.373    1693.4544   -24992.828    -266.1194    623.22559    95.092543    14.590597    27.879144 
   87600    234.08804   -326.74078    204420.41   -23155.409    1699.0748   -24854.484    -595.5642    623.37672    95.093446    14.590063    27.901739 
   87800    239.88018   -292.40222    204420.41   -23199.032    1741.1157   -24940.148   -508.84948    625.62665    95.094092    14.589025    27.899296 
   88000    239.12559   -493.16951    204420.41   -23228.007    1735.6387   -24963.645   -1224.3481    627.59844    95.094357    14.589216    27.928767 
   88200    237.60496   -346.68634    204420.41   -23228.498    1724.6015   -24953.099   -668.97991    629.21836    95.094025    14.591344    27.957004 
   88400    245.33839   -294.08833    204420.41   -23177.182    1780.7329   -24957.915   -484.88925    632.18208    95.094074    14.591885    27.945967 
   88600    234.68395   -397.79995    204420.41   -23234.481       1703.4   -24937.882   -819.16642    630.46481     95.09271    14.593772    27.940108 
   88800    240.25638    -494.2317    204420.41   -23254.113    1743.8462   -24997.959   -1194.5903    628.85777    95.091797    14.591617    27.963267 
   89000    240.26493   -180.90475    204420.41   -23207.565    1743.9083   -24951.473   -137.22466     629.7268    95.091579    14.590856    27.982485 
   89200    244.30481   -446.63495    204420.41   -23238.293    1773.2309   -25011.524   -1020.5713    630.32128    95.089378    14.592782    27.968545 
   89400    238.55561   -548.84353    204420.41   -23173.851    1731.5016   -24905.353   -1364.6346    634.31748    95.087788    14.592392    27.976303 
   89600    235.94145   -351.51125    204420.41   -23328.699    1712.5273   -25041.226   -680.13619    635.28293    95.087507    14.591635    27.981413 
   89800     238.7355   -239.02278    204420.41   -23205.411    1732.8073   -24938.218    -316.0243    635.42625     95.08835    14.591137     27.96709 
   90000     238.7324   -322.74372    204420.41    -23168.94    1732.7848   -24901.725   -615.43091     637.1268    95.089945    14.594191    27.962983 
   90200     241.9641   -320.93626    204420.41   -23234.121    1756.2414   -24990.363   -572.21353    635.98391    95.091789    14.591986    27.980115 
   90400    235.75739   -301.50406    204420.41    -23202.48    1711.1914   -24913.671   -540.24339    635.69322    95.091873    14.594573    27.992629 
   90600     239.2296   -554.72492    204420.41   -23214.378    1736.3936   -24950.771    -1421.435    637.80004    95.092879    14.593776     27.97312 
   90800    243.72444   -554.64199    204420.41   -23235.823    1769.0184   -25004.842   -1374.6351    637.99942     95.09375     14.59529    27.958468 
   91000    238.14339   -413.07039    204420.41   -23308.144    1728.5096   -25036.653   -920.14265    640.54844    95.095312    14.593697    27.950139 
   91200    233.29195   -337.58298    204420.41   -23362.523    1693.2965   -25055.819   -662.39972    641.84045    95.095792    14.589441    27.936854 
   91400    238.76624   -302.88382    204420.41   -23288.974    1733.0304   -25022.005   -527.01958     644.9432    95.096769    14.586573    27.926384 
   91600    246.75245   -278.74929    204420.41   -23180.722    1790.9965   -24971.719   -454.29144    647.86103    95.098663    14.586904    27.902464 
   91800    243.89696   -318.22996    204420.41   -23212.468    1770.2706   -24982.738    -565.2194    650.58042    95.098996    14.588159    27.903658 
   92000    236.23199   -425.09661    204420.41   -23196.066    1714.6361   -24910.702   -955.07813    650.58569      95.0986    14.591043    27.901689 
   92200    240.07122   -555.96169    204420.41   -23194.465    1742.5023   -24936.968   -1430.6012    653.43812    95.097027    14.590887    27.869929 
   92400    245.77137   -185.15267    204420.41   -23191.682    1783.8756   -24975.558   -145.01707    653.47605    95.096535    14.591786    27.877885 
   92600    243.67635   -308.35755    204420.41   -23159.702    1768.6694   -24928.372   -541.25254    653.35789    95.096471    14.593484    27.863573 
   92800    235.45905   -445.00639    204420.41   -23225.434     1709.026    -24934.46   -1023.6056    656.96695    95.096862    14.599182    27.863695 
   93000    231.70582   -290.61463    204420.41   -23229.762     1681.784   -24911.546   -476.45987    660.65451    95.097176    14.599793    27.850738 
   93200    241.48324   -475.21261    204420.41   -23202.716    1752.7512   -24955.467    -1133.358    661.44749    95.095887    14.599514    27.841107 
   93400    236.09233   -395.62391    204420.41   -23266.778    1713.6225     -24980.4   -874.24054    660.84028    95.097428    14.599949    27.852216 
   93600    239.19608   -264.16124    204420.41   -23229.528    1736.1503   -24965.678   -379.34535    662.85482    95.097973    14.596461    27.851784 
   93800    233.94404   -251.79039    204420.41   -23292.638    1698.0296   -24990.667   -351.57403    665.00704    95.099274    14.592652    27.842381 
   94000    237.81217   -322.92292    204420.41   -23318.557    1726.1055   -25044.663   -638.63348    665.14709     95.09997    14.592104    27.805499 
   94200    245.36359   -304.88891    204420.41   -23186.114    1780.9158   -24967.029   -542.90475    667.75513     95.09939     14.59197    27.799204 
   94400    240.94567   -318.30242    204420.41   -23239.985    1748.8493   -24988.834   -578.15485    670.32908    95.100053     14.59066    27.789181 
   94600    239.59721   -352.55513    204420.41   -23248.854    1739.0619   -24987.916   -658.64639    668.18466    95.099546    14.589968    27.772632 
   94800    240.63225    -249.7878    204420.41   -23243.275    1746.5744   -24989.849   -349.07282    668.95532    95.101278    14.592388    27.775298 
   95000    231.76155   -394.62727    204420.41   -23266.775    1682.1885   -24948.964   -841.38681    668.76768    95.102476    14.593491     27.78768 
   95200    236.63129    -297.4482    204420.41   -23281.819    1717.5344   -24999.353   -503.17943    670.20956    95.103934    14.593192    27.810333 
   95400     239.7961   -298.53298    204420.41   -23235.301    1740.5055   -24975.807   -511.71307    671.44395    95.104322    14.593192    27.793356 
   95600    241.01637   -279.67496    204420.41   -23240.667    1749.3625   -24990.029   -477.57205    674.91109    95.104368    14.592337    27.789438 
   95800    241.29537   -463.18312    204420.41   -23258.292    1751.3875   -25009.679   -1140.9931    677.42557    95.103399    14.593347    27.768138 
   96000    243.96779   -184.30497    204420.41   -23234.979    1770.7847   -25005.764   -108.45043     675.3622    95.105231    14.593769    27.755145 
   96200    246.27619   -430.13801    204420.41   -23187.061    1787.5397   -24974.601   -991.64943    674.20137    95.104268    14.594936    27.744475 
   96400    239.83002   -220.74313    204420.41   -23266.995    1740.7516   -25007.746   -277.46157    677.43184    95.104502    14.597824    27.744276 
   96600    230.74344   -451.42381    204420.41   -23250.057    1674.7988   -24924.856   -1061.0787    679.80217    95.105429    14.598612    27.729078 
   96800    240.30253   -338.09947    204420.41   -23232.433    1744.1813   -24976.615   -656.47665    679.30772    95.105235    14.597652    27.741115 
   97000    238.37567   -216.11144    204420.41   -23242.394    1730.1955    -24972.59   -241.96377    678.58889    95.104203    14.597494    27.742507 
   97200    241.82629   -365.81933    204420.41   -23235.064    1755.2411   -24990.305   -737.20102    678.87806    95.103068    14.595702    27.718708 
   97400    241.95884   -386.30632    204420.41    -23207.53    1756.2032   -24963.733   -821.07068    679.86609    95.101251    14.592112    27.725953 
   97600    240.53223   -293.83215    204420.41   -23152.757    1745.8484   -24898.606   -455.01082    679.21097    95.102283    14.591622    27.716584 
   97800    239.91502   -271.02484    204420.41   -23183.873    1741.3686   -24925.242   -404.98371    680.44938    95.103642    14.589121    27.709158 
   98000    242.58439   -349.34727    204420.41   -23224.022    1760.7436   -24984.766   -716.26669    681.09689    95.102496    14.588475    27.701632 
   98200    239.78111   -164.69449    204420.41   -23260.526    1740.3966   -25000.922   -67.697845    683.32293    95.103026    14.586499    27.708116 
   98400    236.49883    -367.3034    204420.41   -23174.334    1716.5729   -24890.907   -725.14214    685.69718    95.102224    14.582169    27.713074 
   98600    237.12523   -303.87479    204420.41   -23197.599    1721.1195   -24918.719   -528.16654    684.27854    95.101496    14.579534    27.735886 
   98800    241.91013   -341.98543    204420.41   -23194.184    1755.8497   -24950.034   -663.93318    686.94137    95.101554    14.580365    27.733948 
   99000    233.77286   -276.10204    204420.41   -23243.674    1696.7871   -24940.461   -430.98188    690.38629    95.101812    14.582015    27.741831 
   99200    243.13643   -277.97974    204420.41   -23199.608    1764.7505   -24964.358   -433.25651    691.27899    95.103301    14.582472    27.760632 
   99400    246.97324   -243.88769    204420.41   -23222.604    1792.5991   -25015.203   -325.09233    696.03055    95.104336    14.580871    27.781786 
   99600    243.86361   -260.24497    204420.41   -23232.857    1770.0286   -25002.886   -369.98199    700.35926    95.105604    14.578451    27.803087 
   99800    239.53222   -221.22806    204420.41   -23256.582    1738.5901   -24995.172   -233.13538    703.17449    95.105807    14.580713    27.809539 
  100000    245.94249   -517.75943    204420.41   -23283.696    1785.1176   -25068.813    -1264.261    705.32104    95.107678    14.579828    27.802941 
  100200    237.41052   -314.98101    204420.41   -23358.331    1723.1902   -25081.521   -584.86635    701.66504    95.107569    14.579892    27.819033 
  100400    238.30809   -374.37419    204420.41   -23278.176     1729.705   -25007.881   -789.81056     702.4148    95.108956    14.583279    27.838206 
  100600    241.14653   -464.79997    204420.41   -23282.074    1750.3072   -25032.381   -1041.7206    703.72013    95.110788    14.585961    27.853285 
  100800    239.10792   -262.95174    204420.41   -23341.666    1735.5104   -25077.177   -370.41608    704.09671    95.110232    14.588596    27.864705 
[...]
 5175800    223.26827   -447.51702    204420.41   -25547.885    1620.5419   -27168.427   -1032.8048    2935.7959    94.405126    15.367099    28.116718 
 5176000     224.9268   -599.00702    204420.41   -25564.747      1632.58   -27197.326   -1538.3248    2940.0045    94.404749     15.36694    28.123789 
 5176200    229.41331   -381.95384    204420.41   -25584.676    1665.1443   -27249.821    -782.3254    2935.5228    94.404646    15.367582    28.119689 
 5176400    224.98181   -504.56756    204420.41   -25521.639    1632.9793   -27154.619   -1187.9709    2938.7879    94.404183    15.367492    28.120573 
 5176600    231.69633   -481.15934    204420.41   -25458.739    1681.7151   -27140.454   -1128.7572    2938.3735    94.403594     15.36787    28.130806 
 5176800    226.90324   -469.98205    204420.41   -25524.401    1646.9255   -27171.326   -1091.8936    2938.2802    94.403369    15.367464    28.122273 
 5177000    229.13262   -474.29384    204420.41   -25506.439     1663.107   -27169.546   -1108.5395    2936.3882    94.403863    15.366702    28.123377 
 5177200    236.12688   -498.44015    204420.41   -25472.468    1713.8733   -27186.341   -1210.3072    2938.6999    94.404535     15.36552     28.12339 
 5177400    233.26611   -442.92339    204420.41   -25432.022     1693.109   -27125.131   -974.74952    2937.8715    94.405059    15.364828    28.134534 
 5177600    225.81881   -504.01589    204420.41   -25527.821    1639.0545   -27166.876   -1226.3846    2938.0757    94.404379    15.364521    28.130056 
 5177800    224.27765   -485.99519    204420.41   -25548.858    1627.8683   -27176.726   -1145.4062    2938.9674    94.403608    15.365123    28.128324 
 5178000     221.9568   -387.51319    204420.41   -25543.511    1611.0229   -27154.534   -789.25869    2937.0385    94.403111    15.364433     28.12911 
 5178200    226.91187   -497.73134    204420.41   -25533.746    1646.9882   -27180.734   -1190.6219    2938.4184    94.402519     15.36531    28.126573 
 5178400    228.19099   -489.42012    204420.41   -25542.268    1656.2724    -27198.54   -1175.0949    2938.5612    94.403013    15.365096     28.12125 
 5178600     224.6904   -496.47317    204420.41   -25506.237    1630.8642   -27137.101    -1158.778    2937.0507    94.403213    15.366029    28.124743 
 5178800    226.37195   -596.17681    204420.41   -25511.655    1643.0693   -27154.725   -1577.5305    2939.3542    94.404312    15.366609    28.131804 
 5179000    222.06807   -357.01897    204420.41   -25554.044    1611.8306   -27165.874   -715.09335    2935.7523    94.403708    15.366412    28.128519 
 5179200    223.65978   -595.69501    204420.41   -25555.257    1623.3836    -27178.64   -1517.7898    2938.2807    94.403757    15.364857     28.12184 
 5179400    233.29298    -442.4565    204420.41   -25486.032     1693.304   -27179.336   -998.78276    2935.6797    94.403184    15.365001     28.12229 
 5179600    222.76238   -609.74351    204420.41    -25546.24      1616.87    -27163.11   -1583.6024     2940.185    94.404118    15.366283    28.124571 
 5179800    227.96599   -379.43244    204420.41    -25544.15    1654.6392   -27198.789   -760.21484    2934.7743    94.403449    15.366181    28.106629 
 5180000    218.62729   -481.37944    204420.41   -25623.375    1586.8564   -27210.232   -1111.6585    2938.2869    94.403793    15.365739    28.118882 
 5180200    217.73486   -434.80009    204420.41   -25608.559    1580.3789   -27188.938   -949.90633    2935.2376     94.40443    15.365082     28.11604 
 5180400    225.84311   -441.57483    204420.41   -25531.131    1639.2308   -27170.361   -1012.0999    2936.8997    94.404863    15.365128    28.116442 
 5180600    222.47819   -439.05896    204420.41   -25516.644    1614.8073   -27131.451    -993.3006    2937.2805    94.404836    15.366527    28.115191 
 5180800    231.88922   -398.85632    204420.41     -25560.6    1683.1151   -27243.715    -831.2726    2934.6299    94.405357    15.366968    28.117962 
 5181000    221.34348   -591.19138    204420.41   -25579.453    1606.5713   -27186.024    -1478.178    2938.8794    94.405723    15.366698     28.11489 
 5181200    222.31926   -422.63223    204420.41   -25558.804    1613.6537   -27172.458   -914.91979    2934.5672    94.406188    15.365873    28.100696 
 5181400     235.5615   -571.43988    204420.41   -25475.014    1709.7695   -27184.783   -1415.4342    2937.7051      94.4053    15.364516    28.091484 
 5181600    217.52411   -355.51161    204420.41   -25594.725    1578.8493   -27173.575   -669.33465    2933.2902    94.405963    15.366948    28.094008 
 5181800    225.54106   -546.79797    204420.41    -25484.29    1637.0385   -27121.328   -1406.2857    2935.6104    94.405327    15.366129    28.095966 
 5182000    228.84248   -421.09826    204420.41   -25518.531    1661.0011   -27179.532   -904.43946    2935.8555    94.404546    15.365754    28.106319 
 5182200    228.36361   -460.32816    204420.41    -25493.44    1657.5253   -27150.965   -1047.5003    2936.5186    94.404175    15.364998    28.118136 
 5182400    224.29642   -568.95781    204420.41   -25569.268    1628.0046   -27197.272   -1484.4145    2937.3207    94.403523    15.366163    28.119203 
 5182600    229.02827   -474.85298    204420.41   -25532.566    1662.3496   -27194.915    -1104.922    2935.7941    94.403281    15.366007    28.115052 
 5182800    224.57739   -535.63377    204420.41   -25491.535    1630.0439   -27121.579    -1298.693    2938.6867    94.403027     15.36641    28.122898 
 5183000    228.10052    -327.5387    204420.41   -25469.051    1655.6157   -27124.667   -605.57739    2933.4653    94.402948    15.365759    28.109497 
 5183200    232.93989   -540.54134    204420.41   -25495.865    1690.7412   -27186.606   -1299.0273     2937.498    94.402916    15.365258    28.117673 
 5183400    225.02402   -390.17478    204420.41   -25615.221    1633.2856   -27248.506   -804.52012    2936.1159     94.40386    15.364586    28.120165 
 5183600    218.50283   -399.05279    204420.41   -25596.923     1585.953   -27182.876   -837.19742    2934.9495    94.403959    15.365002    28.109753 
 5183800    226.02846   -446.09185    204420.41   -25575.972    1640.5761   -27216.548   -991.13548    2936.8185    94.404882     15.36444     28.11338 
 5184000    231.98204    -445.0136    204420.41   -25500.684    1683.7889   -27184.473   -1005.0818    2935.4787    94.405296    15.364138    28.108094 
 5184200      224.426   -466.15912    204420.41   -25521.096    1628.9451   -27150.041   -1037.2509     2936.786    94.405933    15.362921    28.107262 
 5184400    232.32597   -484.77323    204420.41   -25505.413    1686.2852   -27191.698   -1113.4541    2936.0607    94.406204    15.361825    28.112243 
 5184600    226.14711   -478.64626    204420.41   -25543.527    1641.4374   -27184.965   -1115.2737    2936.9639    94.405933    15.361684    28.109929 
 5184800    227.52488   -362.25197    204420.41   -25525.332    1651.4376    -27176.77    -720.6604    2936.4836    94.406369     15.36107    28.112075 
 5185000    227.38164   -517.74761    204420.41   -25533.961    1650.3979   -27184.359   -1245.6881    2937.5624    94.406397    15.362074    28.119408 
 5185200    222.03298   -452.59123    204420.41   -25592.025    1611.5759   -27203.601   -1031.0873    2935.3237    94.406979    15.360821    28.123496 
 5185400    224.94986   -475.02915    204420.41   -25518.644    1632.7474   -27151.391   -1107.1255    2936.3234    94.407003    15.360543    28.124845 
 5185600    227.68588   -540.67365    204420.41    -25517.95    1652.6062   -27170.556   -1324.9965    2936.5199    94.407356    15.358032    28.117687 
 5185800    230.06624   -454.48758    204420.41   -25494.124    1669.8834   -27164.008   -1046.4585    2934.4743    94.407077    15.356095    28.118464 
 5186000    224.68663   -494.39654    204420.41   -25507.088    1630.8368   -27137.925    -1184.598    2936.5249    94.407133    15.355624    28.111543 
 5186200    230.58989   -463.68735    204420.41   -25483.589    1673.6843   -27157.274   -1075.5321    2935.2358    94.406947    15.353754    28.117705 
 5186400    233.01595   -532.16711    204420.41   -25523.814    1691.2933   -27215.108   -1315.6859    2937.5229     94.40717    15.351966     28.11661 
 5186600    227.02537   -527.55121    204420.41   -25502.959     1647.812   -27150.771   -1303.6155    2938.8662    94.406674    15.350873    28.119529 
 5186800    233.76705   -426.93628    204420.41   -25519.083    1696.7449   -27215.828   -946.36986    2935.0866    94.406521    15.350143    28.114933 
 5187000    233.32453   -594.56966    204420.41    -25495.01     1693.533   -27188.543   -1488.3336    2940.5915    94.406019    15.350535    28.117972 
 5187200     223.2227   -395.68585    204420.41    -25553.59    1620.2112   -27173.801    -841.8838     2933.301    94.406289    15.349592    28.100518 
 5187400    223.30548   -566.33358    204420.41   -25568.772     1620.812   -27189.584   -1403.6518    2938.0027    94.406227    15.348526    28.110709 
 5187600    230.24723   -483.21529    204420.41   -25481.552    1671.1971   -27152.749   -1141.0996    2937.4395    94.406305    15.347672    28.108944 
 5187800    225.34144   -485.18209    204420.41   -25539.661    1635.5896   -27175.251   -1119.7771    2935.2738    94.406197    15.346705    28.122517 
 5188000    232.43932    -555.0291    204420.41   -25470.971    1687.1079   -27158.079    -1392.395    2938.3364    94.405842    15.346266    28.116061 
 5188200    228.20088   -367.96584    204420.41   -25512.404    1656.3441   -27168.748   -745.25379    2933.6587    94.406314    15.346489    28.120199 
 5188400    222.61168   -653.59878    204420.41   -25511.857    1615.7763   -27127.633      -1728.3    2940.8557    94.405519    15.345954    28.119342 
 5188600    226.14552   -337.09183    204420.41   -25558.648    1641.4258   -27200.073   -623.50293    2931.8852    94.405454    15.345166    28.121099 
 5188800    221.84837   -581.53575    204420.41   -25583.852    1610.2359   -27194.088   -1488.5191    2938.5881     94.40531    15.345284    28.119981 
 5189000    225.70966   -418.39943    204420.41   -25550.118    1638.2622    -27188.38   -914.40172    2935.6418     94.40428    15.344731    28.118243 
 5189200    220.61709   -396.57838    204420.41   -25663.357    1601.2989   -27264.656   -841.12136    2934.3687    94.405237    15.345347    28.110445 
 5189400     221.9715   -545.37765    204420.41   -25609.975    1611.1296   -27221.104   -1337.2939    2939.4176    94.404807    15.344801    28.115946 
 5189600    226.03318   -404.27897    204420.41     -25540.2    1640.6104   -27180.811   -907.05705    2934.5995    94.405088    15.344671     28.12054 
 5189800    219.77813   -581.20368    204420.41   -25569.442    1595.2096   -27164.652   -1448.8106    2939.1427    94.405658    15.345369     28.11786 
 5190000    222.62899   -426.97757    204420.41   -25545.715    1615.9018   -27161.617   -919.49553    2934.6985    94.405831    15.345856    28.122129 
 5190200    224.67526   -565.07378    204420.41   -25566.335    1630.7543   -27197.089   -1455.0854    2937.4896    94.405581    15.345657     28.12548 
 5190400    231.31849   -366.20576    204420.41   -25475.363    1678.9726   -27154.335   -719.67829    2935.1974    94.405506    15.345296    28.125348 
 5190600     224.3713   -457.42957    204420.41   -25550.974     1628.548   -27179.522   -1011.9475    2935.7876    94.405764    15.344719    28.118147 
 5190800    228.84856   -506.48778    204420.41   -25520.104    1661.0452   -27181.149   -1244.5762    2937.9255    94.405492    15.344484    28.119578 
 5191000    225.23704   -394.91962    204420.41   -25553.261    1634.8318   -27188.093   -833.16647     2935.655    94.405665    15.345685    28.120067 
 5191200    226.48222   -584.02004    204420.41   -25550.455    1643.8697   -27194.325   -1473.4462    2936.5662    94.406519    15.345007    28.124604 
 5191400    236.24908   -380.70016    204420.41   -25531.725    1714.7602   -27246.485   -739.11733    2934.6034    94.406912    15.344409    28.116082 
 5191600     227.1103   -535.45138    204420.41   -25552.841    1648.4284   -27201.269   -1309.5143    2937.8919    94.407007    15.343583    28.124375 
 5191800     225.0351   -535.56687    204420.41   -25501.005    1633.3661   -27134.371   -1312.6133    2936.6412    94.406878    15.343167     28.13122 
 5192000    231.40981   -477.99107    204420.41   -25489.742    1679.6355   -27169.377   -1147.4816    2937.3928    94.406687    15.342655     28.12457 
 5192200    227.41973   -388.83374    204420.41   -25552.354    1650.6743   -27203.028   -806.36299    2934.4501    94.407005    15.342873    28.129346 
 5192400    227.59122   -638.17524    204420.41   -25551.256    1651.9191   -27203.175   -1694.5028    2939.4255    94.407185    15.343313    28.118483 
 5192600    226.42578   -461.07992    204420.41   -25576.883      1643.46   -27220.343   -1077.1908    2934.7477    94.407243    15.343809    28.127659 
 5192800    227.91903   -458.34597    204420.41   -25530.089    1654.2984   -27184.387   -1042.0687    2938.5029    94.407703    15.343419    28.132497 
 5193000    221.45432   -461.17059    204420.41   -25590.496    1607.3758   -27197.872   -1060.6675    2935.3005    94.407636    15.342178    28.123717 
 5193200     230.7053   -478.88341    204420.41   -25526.679    1674.5219   -27201.201   -1144.1229    2934.8218    94.407655    15.341875    28.124479 
 5193400    230.47275   -608.52904    204420.41   -25517.445     1672.834   -27190.279   -1548.0594    2938.6499     94.40769    15.341644    28.113952 
 5193600    227.38131   -513.97023    204420.41   -25514.369    1650.3955   -27164.764   -1262.8526    2934.4005    94.408134    15.339954    28.122067 
 5193800    229.35917   -596.86248    204420.41    -25533.13    1664.7514   -27197.881   -1510.1498    2938.5367    94.407656    15.338851    28.122738 
 5194000    222.23048   -336.76201    204420.41   -25643.151    1613.0094    -27256.16   -608.39748    2933.7325    94.408388    15.338598    28.132404 
 5194200    221.44365   -518.00491    204420.41   -25584.953    1607.2983   -27192.251   -1218.4035    2937.6461    94.408406    15.339482    28.124918 
 5194400    227.15002   -435.79093    204420.41   -25526.644    1648.7168   -27175.361   -975.35262    2935.1709    94.409089    15.340013    28.134314 
 5194600    235.03423   -488.81294    204420.41    -25504.15    1705.9425   -27210.093   -1171.1528    2936.3596    94.408943    15.339936     28.12708 
 5194800    231.97305   -516.39155    204420.41   -25522.414    1683.7236   -27206.138   -1220.4278    2937.5668    94.409133    15.339904    28.127051 
 5195000    222.27952   -468.08053    204420.41   -25527.082    1613.3653   -27140.447   -1105.2037    2935.9548    94.409203    15.338648    28.123008 
 5195200    230.55618   -591.75636    204420.41   -25516.294    1673.4396   -27189.733    -1508.767    2941.3426    94.408956    15.339629    28.116511 
 5195400    226.17284   -359.68023    204420.41   -25524.273    1641.6241   -27165.897   -713.81616    2933.8815    94.410009    15.339546    28.119382 
 5195600     220.9171   -550.73301    204420.41   -25555.334    1603.4765   -27158.811   -1355.6886    2939.2004    94.411036    15.340673    28.112986 
 5195800    230.41352   -337.11964    204420.41   -25460.129    1672.4041   -27132.533   -641.01452    2935.0003    94.410884    15.340393    28.114515 
 5196000    228.66777    -526.1282    204420.41   -25534.525     1659.733   -27194.258   -1279.1093    2938.2983    94.411496    15.340676    28.122804 
 5196200    226.93961   -461.64063    204420.41   -25544.998    1647.1895   -27192.187   -1082.7796    2936.6712    94.412091    15.340344    28.107149 
 5196400     231.4006   -504.10234    204420.41   -25530.369    1679.5686   -27209.938   -1210.2972     2937.242    94.413662    15.340813     28.11859 
 5196600    226.03026    -475.2029    204420.41   -25511.484    1640.5892   -27152.074    -1104.474    2937.6121    94.413054    15.340412     28.11615 
 5196800    228.63194   -385.49794    204420.41   -25511.143    1659.4729   -27170.615   -819.11738    2934.9561    94.413696    15.340263    28.121393 
 5197000    227.40579   -615.96944    204420.41   -25471.099    1650.5732   -27121.672   -1575.3369    2938.7451     94.41338    15.340171    28.114443 
 5197200    229.14475   -362.35907    204420.41   -25567.606     1663.195   -27230.801   -754.11847    2933.3994    94.413449    15.340152    28.122092 
 5197400    224.60899   -579.27043    204420.41   -25562.769    1630.2732   -27193.042   -1468.3619    2938.7943    94.413778    15.340497    28.117089 
 5197600    226.83668   -416.91473    204420.41   -25581.386    1646.4424   -27227.828     -917.586    2934.8731    94.414442    15.340808    28.119206 
 5197800     223.0882   -495.73391    204420.41    -25615.17     1619.235   -27234.405   -1188.3958    2936.0456    94.414863    15.340919    28.126047 
 5198000    230.63111   -355.29682    204420.41   -25489.183    1673.9834   -27163.166   -667.34249    2934.3855    94.415525    15.341511    28.130274 
 5198200    226.70701   -455.82625    204420.41   -25502.433    1645.5013   -27147.934   -1045.6641    2937.1153    94.415663    15.342363    28.132366 
 5198400    219.59193   -554.52501    204420.41   -25559.277    1593.8581   -27153.135   -1368.6737    2936.9996    94.416422    15.342822     28.12967 
 5198600    221.29671   -453.17395    204420.41   -25607.918    1606.2318    -27214.15   -1017.9513    2934.9983    94.417443     15.34382    28.136539 
 5198800    229.18346   -548.72592    204420.41   -25537.796     1663.476   -27201.272   -1348.2996    2937.7735    94.416847    15.342617    28.119305 
 5199000     229.3513   -397.89535    204420.41   -25479.644    1664.6943   -27144.339   -842.91931    2933.8447    94.416729    15.341958    28.137256 
 5199200    227.95399   -502.84528    204420.41   -25535.989    1654.5521   -27190.541   -1219.7299    2938.5935    94.417025    15.342499      28.1214 
 5199400    227.70124   -402.74351    204420.41    -25525.68    1652.7176   -27178.397   -802.88467    2935.2992    94.416923     15.34309    28.134986 
 5199600    230.67503   -538.20413    204420.41    -25509.96    1674.3022   -27184.262   -1349.2236     2937.094    94.416149     15.34324    28.115436 
 5199800    233.58308   -441.15809    204420.41   -25531.958    1695.4097   -27227.368   -1028.7485    2935.6088    94.416822    15.343511    28.123019 
 5200000     228.6115   -459.72069    204420.41   -25493.397    1659.3246   -27152.721   -1069.6181    2935.5178    94.416393     15.34425    28.125754 
Loop time of 6149.67 on 160 procs for 5200000 steps with 8482 atoms

Performance: 730.576 ns/day, 0.033 hours/ns, 845.574 timesteps/s
98.0% CPU use with 160 MPI tasks x no OpenMP threads

MPI task timing breakdown:
Section |  min time  |  avg time  |  max time  |%varavg| %total
---------------------------------------------------------------
Pair    | 0.23626    | 1522.5     | 4906.5     |4536.2 | 24.76
Neigh   | 0.33652    | 87.545     | 332.35     |1089.7 |  1.42
Comm    | 8.1459     | 1600.3     | 4968.1     |4263.0 | 26.02
Output  | 81.133     | 81.199     | 83.317     |   1.9 |  1.32
Modify  | 285.54     | 2770       | 5976.3     |4599.4 | 45.04
Other   |            | 88.13      |            |       |  1.43

Nlocal:    53.0125 ave 164 max 0 min
Histogram: 58 6 56 0 0 0 0 5 5 30
Nghost:    543.069 ave 886 max 0 min
Histogram: 16 4 1 3 16 32 21 15 34 18
Neighs:    0 ave 0 max 0 min
Histogram: 160 0 0 0 0 0 0 0 0 0
FullNghs:  5285.73 ave 20574 max 0 min
Histogram: 93 27 0 0 0 0 0 6 12 22

Total # of neighbors = 845716
Ave neighs/atom = 99.7071
Neighbor list builds = 540502
Dangerous builds = 0
write_data 		${DIR}/data.${NAME}_run
write_data 		run_13/data.${NAME}_run
write_data 		run_13/data.ibeam_cooling_13_run
Total wall time: 1:42:43
