LAMMPS data file via write_data, version 29 Oct 2020, timestep = 35693

2316 atoms
1 atom types

0.0 157.504 xlo xhi
0.0 36.48765944037512 ylo yhi
0.21165356389918522 29.78834643610105 zlo zhi

Masses

1 18.015

Atoms # atomic

694 1 51.0466144146557 16.326254079327576 8.619908767525432 0 0 0
115 1 51.266598739687794 3.7679153675958195 1.5713541341599933 0 1 1
8 1 48.81286602805585 8.97162527001859 26.38544967639137 0 0 0
576 1 47.22816736113688 11.781516528113219 27.43088624867266 0 0 -1
31 1 47.18338144005537 14.432088888202319 1.6186962861569638 0 0 1
90 1 48.66647689646688 12.500724764572347 29.658102025226594 0 0 -1
73 1 49.37441468422186 17.251979848078655 14.117915773403782 0 0 0
182 1 49.88578419673198 14.838497344285074 3.2978535958974633 0 0 0
213 1 48.03381343619533 0.5603017008371515 4.150309619823337 0 1 0
162 1 50.54254739596545 1.3104666564238938 3.115213434823623 0 0 0
113 1 51.35752609625987 2.797610634208217 6.02579558249661 0 0 0
212 1 50.083024002227965 4.918545802190872 3.9866326893431663 0 1 1
192 1 50.65758914605722 7.648010693541777 3.9128904238324838 0 0 0
3 1 49.090131473479794 10.047677192610438 1.6018567817355553 0 0 1
218 1 47.162919373592196 17.43909081373537 12.637637367301458 0 0 0
107 1 46.50400898759708 12.840072676789724 3.9064867622470727 0 0 1
404 1 51.96532059442439 10.254319268035669 9.215034646447794 0 0 0
86 1 49.25079837369022 16.247987219758087 6.218281806607576 0 0 0
92 1 51.47347560309432 16.932865535972272 1.863044643320087 0 0 0
193 1 51.326305141398684 1.115679008351815 9.721398733188426 0 0 0
37 1 51.708668789478494 13.764066961403296 21.847289261326715 0 0 -1
68 1 51.29280359876231 9.99280359744413 12.791541560286165 0 0 0
174 1 45.68308316713572 15.94943785104692 29.16314919770027 0 0 -1
97 1 48.991664856338744 4.444431798806767 7.0296120574573475 0 0 0
79 1 49.20152118356044 7.278583220236303 7.770214925117921 0 0 0
105 1 49.44926755076937 9.120589238189979 5.782479697998709 0 0 0
88 1 47.503337055297116 10.281801415145244 3.8873789720879595 0 0 0
91 1 50.97839452355594 11.481224517683176 6.675925742770038 0 0 0
418 1 52.26097565265032 12.233771275135807 11.41272016377179 0 0 0
28 1 52.18093019775406 11.497837105751165 23.168687014093692 0 0 0
40 1 48.87890279675704 1.2522845087109724 12.865365157351365 0 0 0
81 1 49.67095963728179 4.029327195671372 11.94988280567921 0 0 0
173 1 50.2135816396264 17.913143256467542 4.222816560801479 0 0 0
94 1 48.86144500413855 7.924859862487171 10.582522342052586 0 0 0
38 1 49.96355309790155 8.34624933097076 29.016132239473112 0 0 -1
355 1 51.920854009691496 7.373087122202314 8.044283171183507 0 0 0
67 1 51.641778296397085 7.903325868062902 11.13415312645411 0 0 0
87 1 48.694672874269514 10.525787966399642 12.015831794277844 0 0 0
803 1 49.52464102570687 16.743812189659238 28.830793633727023 0 0 -1
76 1 49.837320833002096 13.7184152849146 11.442101166861669 0 0 0
215 1 51.38330191033137 0.7198062672482194 26.20865436805971 0 0 -1
77 1 48.65162872200133 13.490332911217152 5.778269566724448 0 0 -1
528 1 51.22993783676306 16.078326524892592 12.104865520875162 0 0 0
108 1 52.18246173791447 13.550835873663402 1.968248194225568 0 0 0
110 1 50.08606631151782 13.585398087847961 8.682367169867666 0 0 0
95 1 51.07446609131875 8.018995626911288 17.991798494875653 0 0 0
45 1 51.38646346415767 16.79300081561588 16.50203010523362 0 0 0
579 1 51.257537064062184 1.1286402556490194 14.240162339891624 0 0 0
1112 1 51.00109163881657 3.487479748537635 15.599021073261612 0 1 0
71 1 47.598485393874654 6.138337055124639 12.109955233695315 0 1 0
32 1 48.07995786711802 6.7195461195605795 14.717292752312282 0 0 0
542 1 50.55922418742581 5.776779185729205 13.984878430875645 0 0 0
69 1 48.18605140643969 9.690199656222308 14.681332023607157 0 0 0
444 1 50.654548955071775 10.437114048226084 16.055152784226802 0 0 0
66 1 47.738101557594504 13.045147423114651 13.33143331121781 0 0 0
109 1 46.22594342278232 11.772291322432888 15.271422088034837 0 0 -1
24 1 52.062164706724296 3.497150698378696 25.953068253667716 0 0 0
63 1 45.69552383799931 15.31839656631143 13.538124298582158 0 0 0
34 1 51.307118076014 12.165391781544454 18.128490478030166 0 0 0
154 1 49.491276110877216 2.7126526897778995 17.78260989570083 0 0 0
20 1 49.19506566748203 5.423483124665025 26.664701128588018 0 0 -1
41 1 50.11538609663125 5.044847357731858 18.865210958196112 0 0 0
53 1 48.41528327614314 7.185549269152425 17.521392410802047 0 0 0
82 1 44.95626873324259 13.713080873331762 27.14072519301773 0 1 0
60 1 48.38042177849518 10.066066820268736 18.327435115994234 0 0 0
25 1 46.09724187557981 13.714582233343215 17.154766009793427 0 0 0
478 1 51.408666470739 18.051533953203013 20.9020622725574 0 0 0
58 1 49.99672608697817 14.561265404547425 17.381114890039985 0 0 0
39 1 49.673928582485416 11.46624957333723 20.39886660836514 0 0 0
4 1 50.58149804533896 3.9139252112053153 9.458409619066877 0 1 0
22 1 51.855173529579304 6.316647261554111 28.355095946683615 0 0 -1
27 1 47.17821220331799 16.148760813976327 16.01345868805961 0 0 -1
216 1 49.200339210759104 5.788288601625894 21.514758058492482 0 0 0
30 1 49.882880514611365 8.462137503427755 20.73369515638049 0 0 0
51 1 46.188494728678975 11.738081382622065 19.321061582747166 0 0 0
54 1 46.862258437921085 12.809789002567422 22.085936958337015 0 1 0
16 1 48.925002008717726 14.589098059039825 21.768402274021913 0 0 -1
33 1 52.18226235849383 6.790820823937457 1.6267375411622895 0 0 0
42 1 49.62874352410225 16.226803681022094 19.552535498151848 0 0 0
656 1 52.34993043754853 9.375943662439214 27.05949594597152 0 0 0
7 1 48.43151923240273 12.566410611001302 25.130827216681006 0 1 -1
52 1 51.373390987699125 4.915549852675167 23.324915334070955 0 0 0
270 1 47.94943364557605 10.526904957014986 23.321661435654025 0 0 -1
36 1 51.1113244799845 7.461103161711737 24.89975578747907 0 0 0
75 1 50.40468741547873 9.462632162800498 23.25382532377747 0 0 0
15 1 46.00420842845715 14.221126879735737 24.7725363532943 0 0 0
29 1 51.005811129199316 13.370337568253335 26.74916343440085 0 0 -1
48 1 50.73480100057083 15.80269636746989 25.578989691972257 0 0 0
61 1 46.95944593712738 17.2493222723275 7.735112075848916 0 0 0
530 1 48.787288939243 16.79670712303546 23.633673109527958 0 0 0
49 1 46.58119386061124 16.76479771073263 25.057302525858713 0 0 0
43 1 50.147573917329275 0.16265994316998753 18.838937823042585 0 1 -1
84 1 50.520560506406035 14.319018027960212 29.264805501921757 0 0 -1
10 1 47.040645239640384 17.75177863075479 27.68008600621769 0 0 0
225 1 50.442843109470914 3.7973736528410265 28.383957435523556 0 1 0
23 1 51.406599659921426 0.21092293145926166 7.057524414274684 0 1 0
177 1 49.22750592626064 0.9652549215807119 28.43512596422581 0 1 0
501 1 50.30220899264225 13.089753931718052 14.896798217178638 0 0 0
236 1 51.76530272538161 10.683368542043876 2.4571707599702433 0 0 0
158 1 48.24960482210869 17.44393222608725 1.6255527724366259 0 0 0
74 1 52.43191004763121 14.678004683822005 14.307593243282382 0 0 0
292 1 51.51949245833893 17.967430410990655 26.96637914042955 0 0 -1
682 1 52.372358220671615 16.073305913094735 23.358155240543912 0 0 -1
1055 1 51.919760524637496 29.720591795697793 27.67113417264005 0 0 0
163 1 46.49163956633558 18.810049425893823 17.02275840406228 0 0 0
268 1 50.47844797946243 20.88956005688058 4.870010103841949 0 0 0
222 1 45.92652104628191 20.720093317962075 2.4506619495600566 0 0 0
178 1 48.00938753858698 20.17524291504392 0.7736268368256556 0 0 0
703 1 50.11708061481267 21.54281108033693 2.134586041056134 0 0 0
197 1 45.3924502909602 24.72915603396182 3.1602560387559047 0 0 0
141 1 48.70036900438664 23.97827399163775 1.6545550327244487 0 0 0
150 1 50.4153204919317 24.71871444823925 3.952068190704067 0 0 0
198 1 47.474778266691736 26.523693798574573 2.167534324427153 0 0 1
205 1 47.82710154553963 29.649411171445664 29.62334922895914 0 0 -1
220 1 49.36260069957524 27.337916396601237 4.057872221660626 0 -1 0
123 1 51.70953525716973 19.763879625519202 0.8399990641407766 0 0 1
199 1 50.66487184868516 30.041074993570756 0.8823158096813599 0 -1 0
142 1 48.057542636222 32.395761196207765 1.1450024236395717 0 0 0
151 1 51.504913051714496 32.82010296732438 0.5669741403931902 0 -1 1
118 1 51.30355132556872 33.64605664973465 3.4773298706577838 0 0 1
902 1 51.72033297869165 19.71422104876699 16.996054688337363 0 0 0
121 1 47.73390270887224 19.36907789205942 5.602848514409906 0 0 0
117 1 45.25159251982927 18.37842061587895 23.217529858237544 0 0 0
130 1 45.41232066904286 20.659175278055365 5.275852533737527 0 0 0
131 1 46.70916834074889 23.645827042235013 5.400677269932842 0 0 0
181 1 48.73498707273784 21.92233550453315 6.848986393320426 0 0 0
126 1 50.330396272566816 24.208181156762862 6.783940650591065 0 -1 0
761 1 49.70479904992395 24.142500130445274 28.568147971771936 0 0 -1
204 1 45.96988346621221 25.245866639443502 7.402425299047282 0 0 0
223 1 48.37682166565634 26.53477123616266 6.8391742282437 0 0 0
832 1 50.81583683364545 30.20813667156257 3.65633936788307 0 0 0
202 1 48.67568536565176 30.503617040664274 5.707878971999323 0 0 0
195 1 47.50847096340021 34.661020488252355 5.6161791057446555 0 0 0
217 1 48.69022438919323 32.69947788030255 3.979868130835209 0 -1 0
128 1 50.92924747774256 18.917090539497558 9.566734354580056 0 0 1
727 1 50.57913619824511 34.10448496299663 27.440827232448562 0 0 0
849 1 52.123776195539364 19.095405755836687 11.990581951598957 0 0 0
224 1 48.85105749683572 21.270585185362084 9.724994324709066 0 0 0
207 1 47.5117324599619 24.27909103740188 9.605411349728735 0 0 0
175 1 52.19326746236179 25.29991880838778 8.914449794227462 0 0 0
203 1 49.5687890061521 29.119451400291073 10.110861854736756 0 -1 0
945 1 50.19219901851201 28.955216135762342 7.580827236942771 0 0 0
186 1 48.22180903713893 31.727161996999197 9.735970720803097 0 -1 0
148 1 50.10608374366309 32.040666686471546 7.8133155962322 0 0 0
201 1 49.40826284788844 35.03688171049559 7.725238409744422 0 0 0
210 1 46.080767686824984 20.901471626230506 10.863667754059012 0 0 0
171 1 45.70039542368887 23.679517799007698 11.429881536143428 0 0 0
209 1 47.54072888465155 22.83092776647062 13.572527322782351 0 0 0
156 1 49.688492309810634 22.97978627911844 11.626706983400952 0 0 0
179 1 51.72421047184316 22.173499566253145 13.404309282447006 0 0 0
187 1 48.26623429649715 26.83212325365411 10.848104760076664 0 0 0
807 1 50.52989427241247 25.548530461410003 11.285829117351037 0 0 1
1105 1 52.42316874268319 23.296631170126414 0.9380476765487005 0 0 1
712 1 48.133587863304186 33.8817241493807 28.365620670824438 0 0 0
185 1 51.87306568432986 30.074011575826713 11.48623783539209 0 0 0
155 1 52.11021479693635 35.94375851162039 23.809586517881037 0 0 0
194 1 49.59058824984907 33.61445144359833 11.621203277919038 0 0 0
221 1 49.04064725811116 36.122264972823075 10.495529944376564 0 -1 0
180 1 49.507632620053805 33.76752527017324 14.503406344391445 0 -1 0
172 1 46.39176259495078 19.898937717142875 13.32904080114315 0 0 -1
168 1 48.038085930363735 20.56301306044154 15.947607275703813 0 0 -1
206 1 50.63673356686557 19.85687955502922 14.478196866739417 0 0 0
145 1 48.338807223950475 25.054190299626903 15.127359245685838 0 0 -1
159 1 47.27843357159242 29.995946927999565 26.680633895560305 0 0 0
191 1 50.53079434819481 26.407752432179365 14.572330180586064 0 0 0
188 1 51.2392000628903 29.426612255397647 14.349638725302464 0 0 0
1012 1 52.00297446430547 20.660325850510063 23.583814919614202 0 0 0
21 1 50.09126836290717 31.494636756054664 15.721553433204313 0 0 0
183 1 50.94248598911505 35.76707138402225 16.12154185907879 0 0 0
567 1 49.857709518174 20.33490769411602 19.137302905264256 0 0 0
196 1 47.58461684784187 26.904727034116334 28.849870953673186 0 0 -1
149 1 46.55423993043013 23.05868724983344 18.913998295484323 0 0 0
164 1 48.485157545052864 23.09923360569743 17.06058971348586 0 0 0
152 1 51.02152599150787 23.167762070758478 18.308108918932128 0 0 0
136 1 47.589170772129364 26.817536030822044 17.16364849023173 0 0 0
161 1 51.62540966163325 25.749806630129196 19.180450590584805 0 0 0
696 1 52.25079572870552 32.87038046963661 11.241334159275498 0 -1 -1
157 1 49.29503789427612 28.115912276260442 18.949762803907507 0 -1 -1
55 1 47.97871593136288 30.001303551359364 17.37469799234923 0 0 0
763 1 50.55583044907451 26.71557605667104 27.999987739514598 0 0 0
744 1 51.868739172818366 27.395609740171675 0.8533769687332285 0 0 0
160 1 46.53151756896965 32.65351389769856 26.367237893695165 0 -1 0
46 1 47.2299601863024 20.01508887768035 21.811268915040824 0 0 -1
1048 1 51.507297707279655 21.96997927259255 21.01588993841086 0 0 0
138 1 47.19472828064977 22.836494333339864 21.719377551209053 0 0 -1
784 1 49.86171362787053 23.636545339258962 22.296697497298542 0 0 -1
166 1 45.5317103980248 25.760127275950246 18.904638539460283 0 0 0
169 1 49.783517853621106 26.1572304529883 21.38958260085895 0 0 0
1002 1 46.62582496428523 25.58399386511661 21.47137911742794 0 0 0
208 1 47.39741477749096 35.339072226203626 1.9452941459678517 0 0 0
132 1 46.169527438403975 28.983268705301324 24.480486660493824 0 0 0
146 1 50.70162054391202 30.71235440848006 20.483372054698673 0 0 -1
129 1 47.947710100798794 31.553120144695168 19.751625747814145 0 -1 0
143 1 48.09744876229665 30.303362523037354 22.60760636284314 0 0 0
13 1 46.416828820554635 20.573834565482727 27.775310333769248 0 0 -1
116 1 50.94491352791456 32.78413070573229 17.990311116647693 0 -1 0
176 1 49.27507276335953 34.41817260957761 19.99255762650604 0 -1 0
119 1 50.026227941779375 29.950008053067243 25.702007429684926 0 0 0
65 1 44.53684689113478 20.24572104977344 25.39397477865096 0 0 -1
120 1 49.88001772794111 20.002045959344738 25.924982913197738 0 0 0
135 1 47.60871638674723 22.133841768509175 25.61437846563659 0 -1 0
124 1 45.574213644866774 22.53356331173538 23.968954321801082 0 0 0
1065 1 49.99084234371147 23.60841477338246 25.155529054542008 0 -1 0
122 1 45.051014950618395 24.92078661611941 25.367170818652657 0 0 -1
134 1 44.772845749895104 26.61935278002943 23.291121957785176 0 0 0
137 1 47.35185771703322 26.545686008597524 25.812994859616662 0 0 -1
1113 1 49.909722813728024 26.51992001589319 25.22883098771168 0 0 0
1083 1 50.513675896131595 28.591991412982843 23.245105704264095 0 0 -1
1082 1 47.537688468986474 33.084503650093744 23.65462132884686 0 0 0
184 1 50.57153011331182 32.65312459818577 25.18510281192464 0 -1 0
14 1 47.83597117132655 18.48647358765831 9.95487298762591 0 0 0
153 1 50.03818891745625 34.27362517882119 22.75503988108033 0 0 0
125 1 45.92434595234629 23.112681701935312 0.9378528764452716 0 0 0
57 1 50.39351813957006 21.36027718355096 28.35676457973911 0 0 -1
214 1 46.81904649506669 23.981295035315046 27.878489388270754 0 0 0
890 1 50.69591845690345 35.98520692977779 0.9268131060025594 0 0 0
978 1 51.86729306812876 27.412567480984375 16.908909152792845 0 0 0
1032 1 51.890632225714455 32.509693175270485 21.637595681896837 0 0 -1
165 1 46.605269694527465 36.202338587691926 29.133334323429313 0 0 -1
170 1 52.389303590162825 22.500194497229945 16.11094797297842 0 0 0
62 1 49.63815160615309 19.109328084034935 22.796129900468834 0 0 0
144 1 52.220359113189566 30.030175259438884 18.22363451226158 0 0 0
26 1 47.69086416607542 18.53516109302539 19.400757521645 0 0 -1
1052 1 53.83957197884767 2.9972459904493527 1.5781028533206105 0 1 1
413 1 62.93428314373908 16.824677697785063 7.042727087441687 0 0 0
601 1 62.66357111991266 3.224129607517895 29.738553332001032 0 0 0
377 1 54.47053290248973 14.154759960391505 12.322518173379924 0 0 0
289 1 75.08409335999396 0.3258168045581912 7.847391510380254 0 0 1
293 1 68.56981079822594 1.405914019924746 2.8698848732777633 0 0 1
381 1 70.4527335061341 1.1664609811769422 29.580405052659014 0 0 -1
267 1 52.70072494825486 9.50582488377124 0.5312887269472797 0 0 1
19 1 54.74481684275553 6.157316541044163 2.3816230510900605 0 0 0
227 1 56.848507415482565 3.7237314355862843 3.927997375813321 0 0 0
483 1 60.23952042725091 4.136057959250653 1.7483630712982177 0 0 1
247 1 64.9204873319881 2.768859942229844 1.4091228458352723 0 0 0
663 1 69.01128137996145 3.843089482727809 1.6438501740297211 0 0 1
671 1 71.66424651646894 4.979224843292649 2.1178375064102375 0 0 1
249 1 73.9603920285538 3.3516057055477377 2.0087826643036215 0 1 1
519 1 61.57590132752045 17.54675107145734 11.80420286816144 0 0 0
792 1 69.90769351697276 0.3707400370296483 5.113469458225492 0 0 0
560 1 60.70858147616919 18.131245552547448 23.2935518451983 0 0 0
339 1 55.38273025660617 8.655901963570564 0.9938091262648577 0 0 0
620 1 59.42479660241022 7.654568972116175 28.969993972428764 0 0 0
597 1 61.997695627734856 6.082440543493993 29.427216707108123 0 0 -1
365 1 63.66350947814092 6.830731144312809 2.0914997159055977 0 0 1
508 1 66.07255444755577 5.396449827228738 1.6703216026540124 0 0 1
302 1 70.46480089900606 5.905284447475595 28.89859923966796 0 0 0
646 1 77.90567215238359 7.6937314282872435 2.4956027541326673 0 0 1
276 1 77.587236345266 17.402141927816984 7.452723242118194 0 0 1
102 1 56.171768501790524 12.465731400217301 8.735979827621641 0 0 0
348 1 56.452760278215024 10.045095782911421 3.1858550471342517 0 0 0
252 1 59.46165778313168 11.97410319056886 0.37750051515337035 0 0 1
263 1 60.763178098903964 9.633274258170003 1.0042815526910929 0 0 0
676 1 63.18481956045981 11.030578368241194 0.7376612601423459 0 0 1
272 1 68.9580152205085 8.236620048787488 0.5257770926834235 0 0 1
683 1 76.03245110035006 9.47701336992158 28.326226716969867 0 0 0
104 1 54.85679480919103 13.196106319913495 0.7462162571970097 0 0 0
405 1 59.766084803153895 13.586429481720112 2.3693100923693535 0 0 0
642 1 66.6233018301613 11.851810085726257 1.8259446958607224 0 0 1
259 1 62.75036801657561 13.857646439937012 1.1421817470052567 0 0 0
813 1 69.11268540296044 16.71372660956035 2.9711286323631807 0 0 0
320 1 65.32120295125749 14.299737569807622 0.8384928808056643 0 -1 1
747 1 69.78285623682414 13.100862773299973 0.5432876738579443 0 0 1
265 1 74.73630111673576 14.04244258971095 29.56000029889329 0 0 0
1313 1 76.69422494877618 11.982764599841945 0.24837498059704366 0 0 1
645 1 77.66166004277522 13.87081004181563 2.4291768221621686 0 0 1
114 1 52.98923036118893 11.923070584193344 25.87503604069873 0 0 -1
704 1 55.9906686095128 15.734293099951433 29.667080971708547 0 0 0
1103 1 58.28604885566594 15.868209275028608 1.1944197245899157 0 0 1
797 1 60.576174438842415 16.49793970408502 5.569035964259304 0 0 1
106 1 58.40638745347053 17.457758595012073 3.575581685878378 0 0 0
643 1 72.18133715408793 14.642654510374443 26.97336917284621 0 0 0
229 1 74.00600898442222 15.455677164025888 2.166811254910048 0 0 0
239 1 61.74920295698683 0.5165124612812109 4.714165597697574 0 0 1
737 1 59.135070720189084 2.00537176905904 5.403234140427811 0 1 1
891 1 54.33395649798139 2.201595712949 4.191012698892678 0 1 0
644 1 75.21278872270878 16.72862766452173 24.72889138054571 0 0 0
388 1 64.49700491906528 0.8483377441336701 5.484252377159251 0 0 0
2085 1 77.29236812169505 2.0640676459095593 1.0867901929333654 0 0 0
240 1 74.2749243996418 1.7338340681932707 4.3818994319245625 0 0 1
1146 1 61.25745341794828 1.0955155095022489 1.8757275292486446 0 0 0
1158 1 76.51693122694297 2.917376262601294 5.449378234644108 0 0 0
167 1 53.78218215905298 3.876046748256027 6.871272377482561 0 1 0
230 1 59.65741636523971 4.810246143326006 4.7301936485115315 0 0 1
237 1 65.20211873134939 4.562173800968829 5.2881590097719355 0 0 1
658 1 62.61899526853816 5.306103764972433 3.9070903140750426 0 0 0
253 1 66.09871303205173 2.304498354169316 3.7142771660486993 0 0 1
360 1 67.9727796894696 5.448449421395999 3.9267612860411396 0 0 1
241 1 70.71828116608518 4.792285538292213 4.857622749467934 0 0 1
400 1 72.3329200089938 2.5653788814791545 5.989882798572341 0 0 0
304 1 75.73718180179718 5.875986811943909 5.338212136190046 0 0 1
235 1 54.53732513781808 5.731329786480307 4.956957383583589 0 0 0
395 1 52.923628710659955 7.92978596492042 5.627382037336995 0 0 0
98 1 56.629010495578804 7.255233424575466 5.8779821903691 0 0 0
337 1 57.919092629190956 6.193864209671009 1.2574015999072872 0 0 1
254 1 67.44057744732662 8.13487768659054 2.9478974541639844 0 0 1
322 1 71.09250174508308 7.770982182313171 4.619839636296892 0 0 1
256 1 75.36627882272523 6.299580204148715 2.4188683811440255 0 0 0
303 1 72.99107461351207 7.422373186297113 1.9628696089809405 0 0 1
50 1 53.95672596368636 10.316191498207068 4.373999125078446 0 0 1
1100 1 64.45685575382919 17.808728839791826 1.0058035680727064 0 0 0
396 1 58.09987280988442 7.7163837491489335 3.774029365465622 0 0 0
619 1 60.50663786941334 9.164844942524914 3.6321232404756523 0 0 1
296 1 65.12576889803123 9.5112024036111 2.339922530857877 0 0 0
260 1 62.191786610322055 7.536887337996017 5.094327883477666 0 0 0
255 1 70.78973339970435 9.650701083914766 2.4272266311369206 0 0 1
275 1 72.34611905784762 12.60113598250899 28.896558051363314 0 0 0
291 1 78.2746583023836 10.866826702416047 2.4268520875123483 0 0 1
490 1 73.78630071765167 10.523693296482271 0.936030374830464 0 0 1
2088 1 74.91062796018035 15.667245018686664 27.22516113373522 0 0 0
307 1 55.67211262407936 15.11693708620275 4.166968948359196 0 0 0
246 1 57.0271112644399 13.032340566736478 2.9259416470391426 0 0 0
251 1 62.111925575629456 13.930667464272075 4.52753546245413 0 0 0
311 1 66.42363790917118 15.817008802649266 2.84790578823718 0 0 1
300 1 68.10739336397619 12.035894952655216 4.320700508281469 0 0 1
264 1 71.61682343990923 15.401596648262547 3.3645356343352066 0 0 0
312 1 73.08448603123993 11.455452762807198 3.469228325499539 0 0 0
423 1 70.67364833375727 12.800710089066703 3.054692036457125 0 0 1
1261 1 76.31172937168424 16.5936971488932 3.5210394079363794 0 0 1
56 1 54.65640755301817 16.685724118096715 2.3127269021184205 0 0 0
1363 1 78.19013779217418 9.539157916675261 12.087033938816377 0 0 0
261 1 62.91800948639499 16.400864171816426 3.0326131222069583 0 0 1
373 1 65.17588484595565 15.702601728048595 5.340733272485367 0 0 0
189 1 53.055464762134726 7.264753836018956 13.778240814156401 0 0 0
277 1 56.55777879029852 1.1221125482008323 6.569000645018358 0 0 0
99 1 56.11671105069089 3.251521440024935 8.466995165012031 0 0 0
287 1 61.73241233483361 1.5634101836932648 7.63317001780813 0 0 0
798 1 59.39702476173486 1.4633814307266024 11.547672292520732 0 0 0
231 1 58.968747170919144 2.342566189767224 8.84267068261019 0 0 1
297 1 65.80896518518 1.2855449388640732 8.051806655142272 0 0 1
281 1 70.01075112467328 0.8587984202560544 7.926204831529937 0 0 1
626 1 57.327033946336236 0.4844137671166795 3.017407053373895 0 0 1
334 1 72.44318161432872 1.5226122549806007 8.582349959238112 0 1 0
2084 1 77.59507518356239 1.6932210363901095 7.4421321921995 0 0 1
1996 1 78.7299038421256 15.412714536819367 0.2201460607308305 0 0 1
1 1 57.28430028595909 6.048710055987811 8.294359461907097 0 0 0
411 1 59.71649976333554 4.963738731298157 9.764908114197068 0 0 0
340 1 63.2313133132217 6.657544170441118 8.106003112489121 0 1 0
446 1 64.77753726667166 4.080268034175526 8.166868379529566 0 0 0
298 1 68.31982498803218 2.773046445814034 9.168229379515983 0 0 0
352 1 68.80742580310837 4.841502259736051 7.063596157623679 0 0 0
250 1 73.30615208291259 5.152098324078712 6.9780017120355415 0 0 1
371 1 54.05658894962628 5.497373072712146 11.800272096089667 0 0 0
455 1 55.81772284377986 7.530065462148772 10.932122324996048 0 0 0
96 1 56.908805126404914 9.840128474417885 7.1165781316960155 0 0 0
338 1 60.46450273134208 6.052715349180324 7.127254122246239 0 0 0
299 1 66.29399141118823 7.044196411493779 6.629869939196198 0 0 1
361 1 69.20532915672197 7.1708774217079965 8.608611239740148 0 0 0
234 1 72.19704111874655 7.510940395258048 7.880047766046677 0 0 0
258 1 58.3632893191073 17.40261532902938 26.48231902159244 0 0 -1
356 1 61.10744237862836 11.028365677643789 7.692082446868871 0 0 0
262 1 64.26878003906799 9.112083603030138 5.4923716742444455 0 0 1
366 1 68.75641264251978 9.388235330159295 4.8757571428159805 0 0 0
466 1 68.04224138689763 9.560821896453565 7.503356139243061 0 0 0
313 1 73.04697024711638 9.529026925223967 5.854468518457225 0 0 0
1351 1 75.85555590121109 9.666082423869224 6.204953223854889 0 0 1
587 1 57.76847461171779 12.162091104709914 5.725030371032817 0 0 0
111 1 60.2514840573661 11.651202348820613 4.930521553939204 0 0 0
316 1 60.91169265320638 13.265306159972639 8.849677090251621 0 0 0
357 1 63.3570206288595 11.57491169552726 6.112586719846996 0 0 0
350 1 63.15065948136211 14.875487411592745 8.773326485354122 0 1 0
374 1 65.0516597421415 13.190269792034538 7.4838416742004155 0 0 0
443 1 67.95998077141725 13.520188809901418 6.634979347140269 0 0 0
368 1 69.70635605704648 12.039971846379233 8.01260870936738 0 0 0
301 1 72.53882411091061 12.048293297099752 7.633855868535597 0 0 0
321 1 74.1327240590611 14.269979259818282 7.027943927360857 0 0 1
425 1 74.85396717254761 13.467066069279596 4.435649459099383 0 0 0
473 1 58.22422290570915 14.113368637488058 9.612905011754172 0 0 0
1203 1 77.01434466699399 11.78616162292275 4.958862785620437 0 0 1
363 1 57.05628448793984 16.565667255793137 5.95440098964602 0 0 0
469 1 78.0093564865405 9.443900274802088 18.92488959162345 0 0 0
412 1 58.6773960381782 14.566886614447263 6.929051679744874 0 0 0
850 1 57.705003403710656 16.311991302879136 11.449857842605974 0 0 0
800 1 68.80708080788418 16.600260976932674 11.867347159705448 0 0 1
944 1 67.96158436510024 16.549334680649114 6.852260256523045 0 0 0
324 1 72.53174327467352 16.159172831922103 5.932784100906222 0 0 1
376 1 76.18385211077506 14.986769828090111 8.746560335845466 0 0 0
893 1 55.27821514286232 2.500511571511626 10.885241053689901 0 1 0
342 1 63.64670280162527 3.4058254558028542 11.167191820360593 0 0 0
529 1 52.80818070482436 0.8884317194103988 19.142053995823062 0 0 0
436 1 70.1386656093893 1.3557255495282072 13.083393933133946 0 0 0
64 1 54.86068707771091 17.99068699802435 12.700470836356665 0 0 0
1268 1 77.783883849629 2.546010395478122 10.488335107754502 0 0 0
935 1 56.36571966998561 4.398218194895295 13.041644669619906 0 1 0
112 1 58.88979905465586 5.564462124292234 12.688347098622582 0 0 0
326 1 56.89632549136175 6.975519611381674 15.035752784181666 0 0 0
328 1 60.43620216286209 3.1162455777897575 13.879677423227326 0 0 1
284 1 62.139783205671215 5.958382481337584 10.6059784496525 0 0 0
343 1 64.8085930673332 5.549101563161053 13.774496776398173 0 0 1
351 1 66.38529705407336 4.557657880286624 11.062346017136933 0 0 0
401 1 69.18717477782513 3.9490640503038668 11.807545356022798 0 0 0
389 1 71.7313352433556 5.116024505543362 11.615823939020459 0 0 0
1278 1 73.31581926509604 3.963502762910172 9.718502864498733 0 0 1
1210 1 75.55672400623484 3.81410501030211 11.327210388117983 0 0 1
100 1 52.86875018655281 5.0715322287093745 9.32497838302289 0 0 0
245 1 56.80888892376355 8.868053673268628 13.118099600038747 0 0 0
349 1 59.22745090300458 8.456468440784093 8.101584778746936 0 0 1
101 1 59.10583057384857 8.06560213601045 11.032600705356447 0 0 0
358 1 65.71412675616013 7.838134521498446 12.448810301035067 0 0 0
353 1 66.54746554038272 6.950818358831713 9.851164016827557 0 0 0
305 1 70.7136209278632 7.360723763496945 10.858455955033024 0 0 1
403 1 76.13323804170139 6.5621737896314265 10.420305019822342 0 0 0
226 1 52.64365358764745 16.79179163298646 6.362794926191878 0 0 1
310 1 61.207149698522024 12.204513630256892 11.490717522839963 0 0 0
386 1 63.19375619405536 9.432054483305722 8.817219381764763 0 0 0
521 1 65.73775036355131 10.786476864242614 8.874286926021364 0 0 0
409 1 71.69305055718365 9.725021140029074 11.848304080651399 0 0 0
370 1 74.18465866150727 14.581156994371637 11.289531871562232 0 0 1
424 1 78.14299835003624 13.218168112187595 8.919900594601492 0 0 0
582 1 74.96549863928209 10.198561630113659 8.630985368372254 0 0 1
442 1 54.77821190413926 9.443465786276596 9.301933230637298 0 0 0
331 1 63.45943783789723 1.2689930508511151 9.591241846294754 0 0 0
452 1 58.541297298135625 12.788647933819302 12.164092947757943 0 0 0
11 1 55.79908430613746 12.019199672313894 11.50217318722924 0 0 0
454 1 63.69966431610266 15.670466913523487 11.380109647416202 0 0 0
509 1 65.44241900478636 13.332339837459159 13.027942866859549 0 0 0
419 1 67.1635658443332 11.1319443509515 11.582918968623702 0 -1 1
288 1 71.08348551122552 13.778991364663762 11.362485966909663 0 0 1
369 1 72.96523985477552 11.867290063645562 10.404898828132 0 0 1
997 1 55.98250033259149 0.8787767353312981 15.076257805401491 0 0 0
12 1 53.99152957987561 17.027201521616934 15.347565347395543 0 0 0
232 1 72.92360700951639 0.36851688373319297 25.821846592455685 0 0 0
382 1 67.45096284375674 0.645575594449956 14.331026754065215 0 0 0
359 1 68.55769547957398 13.101469575908942 10.431127983446737 0 0 0
822 1 71.00057272381346 16.59779470350366 9.9428827198968 0 0 0
910 1 74.10125183523189 17.291292226088174 9.990383709946343 0 0 0
996 1 56.31505734211057 3.6849273379275074 15.912545640200062 0 0 0
882 1 60.36368205121982 0.9149713966309297 16.13266196932502 0 1 0
437 1 63.17562280742114 2.708711743486989 13.720361399377705 0 0 0
590 1 64.12117149304429 3.2144247233696652 16.44296595972931 0 1 0
439 1 71.43585121055442 1.2749878310553329 15.512997531511134 0 0 1
649 1 70.79374399481182 17.42760630485875 7.169963460336473 0 0 0
383 1 75.2452769527104 0.6108782077391129 13.149944466987538 0 0 1
44 1 53.569050971267785 4.2977868679015545 16.62448943085942 0 0 0
380 1 59.11283093516257 3.67688982315415 16.52533302214043 0 0 0
341 1 60.16034445904359 6.380633315274786 15.401171128503275 0 0 0
397 1 62.11673589087158 7.168660768453812 17.30153924526484 0 0 0
448 1 64.69849247408912 6.1624575790837435 16.468635013856524 0 0 0
495 1 67.5605290749088 4.8420878137392025 14.312646405560516 0 0 0
460 1 70.22540247718013 3.9162949968050267 15.790328855829229 0 0 0
431 1 72.45570552010427 4.837185017943837 14.34179868430072 0 0 0
458 1 74.86351632348004 3.522153443530017 14.029128408479567 0 0 0
459 1 76.43427715374254 7.911736783681728 12.894448060522262 0 0 0