LAMMPS data file via write_data, version 29 Oct 2020, timestep = 25693

5638 atoms
1 atom types

0.0 157.504 xlo xhi
0.0 36.48765944037512 ylo yhi
0.21165356389918522 29.78834643610105 zlo zhi

Masses

1 18.015

Atoms # atomic

5162 1 3.51263745255396 2.673764277167262 2.1388715650316525 1 0 0
71 1 5.525843519275906 3.0624068157342386 28.375793666360828 0 0 -1
448 1 6.918340160791477 1.6601143621546177 2.7778264879112324 0 0 1
48 1 12.019609517740877 2.182749975687944 2.1000526147634466 0 0 1
5097 1 4.016416307998158 15.602377908900136 21.630434220319046 1 0 0
394 1 15.99024205217502 3.6281729499202138 1.8055420545954293 0 0 0
350 1 21.15028454901882 2.6463186841283215 3.912437366149785 0 0 0
1311 1 20.585919644749353 1.2327960950443073 1.7870275014501615 0 0 0
539 1 1.4185506123630613 2.8711289751857922 29.537225915551858 0 1 0
510 1 4.946753956026465 4.505769477087837 0.9119784509155159 0 1 0
399 1 9.823360892793403 3.7605855291897643 3.0227065159456785 0 0 1
863 1 16.304589427590148 5.188322830913235 28.824414668643428 0 1 -1
94 1 19.15501430030341 5.371205380722837 0.5900303212055394 0 0 0
569 1 24.514954185807962 4.2340840966546525 1.498263892848797 0 1 0
40 1 22.869455100488864 2.2610260561554925 0.42309786806731964 0 0 0
4976 1 0.2004462033127434 5.422173415612192 29.226345128022686 1 0 -1
4790 1 3.411033392087179 6.795097347218329 0.4321697111201663 1 0 1
538 1 9.468702244303008 0.41343668765211977 7.650266439864043 0 1 0
89 1 7.330534905339148 7.719426069350812 2.6695041742748558 0 0 0
2 1 10.153134236711443 6.494934906858594 1.9391938040728973 0 0 1
143 1 15.374118343719607 6.598707143962476 2.994555755039174 0 0 0
7 1 23.255981473989173 7.611926651586099 2.1030923934685037 0 0 0
157 1 25.584276463204255 8.679716300377429 0.6710877473366887 0 0 0
183 1 4.087397071072245 9.894505981098572 27.453346092824752 0 0 0
310 1 2.23868826449968 10.327499386062884 29.692013448908746 0 0 0
66 1 10.411502618086953 10.299540472057572 3.838751954856459 0 0 0
312 1 12.178513464525023 11.323639545410176 1.762779008682838 0 0 1
109 1 17.115979281573747 9.988522894750767 27.875803442725697 0 0 0
654 1 15.965073614520296 10.077135427425691 0.7543643586624212 0 0 0
146 1 16.884036736785774 8.763487556403287 2.877270485459775 0 0 0
491 1 19.47922205413769 8.207297001078032 2.1426802062128494 0 0 0
460 1 13.749644065522931 17.99665961567576 8.068170680045686 0 0 0
381 1 2.4746652133978735 13.297797928030944 1.0698914931561563 0 0 0
176 1 6.03260428817203 11.212479333978179 29.338618609454045 0 0 -1
329 1 7.78677096975163 11.63849384515739 3.202800861263524 0 0 0
290 1 14.378150707725053 12.368162612820434 2.503294260200652 0 0 0
129 1 16.426411184758805 13.469887946824642 1.0209147191570822 0 0 0
341 1 21.03275369887898 14.78700359545787 3.3424734705133705 0 0 1
1478 1 24.657412824829542 13.550665324730243 3.788389532003925 0 0 1
140 1 2.00000773049843 15.908174273845338 1.544627995644424 0 0 1
5035 1 0.7781886929490851 17.316346648346332 20.989697103929828 1 0 0
5100 1 6.4410825757267585 14.527705604860124 2.767997296129453 1 0 0
822 1 12.769672734755362 0.8282915079727202 16.59899237780941 0 1 0
35 1 10.74386828240055 15.88927758066478 3.31499862590716 0 0 0
15 1 13.024101249561259 15.057055140028643 1.7785583773652818 0 0 0
542 1 15.678244691810653 16.070920955512275 0.8062624993225948 0 0 0
136 1 6.587789392132041 17.97715160714195 4.519953263094178 0 0 0
706 1 13.95343206278239 0.718909991752779 24.721981002462876 0 1 0
5003 1 0.23065071922750083 10.448617818273322 7.6249579311788125 1 0 0
781 1 4.530202836333753 1.245941652354183 4.45363502460222 0 1 0
476 1 7.302661471583629 1.9378720009811465 6.826618123014009 0 1 0
429 1 13.9066906716027 3.3606415845290853 4.0493984488361345 0 0 0
349 1 18.675042753756454 2.579587790062428 4.647835530668266 0 0 0
184 1 22.559809198463995 0.6644324673841967 5.273745744603262 0 0 0
5166 1 2.3966154208318193 4.183816164469918 4.043922397888525 1 0 1
137 1 6.205688363998624 5.474728836422675 3.2269344366237886 0 0 0
4753 1 4.459006068344765 6.041521263811901 5.379705967901447 1 0 0
34 1 7.766791249141078 3.728283714045332 4.596876971450532 0 0 0
285 1 8.990338939862724 5.711174015744874 6.512795371121609 0 0 0
114 1 11.282698135727534 3.898135785575936 5.412970742950925 0 0 0
111 1 13.442926703545504 6.1101133014681475 5.160878126073918 0 0 0
57 1 17.63840435574086 5.518282134778888 6.984856702295992 0 0 0
387 1 21.861312681940454 3.891839240846324 7.517413505882729 0 0 0
637 1 24.47477747255499 3.3058924986271903 4.253551962201816 0 1 0
210 1 1.6824943148180649 8.13979424234754 2.453876299241101 0 0 0
5144 1 4.926105554731932 9.048230811303892 1.1397264607224677 1 0 0
5012 1 3.381567729509454 8.64558521708383 5.465413518152488 1 0 1
124 1 6.553978422205983 7.992039885642138 6.50523583187221 0 0 0
679 1 10.771765926473657 7.565439100189222 4.6442530154612625 0 1 1
398 1 11.481798755659453 9.089688407539283 7.399087227584769 0 0 0
274 1 17.40584644893144 5.127885246133292 4.20327314465681 0 0 0
273 1 25.274953281795483 6.538860516038418 3.4709369322024477 0 0 0
1254 1 5.068628270524029 10.288200647942071 3.7666015900150356 0 0 1
636 1 6.6127086205090135 10.77445191000825 6.192522290420367 0 1 0
295 1 11.228444385852631 11.721200971813081 6.28771307458781 0 0 1
112 1 16.719654126501517 10.090474675298735 5.3726988924843955 0 0 0
523 1 14.205697540187234 11.8130824935973 5.592034488974793 0 0 0
296 1 16.898324147232586 8.267672339615325 7.401816679528013 0 0 0
556 1 19.35685969089392 11.141766075763636 4.334554194336388 0 0 0
50 1 20.120611623917927 6.962575722895387 7.644849230843896 0 0 0
149 1 22.050837726573974 7.535021090798245 5.67703307678147 0 0 0
4736 1 0.05654527168412002 9.112154650181761 28.158182070176686 1 0 0
383 1 3.357221991937924 12.478241362878228 3.7321100016484032 0 0 0
623 1 18.825740955861804 13.139119353096076 2.700604099814884 0 0 0
416 1 15.332562715643279 14.415231006250787 5.169288441248598 0 0 0
1830 1 21.751204623535433 9.877569628372749 3.581952409047611 0 0 1
158 1 22.437141888958294 12.526756642957595 2.3041819835254147 0 0 0
492 1 23.231993177561602 15.307259830211636 5.688154386168623 0 0 0
90 1 2.7056113077893773 16.917536519230303 4.027433398000117 0 0 0
469 1 11.354161966004481 0.8437998248370486 22.12148244615591 0 1 0
195 1 4.5394729044879005 14.6050539125619 5.336206714940448 0 0 1
347 1 10.937924403465829 14.832291483914844 5.767155721546295 0 0 0
342 1 13.297105675217018 15.526823807582781 6.767646144017037 0 0 0
775 1 14.457242685586507 16.499698038040986 3.622018660560444 0 0 0
484 1 18.51807938296863 15.874596652265707 4.926115759662834 0 0 0
139 1 17.02127595052413 18.048720944062808 3.858789852332814 0 0 0
413 1 1.9410801811912786 7.45721434457671 27.656939601575964 0 0 0
909 1 19.88969981893592 17.569297150139892 6.684951437817977 0 0 0
5526 1 4.314326688481108 0.7312960366842621 21.078151992276112 1 1 0
186 1 2.9799195134558483 2.381702296587006 6.5344671760491595 0 0 0
5137 1 0.5938030801425889 17.41682320137001 17.189811434691343 1 0 0
504 1 5.792377222800798 2.3236792521238607 8.975285019173931 0 1 0
4964 1 0.6392980062068849 9.780790236364407 22.584753157719078 1 0 0
594 1 0.10580294667768038 1.2551682205222008 5.877194072826518 0 1 0
391 1 13.799781320019946 0.46936090108469164 5.195548798081324 0 0 0
142 1 14.823034037224698 1.8008243301023321 8.51456463851319 0 0 0
486 1 16.76814364561409 0.7183830594218065 6.436224131096588 0 1 0
888 1 23.186946270023594 1.3070938461078891 7.756325919519262 0 1 0
1727 1 23.030606428565445 15.41613818286532 17.058342678777855 0 0 0
885 1 2.5485873301466033 1.214164629530156 11.001376281316613 0 1 0
18 1 1.9451124375893853 5.197014658709961 9.799375479538389 0 0 0
68 1 4.335434893045728 4.685817227123774 8.084918953475137 0 0 0
223 1 6.085722490199917 6.856077696274072 8.901301484031896 0 0 0
268 1 10.09735650652488 4.395070734859279 8.817562259069929 0 0 0
648 1 10.595697583564775 1.8515669555276597 9.853538609728655 0 1 0
31 1 12.798301019467429 3.737462597872893 8.126508912635025 0 0 0
286 1 16.61129336906462 5.538441577352214 9.875280276477747 0 0 0
85 1 19.22053393080698 3.0377315578099324 7.302895929636457 0 0 0
457 1 22.226864648386368 3.7511659836381632 10.216544801219063 0 1 0
214 1 23.713229573235317 5.289076903172252 6.021896711478354 0 0 0
113 1 0.5276480122011145 8.202246242987549 6.172603266082785 0 0 0
110 1 4.140334479095237 10.195387113506426 7.401954820809794 0 0 0
24 1 9.208609143497306 7.944994723620038 8.453481671896933 0 0 0
47 1 14.031671532202145 7.818883990231052 7.380080476830724 0 0 0
446 1 11.405650688794763 6.55646408469802 10.484398880498308 0 0 0
1058 1 13.934011900030349 5.809796326895921 9.415038924319166 0 0 0
79 1 21.172873234984493 6.427284766103877 10.07657679086784 0 0 0
989 1 23.943128652395956 7.418401111608642 10.073405018697118 0 0 0
4922 1 2.2641124878903387 7.7535538757781985 10.951985361720965 1 0 0
5163 1 4.219733375080374 12.91247358347257 7.407445165436398 1 0 0
81 1 8.553153228914523 11.8956885109949 8.0679830485469 0 0 0
61 1 12.822519556340959 10.138916080194138 9.897524285139463 0 0 0
346 1 18.455591838822798 9.372714188093449 11.810187652703709 0 0 0
135 1 19.099906144956424 9.641065600721417 8.696701026669174 0 0 0
1154 1 22.553082083462208 9.375528514984769 8.34202175774117 0 0 0
221 1 1.6615279568977595 13.412729665620232 8.82903669287764 0 0 0
480 1 7.799060678961187 13.528666641466058 5.365831561797678 0 0 0
373 1 15.410886710950734 12.529387764027996 7.88129977655722 0 0 0
464 1 15.622972863618946 10.16230669181354 9.140636192455938 0 0 0
311 1 19.542809405617945 11.979442711403252 7.131513050856751 0 0 0
101 1 20.85415795405218 12.529641896989878 11.024890043918967 0 0 0
155 1 21.57519307877563 13.634086573557108 7.7715984038028365 0 0 0
5385 1 3.631204307860711 0.646956373184383 8.69818637028563 1 1 0
789 1 23.77341007238235 11.845466421927854 8.40807934873323 0 0 0
4971 1 2.2376477239166848 15.611958627839126 7.193801838536495 1 0 0
614 1 4.482302727269996 17.196971116059718 8.406965165072348 0 0 0
118 1 9.392038395638671 15.9675137225218 7.550341472928774 0 0 0
747 1 13.680612671970932 14.091817182645043 9.100759501866351 0 0 0
5366 1 1.1050491161028204 13.19205978422458 5.470910234051961 1 1 0
528 1 17.78908207353068 14.063606375987217 7.255672482512595 0 0 0
805 1 17.616732333699588 15.826763255465254 9.285252426091137 0 0 0
1265 1 20.845467408279646 16.117904367696486 8.865361961552043 0 0 0
43 1 8.02322026004493 17.354816788150146 14.284215164957136 0 0 0
12 1 24.128577582421624 15.258724254689765 1.0938348799472237 0 0 0
5333 1 2.2566565584983476 4.069430049814894 14.111012142435294 1 1 0
371 1 2.1196940459825373 5.269018932533935 25.635656621120248 0 0 0
4817 1 7.238696029406287 3.215133892059435 11.365411775240519 1 0 0
5573 1 0.6952999109280114 16.547848714734847 23.56436682438047 1 0 0
1562 1 25.177922673995734 17.075722139078287 17.24782505030926 0 0 0
287 1 12.681343667746768 0.9849521882575067 11.587038576119784 0 0 0
406 1 12.664773585264593 3.1484820178543282 13.340644744718606 0 0 0
355 1 16.885264589145052 2.815233849784012 10.328967735452045 0 0 0
893 1 18.500578611045896 0.8695477573604049 9.064965880689037 0 1 0
337 1 23.806664067047805 1.5457421650797432 11.090510798957123 0 0 0
4995 1 0.24565415508057725 5.82108677641278 7.767886589475983 1 0 0
4807 1 0.5477638779793287 3.5073174378427527 11.94183109415818 1 0 0
932 1 8.133081644150105 6.025433603248285 10.578148993923543 0 1 0
64 1 9.244050672869736 1.75204903078188 12.308910007064416 0 0 0
432 1 11.317488353670297 5.644915420883935 13.14161857573467 0 0 0
229 1 15.202566962834288 6.858025179556798 14.460696200016319 0 0 0
479 1 17.246831022694394 5.615873397105406 12.432862522054094 0 1 0
872 1 19.98107074973843 2.621640212826228 11.355004908576385 0 1 0
359 1 24.808963850265222 4.8493819407231795 11.110945305145304 0 0 0
4843 1 3.6858527627753297 6.415005833843836 13.34694405312959 1 0 0
4955 1 4.574302257219252 9.097010873576979 9.931307533100286 1 0 0
270 1 9.945516801268104 9.34251573581051 11.187291980901076 0 0 1
250 1 19.698240548135747 6.938732090430201 12.317237618507923 0 0 0
1268 1 25.792883671183876 7.488317655431191 13.872577216395987 0 0 0
5014 1 0.25892959952171984 9.559955557003843 11.085290912717566 1 0 0
28 1 11.303763069733966 12.553721986418898 9.80633916945263 0 0 0
204 1 8.241900901847345 11.523586478732463 10.829855826643547 0 0 0
211 1 12.98740849336884 8.423472852711786 12.794397190578819 0 0 0
187 1 21.41342575666056 9.78686742643782 11.015876900188816 0 0 0
39 1 24.28740858967827 9.112421993671065 12.262837802004652 0 0 0
279 1 1.8821889871185549 14.38089168421147 11.424200326732207 0 0 0
134 1 4.174370132202503 15.257387247984973 13.824471682383793 0 0 0
299 1 6.517572294784063 13.979860127223946 8.81704086553229 0 0 0
253 1 6.282435218601925 14.755564352281901 11.444604602115689 0 0 0
69 1 8.765022662249082 13.538114835933424 12.780212236439175 0 0 0
62 1 11.775140330181475 13.104037511598394 12.666773203742977 0 0 0
58 1 14.42953227665914 11.782271269507001 11.695413809528239 0 0 0
478 1 18.02145719149588 12.133663883410737 10.130591933372944 0 0 0
239 1 23.319779658646386 13.58508144850687 12.42015272851315 0 0 0
400 1 25.910293661780013 14.927662398964237 11.110275575069743 0 0 0
4850 1 4.438530540995283 17.05511545496233 0.4105984343232439 1 0 0
762 1 1.0462687326534117 17.598806658921085 11.189701439775577 0 0 0
243 1 3.877910812406977 16.52493354717518 10.985117675138033 0 0 0
363 1 26.219563417633715 7.965529868179286 8.470265339753961 0 0 0
166 1 22.513233538702877 17.187445824228014 2.335909081883183 0 0 1
275 1 10.34721117254993 15.387292771365354 9.973547852551382 0 0 0
450 1 15.052394352485818 17.129067073722663 14.22581490832347 0 0 0
131 1 15.101892340171398 15.671894387106986 10.945995725956756 0 0 0
300 1 19.600781736269585 16.127522362639578 11.759381277472741 0 0 0
328 1 22.52279112127886 15.994577061677536 11.8761350216514 0 0 0
740 1 21.054401411980095 0.02828200503702059 11.986423409201757 0 1 0
5300 1 1.313330984239029 2.7577041177272594 16.601297222759634 1 1 0
899 1 6.706563704408315 16.27199232782656 6.748051092520849 0 0 0
5599 1 3.7985464546687098 17.44380175678773 23.535134215959168 1 0 0
812 1 22.250371589241546 17.899956057320438 4.959730132885378 0 0 1
1629 1 20.022092256934595 1.480135824679934 15.563878532900173 0 1 0
1793 1 22.682470855820267 1.279866099846153 14.088696263860946 0 1 0
465 1 2.2073895060323085 0.2122392671045032 16.99724800633048 0 1 0
770 1 8.222587443606628 16.724900162291526 11.493743127309134 0 0 0
4709 1 4.94902527584247 3.110790183272004 13.276521437670631 1 0 0
4659 1 4.075909754177117 4.813372869841528 17.115757659758223 1 0 0
260 1 6.634698157503333 6.103497898381986 13.09965953264896 0 0 0
840 1 8.942999645588795 4.4642528981173575 13.701832679744577 0 1 0
233 1 10.85119623672175 2.0627801983943748 15.019661243329413 0 0 0
19 1 16.185738542369574 2.1877662933141306 13.204113969335278 0 0 0
3 1 18.69864330120641 3.371534105512459 13.599454910480656 0 0 0
567 1 24.637757449423713 3.386263960905235 15.045101075033624 0 1 0
4951 1 5.594170978915444 10.992421937488926 11.736630851216532 1 0 0
4732 1 4.114242142153867 8.076261194134354 15.642868838473497 1 0 0
172 1 10.777822606027213 9.350750746289961 18.696931203984022 0 0 0
145 1 14.961868840636217 9.209802983339337 16.28806013325154 0 0 0
37 1 17.94329233139308 6.725407809654554 15.895147335032846 0 0 0
242 1 21.561630444187703 6.65673667347951 14.51937747080194 0 0 0
388 1 20.05558516541323 4.750687817786292 15.611952592083082 0 0 0
559 1 23.876075962067063 5.666713631459153 13.589816241672603 0 1 0
5119 1 1.8393577913288148 12.15533358630958 16.10293596500693 1 0 0
4719 1 0.5863877349053686 11.855390168863815 12.69344863473357 1 0 0
220 1 5.684805030100226 10.742418491795446 14.852331276119923 0 0 0
215 1 10.217068169005621 8.952851473826978 16.02392451648486 0 0 0
192 1 8.294937410711926 11.88169957417475 14.76697606715795 0 0 0
563 1 7.606839427337678 8.389384221086845 14.678497776525589 0 1 0
319 1 11.644420104394225 10.412153514104286 13.630674117900593 0 0 0
30 1 15.92263524365981 9.823767198777386 13.04323719494488 0 0 0
369 1 19.484386244841595 11.078019409909391 13.9515116522658 0 0 0
1023 1 22.531035568641553 10.581544073428073 13.758643388821081 0 0 0
99 1 21.530410794205604 9.16458660882231 15.965387336953771 0 0 0
164 1 26.07059008325596 9.011095208150062 16.43586611287398 0 0 0
102 1 3.329051750440682 12.410349457300738 13.470342103223727 0 0 0
156 1 3.549556968050269 15.067388949427384 17.257255927288817 0 0 0
289 1 6.555988499123259 15.555599600964491 15.784653948562346 0 0 0
88 1 10.696749047684735 16.073436473390295 13.551082570333875 0 0 0
407 1 11.850166234744819 15.318828230713603 16.18151191608297 0 0 0
303 1 13.8140064725104 13.768540518724823 15.679547450459731 0 0 0
168 1 18.44302034512628 13.826503694463295 12.68130545636083 0 0 0
116 1 16.001490868232455 13.328884665825445 17.231907007450886 0 0 0
410 1 19.88037373602613 14.343226420187635 14.816156964383891 0 0 0
219 1 22.32246253839527 13.189828539988556 15.016773626997276 0 0 -1
454 1 7.834276331623135 16.968624445921485 2.271772898403417 0 0 0
5249 1 2.4340628864961986 17.02865587585172 15.174205540228396 1 0 0
568 1 4.651261989686176 0.3156414166033678 12.822591056005068 0 1 0
188 1 21.43435033592117 17.50540104494267 17.508507609885008 0 0 0
408 1 15.6853440355623 14.41577041167267 13.432321567397798 0 0 0
611 1 16.173629525580015 16.220539458651338 17.60027848880648 0 0 0
1197 1 19.71749666479909 17.032704395045815 15.54071399422337 0 0 0
198 1 24.681179352522335 11.854307748240977 11.026745073656453 0 0 0
403 1 11.17871679246195 1.1480925712543038 5.58794417546111 0 0 0
5117 1 0.727845136420045 3.949587325357151 19.39307620609238 1 0 0
327 1 4.534812732121801 1.226272711759937 18.123967742267205 0 0 0
431 1 6.056506380881604 2.8485611519260834 15.87611638880576 0 0 0
785 1 10.572467818704109 4.609701269901394 16.45626612204051 0 1 0
63 1 15.521443414513186 1.747590283198646 17.321726202532062 0 0 0
928 1 15.52002505916256 1.7212065280946038 20.267658834440446 0 1 0
500 1 20.416783682366102 1.6809910545855713 18.564916524783598 0 1 0
670 1 23.285624432025713 0.8074176861234695 18.621053088660815 0 1 0
854 1 3.2592625534404043 3.6573250332792764 19.497685769412264 0 1 0
5187 1 2.0513834000680813 6.681534163223738 16.52002362128706 1 1 0
596 1 7.290515577520954 2.3267548388540615 19.52134709410263 0 1 -1
4772 1 7.810479466398388 4.410469230137294 17.275100571320763 1 0 0
390 1 14.639003523523947 3.5490872041211343 15.145711805079333 0 0 0
375 1 13.999563903504992 6.941201909352588 17.684585558038144 0 0 0
362 1 18.003114947754092 3.30551436520527 19.163658496995602 0 0 0
117 1 16.132076362819255 4.918027939862501 17.533122826581206 0 0 0
203 1 22.7162084463895 4.538687783309976 20.482962568085654 0 0 0
78 1 9.705603649223331 0.03141362687802716 17.08300223362223 0 0 0
439 1 2.3910436539294024 9.590198272514185 17.49386476176089 0 0 0
5154 1 6.165454083199219 6.704220026922052 16.659847948757594 1 0 0
605 1 11.978850358341912 6.789959784136904 15.609321105941234 0 1 0
173 1 12.85112746533529 10.806450613891492 16.150526790267556 0 0 0
170 1 17.02832701029629 11.150065165536146 15.628895453691634 0 0 0
419 1 19.053250842642864 6.977341157299547 18.589409389676533 0 0 -1
76 1 22.328794722878524 7.669380409659074 20.31114164571082 0 0 0
426 1 21.83917442227556 6.717754523684021 17.833359274769855 0 0 0
4 1 23.46947614291634 4.116316170611405 17.560922417259725 0 0 0
1159 1 25.30221837437187 6.339783998729174 17.744920855255558 0 0 0
321 1 4.507054930670523 12.294434439945361 17.00290463862482 0 0 0
315 1 10.185595456483094 14.043307190618242 18.27331868474714 0 0 0
44 1 12.017539395091532 11.314047524142177 21.503950945186332 0 0 0
449 1 12.028143354686845 11.880404135529034 18.770050913048237 0 0 0
42 1 15.77957325698441 9.250787132879475 19.00419523539876 0 0 0
1417 1 19.48853220733269 10.64146910452215 17.20946564187924 0 0 0
941 1 23.86445350867874 9.527188228074136 17.836367017534307 0 0 -1
224 1 23.689316956659553 10.237473984159676 21.16291158650356 0 0 -1
910 1 1.5067473261634285 15.187842294632945 19.190696755753287 0 0 0
4940 1 7.702069953225512 13.31150426030602 17.121671564946467 1 0 0
93 1 7.559990359006795 15.848925717710237 20.422461661403126 0 0 0
97 1 13.696792649339807 15.315316178803991 18.78297391794721 0 0 0
227 1 14.966652815126944 11.811207674750056 19.391725184351984 0 0 0
67 1 18.79111634429651 13.620462946708471 17.411934517789867 0 0 0
292 1 19.711001595968764 12.146151546621741 19.99593860083074 0 0 -1
1185 1 25.15765475204621 6.524524725767985 23.724927704293215 0 0 0
73 1 20.351075061722867 18.143835250937894 0.41802116314089766 0 0 0
818 1 24.294030555452064 0.3679868795320727 22.9001557411745 0 1 0
4775 1 6.606286057861338 17.083709381607726 17.883699779970478 1 0 0
1300 1 24.38943395476578 17.42883306720797 13.877603764173257 0 0 0
141 1 13.33899294386676 17.713049470539417 16.67499209071083 0 0 0
367 1 19.183863387339784 16.109144593823675 18.91545102683741 0 0 0
1286 1 26.03090334052313 16.524461289844545 23.60170162356429 0 0 0
393 1 23.99810854571621 12.418819136052628 17.67484240224669 0 0 0
249 1 1.57914063969282 0.5530678860432422 21.860660820046277 0 0 0
56 1 25.844535144774653 1.316612551613121 6.4619820830986265 0 0 0
175 1 10.113295137541673 1.5194416700887323 19.845344222795475 0 0 0
16 1 8.67810988209917 1.2829425825124658 24.62777741958366 0 0 0
379 1 10.298019973849915 16.005317406122536 27.081583630822244 0 0 -1
395 1 17.23938197073813 1.649259871432078 22.938333932530767 0 0 0
1662 1 25.422029192668877 14.941751831946855 14.788182347027684 0 0 0
536 1 18.98659685629005 3.8556945745504856 22.60347779105294 0 1 0
1673 1 20.91457793255665 2.5807938173637357 21.237441694128712 0 1 0
710 1 21.320920245653475 0.4159347653580309 23.29609240282685 0 1 0
842 1 24.82373676109468 3.001318448444765 19.809875892725515 0 1 0
54 1 13.55290486707699 16.17006725858733 28.485230642494024 0 0 -1
326 1 20.086585613989335 15.840999123699532 28.142298323397213 0 0 0
628 1 4.132184830148253 4.9223974203462975 21.725777396666437 0 1 0
258 1 7.400827678646682 4.963798110159054 20.772554793498102 0 0 0
115 1 9.852465894894722 5.049229367702057 21.450798889680676 0 0 0
792 1 11.425915851231345 4.007497589780628 19.529092074612777 0 1 0
455 1 13.860976282510414 3.707635536704875 20.776343018206035 0 1 0
357 1 14.523579524669321 2.989206858664291 23.55813661775023 0 0 0
544 1 18.00463683118468 6.011289953861409 20.896870298418023 0 1 0
1193 1 25.367196597847844 7.642583704621765 20.23867412312397 0 0 0
38 1 23.537885850392975 17.047336658685374 9.404614290089457 0 0 0
633 1 1.1652105171581721 6.727469896293271 19.63332981339724 0 0 0
259 1 6.582681523214289 7.524593392304104 19.352166606979466 0 0 0
125 1 4.173071240434485 8.639084501723 19.626271638514034 0 0 0
427 1 12.046386439493089 7.133082520692701 19.63874311866705 0 0 0
182 1 15.419419403308408 6.232203883553693 20.349081798847372 0 0 -1
1079 1 19.921886448981482 7.9340164931856645 22.186940499264963 0 0 -1
301 1 20.76169435219778 6.2343518788087335 24.327195314463225 0 0 0
126 1 14.258755394518774 17.347726092483214 24.51764830390931 0 0 -1
254 1 4.773656689771791 11.641132812478016 19.643591974864144 0 0 0
179 1 8.569340933348139 9.192611367123469 20.50099512083024 0 0 0
313 1 9.170696233060994 11.596081376135889 21.362789809877462 0 0 0
317 1 16.35060116636973 11.568607594433304 21.962758386808922 0 0 0
33 1 12.532442344109407 8.59677905163173 22.143599749111942 0 0 -1
245 1 18.381559073292227 9.362070068000639 19.63828996786551 0 0 0
283 1 19.004337187070384 10.797779724263805 22.571308612082504 0 0 0
231 1 25.463458924342646 17.44549767693983 11.456458928306365 0 0 0
106 1 25.926604068450473 13.284841889735185 6.55115630471829 0 0 0
5550 1 2.7818257424671393 13.226908847713585 20.76044147457683 1 0 0
345 1 7.278400909578737 12.953069465607962 20.05084985558514 0 0 0
150 1 5.911739127299839 13.828089828083863 22.615031208516406 0 0 -1
36 1 10.27485123095182 16.277416946138548 20.07847197242264 0 0 0
193 1 13.018475709014432 13.135670922335429 23.16777202427516 0 0 0
80 1 14.845667891872251 14.621241229167413 21.161702697510158 0 0 0
1059 1 22.069887022973667 12.778826038934481 21.421283587193535 0 0 0
4820 1 1.1959749717060544 10.684936875412939 4.16812842176193 1 0 0
1104 1 23.707809883427462 14.458320198119518 19.91420856964713 0 0 0
1406 1 26.06960631420772 14.902728419084617 21.29605984382217 0 0 0
4714 1 4.027630720518348 17.04295186758102 19.385470817732852 1 0 0
86 1 6.574537270323628 17.754467973824518 22.17909302461164 0 0 0
199 1 10.015285651429819 15.942298293327996 24.425043953595676 0 0 0
314 1 11.987836588654817 15.629604065125584 22.392981173288035 0 0 0
207 1 15.020519135024927 17.41453269138423 21.846315770434778 0 0 0
1072 1 17.645251780683125 14.090142596474854 20.65781485666499 0 0 0
234 1 21.217008156624292 16.10445810207747 20.69496150382563 0 0 0
1829 1 24.108085050925936 3.2627922983129065 26.035748743472944 0 1 0
1578 1 17.645012941664774 17.04396573337314 27.864610584905975 0 0 -1
1529 1 25.453860566270745 5.226821012816879 8.16698250089391 0 1 0
646 1 3.0250592430284082 2.893084385367628 23.51197449550849 0 1 0
641 1 5.87558388330065 2.68869857418719 22.29730835359446 0 1 0
216 1 6.076273829336452 4.844239239396501 25.925331107866974 0 0 -1
4949 1 5.673500665792595 2.1372393246637547 25.08020599374963 1 0 0
881 1 12.08104583668443 3.91812534160473 25.872869096977873 0 1 0
20 1 13.176326040439164 1.4574062998322768 27.4114528611737 0 0 0
385 1 10.426590520871224 3.3618042974855107 23.754515619615738 0 0 0
685 1 16.735355337304426 0.27005703563623745 25.510820933078925 0 1 0
821 1 21.738024227829957 1.5760281718645177 26.06400529940671 0 1 -1
501 1 7.101672680774854 18.16276273032472 29.47127417408192 0 0 0
741 1 11.248083605487082 6.746216720914686 26.354455297086062 0 1 0
712 1 19.872191812585097 3.605008258307712 25.679827430391256 0 1 0
256 1 22.99971133235111 4.464676473366737 23.59826856592553 0 0 -1
235 1 12.538597453851262 17.22730969636407 10.605673040315025 0 0 0
4890 1 0.8257272705867749 5.086591695080105 22.87263203680979 1 0 0
263 1 6.374249087107364 6.35870344896476 23.22752097958891 0 0 0
659 1 3.6678747239920404 8.062415994622018 24.878552958425516 0 1 0
308 1 8.911404675757694 7.1873933860339685 24.822240175838296 0 0 0
265 1 9.965437366777572 10.03297807823026 25.713092728567894 0 0 0
209 1 10.010356530400276 7.706031346334119 22.34488132995167 0 0 0
230 1 13.41146848064887 7.5628334567228155 24.5639867880731 0 0 0
108 1 14.983497970601647 5.189375638416426 25.124891052847424 0 0 0
8 1 17.467911665960536 8.77008992868028 24.22324625898068 0 0 -1
417 1 20.195461090632968 7.198762964892189 28.19122808707551 0 0 0
325 1 21.80283413255472 7.990817336503746 26.051255037709907 0 0 0
4829 1 2.7459316195494914 7.878256099563943 21.93644059871614 1 0 0
372 1 5.558805369740807 9.039480712547102 22.53916259316712 0 0 -1
414 1 4.857139117637525 11.52514285696064 24.15819628085547 0 0 0
599 1 12.545744506119064 10.409675486050109 27.139892686600938 0 1 0
151 1 14.94207442076868 9.653884268681326 25.57730664433877 0 0 0
374 1 15.557934540525054 8.499662836436746 21.930129904407153 0 0 -1
330 1 22.792930668393456 10.553723473480503 25.63697651318065 0 0 0
4678 1 1.307655629579268 14.234096596886799 25.168353098480168 1 0 -1
351 1 0.7389387553840456 12.654236887397188 22.64646477375861 0 0 0
152 1 9.015103903435074 12.145044076286595 24.026291738163508 0 0 0
415 1 11.14092723482715 13.035427476810638 25.45478414563086 0 0 -1
867 1 15.416327640412199 12.399927611830257 24.87833965363881 0 0 -1
422 1 17.338013699516644 14.66131189098062 25.088507603699654 0 0 -1
397 1 20.673708255766307 12.237333898528199 24.48081117748643 0 0 0
1295 1 21.397144796607122 15.008180819630962 23.678345467011603 0 0 0
293 1 3.7770319009661284 16.20479511590699 26.10301827078812 0 0 0
189 1 8.207834357304893 15.628910732217083 28.666227568768733 0 0 0
55 1 7.724664455979495 14.565359828690719 24.635410169438757 0 0 0
276 1 15.66619184015742 16.199227342884747 26.602235703417364 0 0 0
75 1 18.828491637461372 15.449071499667786 22.65289394171642 0 0 -1
84 1 21.720419169883826 16.877493243645844 26.01846409256047 0 0 0
1799 1 24.65232754676914 16.86848087005556 25.91378072760125 0 0 0
4891 1 2.8776799846478 3.1402224273987893 27.381074145170857 1 0 -1
196 1 3.361735839902794 0.8474398599448528 26.274105577789165 0 0 -1
557 1 6.9658594470428294 0.8508166552444674 29.60633222327614 0 1 0
901 1 14.276391521590261 2.0838139853421893 0.5292671963011469 0 1 1
122 1 18.07386850447117 2.1128628424086724 27.32795132545627 0 0 0
1442 1 18.646335713073256 2.288026396920351 0.5112156305898661 0 1 0
4847 1 0.08886431761780347 5.556194590076714 2.8572083157482853 1 0 1
5622 1 5.6116352768588245 7.320046327913915 27.75309596910627 1 1 0
392 1 8.997407534063013 4.297238803786021 26.46525786791971 0 0 -1
418 1 9.309436666304116 2.389837508194665 0.25868640989211356 0 0 1
335 1 9.942658603808438 1.7424955556356077 27.10506001667074 0 0 -1
688 1 11.736280575670438 5.217307871803406 29.172851624974165 0 1 -1
252 1 15.57303284411416 3.1630152127959743 27.12322228947552 0 0 -1
105 1 20.025077896075118 6.1282073026590975 4.015240472240998 0 0 0
1248 1 22.663483494459488 5.668799962629466 29.314940167957147 0 0 -1
316 1 21.011506387371757 3.71179771565639 28.552667690761396 0 0 0
378 1 25.218928542813828 16.899484398949234 7.324759814434136 0 0 0
4825 1 8.290343639498298 4.813492892685329 29.074525184785458 1 0 0
445 1 10.644415010467972 7.992464852438621 28.83500459763026 0 0 0
51 1 14.26846740081958 6.645642346218277 0.32707909688425174 0 0 1
434 1 13.254363632943402 9.61444084770077 29.601178681345147 0 0 0
437 1 17.802068591401664 7.069600650069943 27.276586214787166 0 0 0