
# Create simulation box
#
region 	     all block 0 ${XDIM} 0 ${YDIM} 0 ${ZDIM} units box
region 	     all block 0 157.504 0 ${YDIM} 0 ${ZDIM} units box
region 	     all block 0 157.504 0 36.48765944037512 0 ${ZDIM} units box
region 	     all block 0 157.504 0 36.48765944037512 0 30.0 units box
create_box          1 all
Created orthogonal box = (0.0000000 0.0000000 0.0000000) to (157.50400 36.487659 30.000000)
  6 by 2 by 1 MPI processor grid

# fill box with randomly distributed atoms of number density 0.0327 N/A**3
#
create_atoms        1 random 5638 63782 all
Created 5638 atoms
  create_atoms CPU = 0.001 seconds
mass                1 18.015

# Define potential
#
pair_style          sw
pair_coeff          * * ML.sw mW
Reading sw potential file ML.sw with DATE: 2019-02-27

# Run minimization
#
minimize            1.0e-8 1.0e-8 10000 1000
WARNING: Using 'neigh_modify every 1 delay 0 check yes' setting during minimization (../min.cpp:187)
Neighbor list info ...
  update every 1 steps, delay 0 steps, check yes
  max neighbors/atom: 2000, page size: 100000
  master list distance cutoff = 6.0032907
  ghost atom cutoff = 6.0032907
  binsize = 3.0016454, bins = 53 13 10
  1 neighbor lists, perpetual/occasional/extra = 1 0 0
  (1) pair sw, perpetual
      attributes: full, newton on
      pair build: full/bin/atomonly
      stencil: full/bin/3d
      bin: standard
Per MPI rank memory allocation (min/avg/max) = 4.219 | 4.220 | 4.222 Mbytes
Step Temp E_pair E_mol TotEng Press 
       0            0     14365612            0     14365612    7819703.7 
     693            0   -60793.738            0   -60793.738   -889.07136 
Loop time of 1.23463 on 12 procs for 693 steps with 5638 atoms

98.9% CPU use with 12 MPI tasks x no OpenMP threads

Minimization stats:
  Stopping criterion = max force evaluations
  Energy initial, next-to-last, final = 
      14365612.0713929   -60793.425984032  -60793.7377272365
  Force two-norm initial, final = 5.3649441e+08 4.7451309
  Force max component initial, final = 3.0729372e+08 1.0537686
  Final line search alpha, max atom move = 0.058313723 0.061449171
  Iterations, force evaluations = 693 1001

MPI task timing breakdown:
Section |  min time  |  avg time  |  max time  |%varavg| %total
---------------------------------------------------------------
Pair    | 0.81237    | 0.91681    | 1.0978     |   7.2 | 74.26
Neigh   | 0.024163   | 0.025573   | 0.028013   |   0.6 |  2.07
Comm    | 0.043105   | 0.16705    | 0.33307    |  20.3 | 13.53
Output  | 0          | 0          | 0          |   0.0 |  0.00
Modify  | 0          | 0          | 0          |   0.0 |  0.00
Other   |            | 0.1252     |            |       | 10.14

Nlocal:        469.833 ave         496 max         453 min
Histogram: 1 2 1 3 2 1 1 0 0 1
Nghost:        1118.67 ave        1160 max        1100 min
Histogram: 5 1 1 0 2 1 0 1 0 1
Neighs:        0.00000 ave           0 max           0 min
Histogram: 12 0 0 0 0 0 0 0 0 0
FullNghs:      13222.8 ave       14581 max       12369 min
Histogram: 1 2 2 1 3 1 1 0 0 1

Total # of neighbors = 158674
Ave neighs/atom = 28.143668
Neighbor list builds = 31
Dangerous builds = 0

# Add velocity/set timestep
#
velocity            all create ${TEMP} 120598 rot yes dist gaussian
velocity            all create 240 120598 rot yes dist gaussian
timestep            5.0

# Define output
#
compute	            1 all msd
thermo	            100
thermo_style        custom step temp press vol etotal ke pe c_1[4] density

# Neighbor lists
#
neigh_modify        delay 0 every 1 check yes

# Set fixes
#
fix                 1 all momentum 10 linear 1 1 1 rescale
fix                 2 all nve
fix                 3 all temp/csvr ${TEMP} ${TEMP} 500.0 928347
fix                 3 all temp/csvr 240 ${TEMP} 500.0 928347
fix                 3 all temp/csvr 240 240 500.0 928347
fix                 4 all press/berendsen z ${PRES} ${PRES} 1000.0 modulus 20000
fix                 4 all press/berendsen z 1 ${PRES} 1000.0 modulus 20000
fix                 4 all press/berendsen z 1 1 1000.0 modulus 20000

# Run equilibration
#
dump                1 all custom 1000 whole.${NAME}.dump id type x y z vx vy vz
dump                1 all custom 1000 whole.Ibeam_MLmW_240K.dump id type x y z vx vy vz
run                 25000
Per MPI rank memory allocation (min/avg/max) = 3.469 | 3.470 | 3.472 Mbytes
Step Temp Press Volume TotEng KinEng PotEng c_1[4] Density 
     693          240    180.14989    172408.57   -56761.059    4032.6783   -60793.738 1.7241309e-33   0.97824931 
     700    100.36836    1104.5002    172465.75   -56654.473    1686.4721   -58340.945  0.028470498   0.97792498 
     800    168.28092   -48.226004    172289.43   -55041.957     2827.595   -57869.552   0.46703987    0.9789258 
     900    197.76678   -330.97336       172098   -54174.976    3323.0409   -57498.017   0.92463577   0.98001464 
    1000    213.95588   -78.007233    171870.82    -53646.32    3595.0635   -57241.383    1.4605431   0.98131003 
    1100    224.30387   -130.80636    171663.28   -53309.108    3768.9389   -57078.047    1.9983034   0.98249647 
    1200    231.98044   -153.30714    171402.66   -53075.738     3897.927   -56973.665    2.4947728   0.98399036 
    1300    237.09599   -365.17483    171247.29   -52867.231    3983.8827   -56851.113    3.1330125   0.98488314 
    1400    239.60257    2.1459041    171155.95   -52853.958    4026.0004   -56879.959    3.7350379    0.9854087 
    1500    242.16629   -266.77251    171030.56   -52784.981    4069.0781   -56854.059     4.411402   0.98613117 
    1600    237.75596   -334.77412    170741.94   -52817.498     3994.972    -56812.47    5.0061704   0.98779811 
    1700    240.52181    35.206036    170663.06   -52857.594    4041.4461    -56899.04    5.5880663   0.98825465 
    1800    242.17221   -324.60271    170601.69   -52841.424    4069.1775   -56910.602    6.2001371   0.98861018 
    1900    242.22809   -27.648192    170143.16   -52858.904    4070.1164   -56929.021    6.6873969   0.99127441 
    2000    240.82589    30.000915    170127.23   -52805.369    4046.5556   -56851.925    7.2611427   0.99136724 
    2100    238.35305   -56.681855    170107.94   -52940.588    4005.0048   -56945.593    7.8723586   0.99147965 
    2200    237.46832    86.587553    169978.24   -52949.138    3990.1389   -56939.276    8.4095403    0.9922362 
    2300    241.59274   -85.909856    170030.46    -52885.91    4059.4409   -56945.351     8.797536   0.99193148 
    2400    236.07104   -160.00053    170096.49   -52916.081    3966.6606   -56882.741    9.3087674   0.99154642 
    2500    241.39179   -35.527344     170139.6     -52871.7    4056.0643   -56927.765    9.8051396   0.99129519 
    2600    242.70118    -249.1621    170234.97   -52785.638    4078.0657   -56863.704     10.40337    0.9907398 
    2700    242.14154   -109.36515    170154.51   -52786.803    4068.6622   -56855.465    11.182869   0.99120833 
    2800    238.13685    587.25285    170210.91   -52895.591    4001.3721   -56896.963    11.649778   0.99087987 
    2900    242.05506    104.28718    170381.93   -52858.716    4067.2092   -56925.925     12.12797   0.98988528 
    3000    241.86974    19.270137    170339.24   -52813.066    4064.0952   -56877.162    12.700463   0.99013335 
    3100    238.93533    42.851667    170131.46   -52880.862    4014.7889   -56895.651      13.2591   0.99134258 
    3200     240.1595    88.377389    170236.96   -52933.196    4035.3584   -56968.555    13.913417   0.99072822 
    3300    238.67529     148.0507    170224.34   -52990.885    4010.4194   -57001.304    14.441422   0.99080171 
    3400    239.36254   -69.211804    170208.31   -52988.747    4021.9672   -57010.714    14.971665   0.99089503 
    3500    241.69813    37.076502    170232.19   -52943.611    4061.2116   -57004.822    15.611914   0.99075602 
    3600    242.83955   -121.80021    170121.05   -52891.374    4080.3908   -56971.765    16.200656   0.99140324 
    3700    239.96233   -9.6136908    170022.29   -52948.221    4032.0453   -56980.267    16.809237   0.99197911 
    3800    242.61764   -104.76677    170054.91   -52951.962    4076.6621   -57028.624    17.340123   0.99178883 
    3900     237.4439    212.89442    170303.35   -53041.707    3989.7286   -57031.435     18.02499   0.99034201 
    4000    240.46899    147.26192    170583.02   -53104.035    4040.5587   -57144.594    18.684304   0.98871838 
    4100     238.3012   -25.561075    170739.29   -53058.798    4004.1336   -57062.931     19.26173   0.98781341 
    4200    239.58302   -224.01247    170612.17   -53047.524    4025.6719   -57073.196    19.884897   0.98854945 
    4300    240.20937   -131.76859    170624.73   -53034.255    4036.1963   -57070.451    20.567112   0.98847665 
    4400    242.50303    -193.8624    170590.93   -53022.113    4074.7362   -57096.849     21.16771   0.98867254 
    4500    241.44568   -37.860399    170458.63   -53005.708    4056.9699   -57062.678    21.485074   0.98943984 
    4600    241.76821    143.56781    170531.69   -53029.013    4062.3892   -57091.402    22.122533   0.98901597 
    4700    238.54069   -165.58884    170512.99   -53055.378    4008.1578   -57063.536    22.576774   0.98912443 
    4800    237.23089   -124.36803    170423.69   -53097.249    3986.1494   -57083.398    23.064489   0.98964274 
    4900    241.68713   -127.47018     170491.1   -53046.293    4061.0269    -57107.32    23.508106   0.98925143 
    5000     238.1494   -79.841908    170412.59   -53174.947    4001.5829    -57176.53    23.647429   0.98970719 
    5100    240.29597    16.396607    170574.55   -53081.038    4037.6514    -57118.69    24.178859   0.98876744 
    5200    239.52673   -98.415903    170606.96   -53145.114     4024.726    -57169.84    24.479795   0.98857962 
    5300    238.67422     29.40705     170580.4    -53166.74    4010.4014   -57177.142    24.609403   0.98873354 
    5400    236.08895     54.63033     170657.5   -53062.235    3966.9616   -57029.196    25.017197   0.98828685 
    5500    241.61678    -259.1317    170692.89    -52962.66    4059.8448   -57022.505    25.362442   0.98808194 
    5600    244.40216   -52.039069    170539.14   -52927.071     4106.647   -57033.718    25.692754   0.98897275 
    5700    238.95222    204.11052    170639.61   -53042.565    4015.0726   -57057.638    26.150667   0.98839049 
    5800    241.56052   -113.08901    170865.69   -52972.418    4058.8995   -57031.317    26.587201   0.98708269 
    5900    238.59834     87.64541    170911.57   -53067.433    4009.1264    -57076.56    26.963357   0.98681772 
    6000    233.68023    105.41745    170932.72   -53173.668    3926.4883   -57100.157    27.343401   0.98669563 
    6100    236.42029     140.7025    170931.24   -53158.489    3972.5291   -57131.018    27.703647   0.98670414 
    6200    237.61328    261.95764    170947.38   -53114.511    3992.5747   -57107.086     28.19197   0.98661097 
    6300     240.5543    75.899452    170881.24   -53150.924    4041.9921   -57192.916    28.650731   0.98699285 
    6400    240.91407    137.02102     170811.4   -53160.072    4048.0373   -57208.109    28.869265    0.9873964 
    6500    240.14306    204.90717    170985.24   -53133.247     4035.082   -57168.329    29.277284   0.98639252 
    6600    238.44636   -9.8993851     170968.2    -53217.73    4006.5728   -57224.303    29.554759   0.98649083 
    6700    234.69378    38.962761    170895.99   -53193.197    3943.5189   -57136.715    29.993636   0.98690765 
    6800    235.11406   -177.52689    170787.77   -53249.749    3950.5808    -57200.33    30.275747   0.98753303 
    6900    238.20118    21.973683    170748.42   -53219.342     4002.453   -57221.795    30.659356   0.98776064 
    7000    244.19725    87.955024    170904.39   -53072.667     4103.204   -57175.871    31.269003   0.98685915 
    7100    240.97678   -22.924159    170952.46    -53125.35     4049.091   -57174.441    31.774394   0.98658165 
    7200    238.19248    247.83375    170993.19   -53153.742    4002.3068   -57156.049    32.189537   0.98634665 
    7300    239.59293   -129.56887    170984.71   -53165.034    4025.8384   -57190.873     32.57669    0.9863956 
    7400    237.53779   -38.891042    170964.57   -53231.459    3991.3062   -57222.765    32.736449    0.9865118 
    7500    239.38612    86.331491    170970.31   -53184.937    4022.3634     -57207.3    33.062766   0.98647868 
    7600    238.12618   -176.28568    170848.68   -53100.514    4001.1928   -57101.707     33.42457   0.98718097 
    7700    235.70752    101.53688    170767.66    -53063.14    3960.5525   -57023.693    33.607194    0.9876493 
    7800    237.60054    187.10534    170557.46   -53066.569    3992.3606   -57058.929    33.844979   0.98886654 
    7900    239.14252   -6.6884464    170627.76   -53146.399    4018.2702   -57164.669    34.251082   0.98845911 
    8000    238.14361    352.26137    170786.72   -53175.637    4001.4856   -57177.122    34.535174    0.9875391 
    8100    239.77896    15.468732    170778.68   -53100.336    4028.9642   -57129.301    34.879732   0.98758558 
    8200    240.30753   -110.84713    170916.85   -53061.113    4037.8457   -57098.959    35.419997   0.98678721 
    8300    237.10838    172.17051    170981.35   -53052.574    3984.0908   -57036.664    35.837826   0.98641497 
    8400    237.51255   -132.88985    170997.14   -53111.474    3990.8822   -57102.356     36.51203   0.98632386 
    8500    238.43288   -28.663651    170904.44   -53181.797    4006.3463   -57188.144    37.034738   0.98685888 
    8600    240.85288   -4.3299994     170838.9   -53092.859    4047.0091   -57139.869     37.50541   0.98723747 
    8700     240.6309   -13.225315    170807.78   -53057.406    4043.2792   -57100.685    37.960206   0.98741736 
    8800    242.55791   -184.58277    170929.92   -53029.996    4075.6585   -57105.655    38.427165   0.98671177 
    8900    242.98576    119.28209    170918.61   -53048.491    4082.8475   -57131.339    38.775784   0.98677707 
    9000    243.00895   -22.766144    170977.47   -52994.045    4083.2371   -57077.282    39.127571   0.98643737 
    9100    243.71899   -190.34262    170817.76   -52978.172    4095.1678    -57073.34    39.526141   0.98735966 
    9200    241.21776   -99.070937    170660.14    -53042.48    4053.1402    -57095.62    39.902505   0.98827158 
    9300    236.61637   -198.28863    170426.51   -53040.087    3975.8237   -57015.911    40.453581   0.98962634 
    9400    240.26973    9.4902553    170404.09   -53030.972    4037.2105   -57068.183    40.905857   0.98975655 
    9500    237.50031    9.2359763    170498.59   -53072.244    3990.6765   -57062.921     41.37569   0.98920796 
    9600    240.30547    182.70634    170554.36   -53128.519    4037.8111    -57166.33    41.732783   0.98888451 
    9700     241.1602    117.20053    170659.22    -53030.89    4052.1729   -57083.063    42.403256   0.98827687 
    9800    236.13755    35.968577    170595.13   -53101.139    3967.7781   -57068.917    42.724828   0.98864819 
    9900    243.91934    151.16525    170551.76   -52976.801    4098.5343   -57075.336    43.224956   0.98889956 
   10000    236.01435    227.98929    170721.07   -53134.599    3965.7081   -57100.307    43.868945   0.98791884 
   10100    237.49708    129.51547     170701.5   -53086.092    3990.6221   -57076.714    44.289971   0.98803211 
   10200    235.32834   -67.072401    170551.64   -53117.777    3954.1812   -57071.958    44.534706   0.98890026 
   10300    230.80049    4.9343438     170505.9     -53087.8    3878.1005     -56965.9    45.049868   0.98916556 
   10400    241.04918    119.30574    170424.12    -52953.31    4050.3074   -57003.617     45.62803   0.98964024 
   10500    242.61162   -79.591113    170414.43   -52934.639    4076.5609     -57011.2    46.089259   0.98969648 
   10600    239.80119    190.29549     170581.3   -52936.939    4029.3377   -56966.276    46.648187   0.98872836 
   10700    237.46163    -269.3155    170517.71   -52992.156    3990.0264   -56982.182    47.142242   0.98909706 
   10800    240.76952    167.58084    170546.29    -52919.61    4045.6084   -56965.218    47.642463   0.98893132 
   10900    246.27931    149.41668    170758.14    -52872.48    4138.1885   -57010.669    48.210585   0.98770441 
   11000    244.79356    26.309255    170730.56   -52891.288    4113.2237   -57004.512    48.418687   0.98786392 
   11100    243.40921   -219.54693    170926.52   -52920.757    4089.9627   -57010.719     48.76938   0.98673139 
   11200    241.52167    223.16881    170948.47   -52916.509    4058.2466   -56974.756    49.156812   0.98660468 
   11300     242.5312    156.71856    170875.96   -52969.439    4075.2096   -57044.649     49.45547   0.98702333 
   11400    240.08783   -246.05433    170736.39   -53016.867    4034.1541   -57051.021    49.846101   0.98783023 
   11500    238.33746    -146.4107    170667.04   -53161.982     4004.743   -57166.725    50.011883   0.98823159 
   11600    235.34839    199.97644    170682.57   -53155.886    3954.5182   -57110.404    50.449245   0.98814169 
   11700    233.91136    222.50792    170850.66   -53144.056    3930.3719   -57074.428    50.920967   0.98716949 
   11800    237.82144   -159.30672    170860.61   -53067.505    3996.0724   -57063.577    51.335154   0.98711201 
   11900    242.20548   -153.71055     170865.5   -53161.425    4069.7366   -57231.162    51.714102   0.98708376 
   12000    236.39547    118.16344    170852.43    -53084.32     3972.112   -57056.432     52.16513   0.98715926 
   12100     239.3223   -39.601836    171038.23   -53066.216    4021.2911   -57087.507    52.705583   0.98608693 
   12200    240.25868   -63.874217    170985.34   -52985.959    4037.0248   -57022.984    53.111303   0.98639193 
   12300    244.49805    82.123101    171119.91       -52957    4108.2582   -57065.258    53.664676   0.98561624 
   12400    246.38141   -278.26077    171227.96   -52868.071     4139.904   -57007.975    54.122689   0.98499432 
   12500     241.6235    165.16702    171395.01   -52977.384    4059.9577   -57037.342    54.588182   0.98403428 
   12600    242.30653    76.440344    171374.52   -53048.805    4071.4344   -57120.239    54.836373   0.98415193 
   12700    244.52257   -64.352569    171427.01   -52980.584    4108.6702   -57089.255    55.266274   0.98385061 
   12800    243.76018    -32.64516    171469.77   -53034.013    4095.8599   -57129.872    55.605822   0.98360523 
   12900    244.46305   -94.153724       171402   -53037.025    4107.6701   -57144.695    56.290068   0.98399415 
   13000    241.57397   -318.52354    171229.34   -53086.253    4059.1254   -57145.378    56.821446   0.98498635 
   13100    237.03157   -230.79116    171045.49   -53092.516    3982.8004   -57075.317    57.352017   0.98604506 
   13200    243.19151   -275.90304    170933.86   -53040.647    4086.3046   -57126.952    57.995734     0.986689 
   13300    236.97396   -222.55662    170773.68   -53006.643    3981.8322   -56988.476    58.677081   0.98761452 
   13400    239.12475   -169.57698    170712.38   -53032.636    4017.9716   -57050.608    58.978635   0.98796916 
   13500    239.83468    109.95032     170618.3   -53017.389    4029.9005    -57047.29    59.152739   0.98851394 
   13600    236.98976   -91.691871    170572.88   -53079.407    3982.0978   -57061.504    59.300594   0.98877714 
   13700    237.01905   -150.86329    170596.23   -53050.374    3982.5899   -57032.964    59.778134   0.98864178 
   13800    237.67484   -34.402857    170454.02   -53048.726    3993.6091   -57042.335    60.222706   0.98946662 
   13900    240.08535    242.36637    170402.06   -53113.737    4034.1124    -57147.85    60.688034   0.98976835 
   14000    238.46066   -8.9748376    170432.08    -53189.06     4006.813   -57195.873    61.067544   0.98959399 
   14100    234.75645    -134.7323    170425.11   -53172.455    3944.5718   -57117.027    61.655354   0.98963445 
   14200    236.36911    211.82712    170432.66   -53094.925    3971.6691   -57066.594    62.078138   0.98959062 
   14300    239.54695   -57.149403     170511.1   -53103.881    4025.0657   -57128.947    62.588723   0.98913538 
   14400    240.11205    100.86238    170524.02    -53125.96    4034.5611   -57160.521    63.220866   0.98906046 
   14500    240.05032   -168.96026    170455.49   -53109.723    4033.5237   -57143.247    63.742359   0.98945807 
   14600    240.03816    53.368394    170200.94   -53051.594    4033.3195   -57084.914    64.270337   0.99093789 
   14700     242.7196    106.21279    170216.49   -52951.888    4078.3753   -57030.264    64.633819   0.99084739 
   14800    239.68278    77.014158    170256.34     -52991.7    4027.3481   -57019.048    65.197303   0.99061549 
   14900    239.75131    57.509129    170418.35   -52957.389    4028.4995   -56985.889    65.810461   0.98967374 
   15000    239.93356   -83.477686    170396.12   -53042.539    4031.5619   -57074.101    66.387508   0.98980284 
   15100    238.20896    30.481619     170433.6   -53069.878    4002.5838   -57072.462    66.796106    0.9895852 
   15200    235.50823   -200.77223    170332.81   -53118.076    3957.2039    -57075.28    67.278263   0.99017072 
   15300    240.53777      44.4089     170249.4   -53036.848    4041.7143   -57078.562    67.426141   0.99065582 
   15400    238.73816    173.58813    170301.21   -53033.314    4011.4758    -57044.79     67.90969   0.99035447 
   15500    242.92308   -194.87907     170304.5   -53012.765    4081.7944    -57094.56    68.374451   0.99033534 
   15600    239.66821   -21.192045    170300.41   -53051.374    4027.1033   -57078.478    68.668647   0.99035909 
   15700    238.60299    38.495744    170267.17   -53070.162    4009.2046   -57079.366    69.155532   0.99055248 
   15800    237.14464     82.91369    170353.28   -53085.087    3984.7002   -57069.788    69.746076   0.99005175 
   15900    238.29284    33.467456    170460.56   -53037.818    4003.9932   -57041.811    70.358698   0.98942868 
   16000    237.03025   -205.01981    170462.12   -53109.053     3982.778   -57091.831    70.886376    0.9894196 
   16100    239.91761   -43.543952    170347.49   -53133.345    4031.2939   -57164.639    71.550666   0.99008539 
   16200    237.46827   -75.112168    170260.43   -53032.191    3990.1381    -57022.33    72.011775   0.99059166 
   16300    243.56972    -101.6756    170126.78   -52968.737    4092.6597   -57061.397     72.26807   0.99136985 
   16400    247.72678    -131.1646    170270.71   -52988.794    4162.5101   -57151.304    72.732623   0.99053185 
   16500    240.15622    41.799705    170247.74   -53009.241    4035.3033   -57044.544    73.563717   0.99066553 
   16600    239.59762   -62.306454    170355.89   -53032.596    4025.9171   -57058.513    74.030875   0.99003658 
   16700    241.81177    11.644828     170385.3   -53037.326    4063.1212   -57100.447    74.562741   0.98986568 
   16800    238.98511    62.312093    170467.02    -53055.92    4015.6253   -57071.545    75.412731   0.98939119 
   16900    240.62409   -123.25581    170447.36   -53076.938    4043.1648   -57120.103    76.055193   0.98950526 
   17000    239.76777   -193.55227    170311.52   -53034.443    4028.7763    -57063.22    76.642691   0.99029449 
   17100     239.1004    253.13871    170403.98   -53058.098    4017.5625    -57075.66    77.173731   0.98975719 
   17200    239.11576   -90.849577    170725.98   -52976.971    4017.8206   -56994.791    77.651777   0.98789047 
   17300    243.49078    133.64831    170663.61   -52902.148    4091.3333   -56993.481    78.319821   0.98825146 
   17400    238.23859   -1.9922622    170647.65   -52982.622    4003.0816   -56985.704    78.777385   0.98834393 
   17500    242.50898    83.141454    170671.11   -52970.101    4074.8363   -57044.937    79.430069   0.98820805 
   17600    239.61638   -44.944519    170617.63   -53017.672    4026.2324   -57043.904    79.769891    0.9885178 
   17700    238.82646   -98.072568    170570.89   -53032.812    4012.9595   -57045.771    80.310421   0.98878865 
   17800    238.31608     63.20242    170667.96   -53008.601    4004.3836   -57012.985    80.815942   0.98822628 
   17900    239.36455    129.72797    170781.61   -53066.445     4022.001   -57088.446    81.068193   0.98756867 
   18000    236.92978    1.6665901    170648.03   -53141.762      3981.09   -57122.852     81.27086   0.98834171 
   18100    235.39519    7.4161207     170561.1   -53177.352    3955.3045   -57132.657    81.597261   0.98884544 
   18200      243.123   -44.723855    170557.63     -53057.4    4085.1535   -57142.554    81.943728   0.98886555 
   18300    235.10213    18.715648    170332.63   -53094.973    3950.3802   -57045.353    82.467264    0.9901718 
   18400    240.13139   -89.794982    170366.38    -53137.18     4034.886   -57172.066    82.886295   0.98997562 
   18500     240.1445    134.59092    170446.16   -53079.823    4035.1063   -57114.929    83.499562   0.98951223 
   18600    238.85455   -169.33832    170626.19   -53032.705    4013.4314   -57046.136    83.926036   0.98846822 
   18700    242.40947    152.30369     170675.7   -52988.847    4073.1642   -57062.012    84.387166   0.98818144 
   18800     239.0147   -117.80428    170570.52   -53004.517    4016.1224   -57020.639    85.018416   0.98879079 
   18900    237.86392     13.42935     170509.7   -53086.872    3996.7861   -57083.658    85.583932   0.98914353 
   19000    239.99393    386.37222    170564.56   -53073.447    4032.5763   -57106.023    86.237786   0.98882534 
   19100    239.21252   -65.744179    170514.21   -53109.593    4019.4464    -57129.04     86.61526   0.98911735 
   19200     238.5192    83.363963    170415.96   -53096.713    4007.7966   -57104.509    87.018756   0.98968763 
   19300    239.28939    124.24433    170560.23   -53020.423     4020.738   -57041.161     87.34151   0.98885048 
   19400    243.61443    87.579174    170581.74   -53033.608    4093.4109   -57127.018    87.895865   0.98872581 
   19500    238.84031    190.25267    170704.84   -53012.666    4013.1923   -57025.858    88.427207   0.98801276 
   19600    243.56286    -22.40741    170917.85   -53000.998    4092.5444   -57093.543    89.002971   0.98678143 
   19700    238.83484   -34.324601    171031.64   -53006.564    4013.1004   -57019.665    89.588953   0.98612493 
   19800    240.83062   -208.21088    171092.29   -52915.131    4046.6351   -56961.766    90.157284   0.98577537 
   19900    243.80037    29.717623    171007.91   -52934.642    4096.5352   -57031.177    90.781321   0.98626179 
   20000    242.37061   -432.42948     170990.4   -52875.806    4072.5113   -56948.317     91.40321   0.98636275 
   20100     243.3217     42.14393    170823.57   -52918.102    4088.4922   -57006.594    92.313001   0.98732609 
   20200    242.26313    131.72943    170990.31   -52917.753    4070.7053   -56988.458    92.752093   0.98636327 
   20300    245.00406    -30.87448    171099.86   -52891.118    4116.7607   -57007.879    93.565963   0.98573175 
   20400    238.39828   -51.529524    171111.26   -52968.759    4005.7649   -56974.524    94.198758   0.98566609 
   20500     241.4437   -278.31147    170901.36   -52899.117    4056.9366   -56956.054    95.268274   0.98687669 
   20600    242.26119    94.556473    170802.93   -52916.818    4070.6728   -56987.491    95.822977   0.98744539 
   20700    236.74446   -31.349559    170790.86   -52941.997    3977.9761   -56919.973    96.587318   0.98751516 
   20800    239.95201    235.00847    170711.72   -52948.562    4031.8719   -56980.434    97.273577   0.98797299 
   20900    242.51514    134.39526    170598.17   -52990.924    4074.9398   -57065.864    97.994082   0.98863058 
   21000    242.16748    39.438105    170732.54   -52917.265    4069.0981   -56986.363    98.344488   0.98785249 
   21100    238.08288   -124.56672    170682.92   -52966.674    4000.4653   -56967.139    98.664372   0.98813965 
   21200    237.02136    -158.0336    170486.07   -53074.218    3982.6287   -57056.847    98.837418   0.98928064 
   21300    235.13033   -64.776458    170304.94   -53103.261    3950.8541   -57054.115     99.06388   0.99033279 
   21400    241.28682     193.1089    170284.22   -53044.875    4054.3005   -57099.175    99.554913   0.99045326 
   21500    240.67435    47.197368    170224.29   -52914.015    4044.0092   -56958.024    100.08346   0.99080197 
   21600    240.67919   -106.07611    170107.07   -53042.893    4044.0907   -57086.984    100.32749   0.99148473 
   21700      237.115    67.481602    170281.99    -53041.49    3984.2021   -57025.692    101.03643   0.99046622 
   21800    243.25006   -74.061592    170410.75   -52934.682    4087.2885   -57021.971    101.38701   0.98971785 
   21900     241.6082    91.318095    170478.99   -52962.826    4059.7006   -57022.527    102.06953   0.98932172 
   22000    240.23842   -153.97703    170455.55   -53022.515    4036.6844   -57059.199    102.43469   0.98945776 
   22100    241.63415   -128.68886    170465.62   -53016.849    4060.1367   -57076.985    103.17092   0.98939931 
   22200    242.28723    141.37873    170443.32   -52939.431    4071.1102   -57010.542    103.84573   0.98952876 
   22300    241.81925    77.587131    170313.45   -52935.003    4063.2468    -56998.25    104.41214   0.99028332 
   22400    237.01808    57.685671    170373.92   -53070.116    3982.5737   -57052.689    105.04137   0.98993179 
   22500    238.75815    47.960316    170435.29   -53047.797    4011.8116   -57059.608     105.9953   0.98957538 
   22600    239.89088   -12.956905    170401.68   -53035.444    4030.8448   -57066.289    106.41976   0.98977052 
   22700    236.72526    37.722786     170307.9   -53068.231    3977.6535   -57045.885    107.04856   0.99031554 
   22800    235.32296   -141.62416    170340.37   -53108.225    3954.0908   -57062.316    107.83208   0.99012677 
   22900    236.10138    32.207512    170128.32    -53156.48    3967.1705   -57123.651    108.57731   0.99136091 
   23000    238.57717    -32.39948    170156.57   -53046.431    4008.7708   -57055.201    109.12366    0.9911963 
   23100    239.83651   -25.326856    170247.32   -52986.417    4029.9312   -57016.348     110.0925   0.99066797 
   23200    241.40996   -218.81004     170178.9   -52978.917    4056.3696   -57035.287    110.99344   0.99106627 
   23300    241.09285    98.999811    170113.41   -53010.155    4051.0413   -57061.196    111.72046    0.9914478 
   23400    237.87163   -126.43134    170010.85   -53045.926    3996.9157   -57042.842    112.40914   0.99204589 
   23500    241.84587   -69.822689    170082.26   -52994.457    4063.6941   -57058.151    113.28648   0.99162935 
   23600    240.63909    208.60373    169946.18   -53029.638    4043.4169   -57073.055    114.09038   0.99242341 
   23700    234.77444    189.48541     170022.5   -53070.859    3944.8742   -57015.733    114.87934   0.99197792 
   23800    242.33371    178.40634    170320.28   -53004.093    4071.8913   -57075.984    115.70535   0.99024357 
   23900    240.10466   -65.490867     170363.5   -52967.878    4034.4368   -57002.315    116.33492   0.98999235 
   24000     238.9833   -231.82899    170361.02   -52935.293    4015.5948   -56950.887    116.96555   0.99000677 
   24100    243.60619    35.225949    170334.57   -52968.391    4093.2725   -57061.664    117.64934    0.9901605 
   24200    243.46118   -42.259496    170223.24   -52904.684     4090.836    -56995.52    118.08479   0.99080812 
   24300    241.54586   -175.51772    170200.05   -52978.092    4058.6531   -57036.745    118.63893   0.99094311 
   24400    242.68859   -83.436877    170082.33   -52921.853    4077.8541   -56999.707     119.3645   0.99162899 
   24500    239.60787   -104.54052    169939.44   -52982.971    4026.0895    -57009.06    120.21317   0.99246275 
   24600    240.05099    327.32189    170124.41   -53039.384    4033.5351   -57072.919    120.92476   0.99138369 
   24700    240.60661    49.233281    170271.26   -52994.342     4042.871   -57037.213    121.71674   0.99052868 
   24800    242.89055    15.179554    170167.97   -52945.214    4081.2478   -57026.462    122.16825   0.99112992 
   24900    239.36747   -175.26191    170001.26     -53027.1    4022.0499    -57049.15    122.48088   0.99210187 
   25000    236.77385   -142.47123    169878.93   -53027.331    3978.4698   -57005.801     122.9654   0.99281624 
   25100    238.52432   -82.077797    170077.96   -53003.947    4007.8827   -57011.829    123.68194   0.99165444 
   25200    240.03775    84.735357    170035.83   -53043.535    4033.3126   -57076.848    124.59795   0.99190014 
   25300    239.79876    42.630942    170091.76    -53083.54    4029.2968   -57112.837    125.46207   0.99157396 
   25400    236.17916    50.707627    169966.58   -53058.547    3968.4774   -57027.024    126.33576   0.99230425 
   25500    243.80473    244.63415    170065.25   -53023.481    4096.6085   -57120.089       127.07   0.99172853 
   25600    237.84402    56.464663    170029.72   -53109.217    3996.4518   -57105.669    127.75147   0.99193579 
   25693    237.55014    209.98564    169975.84   -53080.541    3991.5137   -57072.055    128.60963   0.99225019 
Loop time of 28.6346 on 12 procs for 25000 steps with 5638 atoms

Performance: 377.166 ns/day, 0.064 hours/ns, 873.068 timesteps/s
97.7% CPU use with 12 MPI tasks x no OpenMP threads

MPI task timing breakdown:
Section |  min time  |  avg time  |  max time  |%varavg| %total
---------------------------------------------------------------
Pair    | 20.544     | 21.102     | 21.563     |   7.1 | 73.69
Neigh   | 1.2543     | 1.2722     | 1.2946     |   0.9 |  4.44
Comm    | 2.8973     | 3.4189     | 3.9252     |  16.3 | 11.94
Output  | 0.06152    | 0.063113   | 0.079648   |   2.0 |  0.22
Modify  | 2.1041     | 2.5013     | 2.7996     |  14.1 |  8.74
Other   |            | 0.2771     |            |       |  0.97

Nlocal:        469.833 ave         478 max         462 min
Histogram: 1 1 1 2 0 3 1 1 1 1
Nghost:        1129.92 ave        1140 max        1115 min
Histogram: 1 1 0 1 2 1 1 0 3 2
Neighs:        0.00000 ave           0 max           0 min
Histogram: 12 0 0 0 0 0 0 0 0 0
FullNghs:      13505.0 ave       13938 max       13230 min
Histogram: 2 1 0 3 3 1 1 0 0 1

Total # of neighbors = 162060
Ave neighs/atom = 28.744236
Neighbor list builds = 1538
Dangerous builds = 0

unfix               2
unfix               3
unfix               4

write_data		data.whole_${NAME}
write_data		data.whole_Ibeam_MLmW_240K
System init for write_data ...


# Create the I-beam, width 65A
region beam block 46.252 111.252 0.0 INF 0.0 INF side out
delete_atoms region beam
Deleted 3322 atoms, new total = 2316

fix                 1 all momentum 10 linear 1 1 1 rescale
fix                 2 all nve
fix                 3 all temp/csvr ${TEMP} ${TEMP} 500.0 928347
fix                 3 all temp/csvr 240 ${TEMP} 500.0 928347
fix                 3 all temp/csvr 240 240 500.0 928347

# Run 0.05 ns equilibration
#
dump                2 all custom 1000 eq.${NAME}.dump id type x y z vx vy vz
dump                2 all custom 1000 eq.Ibeam_MLmW_240K.dump id type x y z vx vy vz
run                 10000
Per MPI rank memory allocation (min/avg/max) = 4.750 | 4.751 | 4.753 Mbytes
Step Temp Press Volume TotEng KinEng PotEng c_1[4] Density 
   25693    232.76245   -127.90721    169975.84   -21355.717    1606.1948   -22961.911     149.5189   0.40760047 
   25700    236.11547    13.094236    169975.84   -21354.727    1629.3325   -22984.059    149.61523   0.40760047 
   25800     250.7403    11.791124    169975.84   -21397.022    1730.2523   -23127.274    150.03125   0.40760047 
   25900    238.71963   -137.15912    169975.84   -21473.028    1647.3028   -23120.331    150.81595   0.40760047 
   26000    242.34301    137.23936    169975.84   -21479.777    1672.3062   -23152.083    151.20987   0.40760047 
   26100    242.81714   -92.666005    169975.84    -21489.24    1675.5779   -23164.818    152.27284   0.40760047 
   26200    245.09257   -91.809247    169975.84   -21481.013    1691.2797   -23172.293    153.54415   0.40760047 
   26300    245.91691   -93.211422    169975.84   -21430.562    1696.9682    -23127.53    154.77635   0.40760047 
   26400    247.37448   -3.1925668    169975.84   -21455.158    1707.0262   -23162.185    155.69809   0.40760047 
   26500    238.29613    76.429392    169975.84   -21457.981    1644.3804   -23102.361    157.00468   0.40760047 
   26600    244.84238   -45.416826    169975.84   -21494.813    1689.5533   -23184.366    157.72603   0.40760047 
   26700    234.56479    145.18104    169975.84   -21497.983     1618.632   -23116.615    158.39011   0.40760047 
   26800    240.93801     1.559825    169975.84   -21482.824    1662.6108   -23145.435    158.51412   0.40760047 
   26900    242.37326   -84.846237    169975.84   -21484.229    1672.5149   -23156.743    159.69745   0.40760047 
   27000    241.52196   -202.48972    169975.84    -21453.29    1666.6405   -23119.931    159.99227   0.40760047 
   27100    240.07554   -132.78318    169975.84   -21502.935    1656.6594   -23159.595    160.30847   0.40760047 
   27200    241.39785    -341.9594    169975.84   -21527.859     1665.784   -23193.643    160.92314   0.40760047 
   27300    240.74158   -16.731985    169975.84   -21508.009    1661.2554   -23169.264    161.37284   0.40760047 
   27400    236.69821    32.452183    169975.84   -21514.971    1633.3538   -23148.325    162.35001   0.40760047 
   27500    248.23964   -69.287324    169975.84   -21483.254    1712.9963    -23196.25    163.43302   0.40760047 
   27600    237.70598   -93.375914    169975.84   -21471.296     1640.308   -23111.604    164.40654   0.40760047 
   27700    248.94604    100.20349    169975.84   -21452.038    1717.8709   -23169.909    165.17252   0.40760047 
   27800    237.46656     290.6098    169975.84    -21559.95    1638.6559   -23198.606    166.00367   0.40760047 
   27900    242.96311    46.301054    169975.84   -21541.912    1676.5852   -23218.497    165.63086   0.40760047 
   28000    241.79527    7.4922629    169975.84   -21527.298    1668.5265   -23195.824    166.11523   0.40760047 
   28100    238.34764   -216.64094    169975.84   -21554.884    1644.7359    -23199.62    166.38282   0.40760047 
   28200    242.32108   -312.86964    169975.84   -21559.302    1672.1549   -23231.457    167.13907   0.40760047 
   28300    238.55599   -227.98366    169975.84   -21581.106    1646.1736    -23227.28    167.55364   0.40760047 
   28400    243.11749   -115.38861    169975.84   -21568.933    1677.6506   -23246.584    167.59085   0.40760047 
   28500     248.4428    17.407577    169975.84    -21525.61    1714.3982   -23240.009    166.94304   0.40760047 
   28600    242.14865    -144.0316    169975.84   -21512.981     1670.965   -23183.946    167.44284   0.40760047 
   28700     248.3466    78.457859    169975.84   -21516.454    1713.7344   -23230.188     167.2402   0.40760047 
   28800    243.15784   -142.43031    169975.84   -21524.239     1677.929   -23202.168    167.56203   0.40760047 
   28900    235.62252   -106.51992    169975.84   -21605.776     1625.931   -23231.707    167.82789   0.40760047 
   29000    236.78249   -342.99414    169975.84   -21669.395    1633.9354   -23303.331    167.48734   0.40760047 
   29100    241.13057   -103.12019    169975.84   -21612.524    1663.9396   -23276.464    167.53783   0.40760047 
   29200    243.29185   -185.51408    169975.84   -21617.307    1678.8537   -23296.161    167.08067   0.40760047 
   29300    240.81738   -173.86427    169975.84   -21639.553    1661.7785   -23301.331    167.94437   0.40760047 
   29400    243.82546    26.265456    169975.84   -21591.991    1682.5359   -23274.527    168.24271   0.40760047 
   29500    244.98412   0.46412723    169975.84   -21581.271    1690.5314   -23271.802    169.45076   0.40760047 
   29600    239.34225   -69.528062    169975.84   -21572.539    1651.5992   -23224.139     170.1146   0.40760047 
   29700    236.53425   -35.195662    169975.84   -21588.196    1632.2224   -23220.419     170.6893   0.40760047 
   29800    237.49175    29.836569    169975.84   -21585.038    1638.8297   -23223.868    170.39688   0.40760047 
   29900    239.10388   -24.561528    169975.84   -21559.711    1649.9543   -23209.665    170.78006   0.40760047 
   30000    238.65792   -148.00261    169975.84   -21637.689    1646.8769   -23284.566    171.03881   0.40760047 
   30100     236.6065   -216.28911    169975.84    -21591.74     1632.721   -23224.461    171.46056   0.40760047 
   30200    235.80824   -38.748166    169975.84   -21624.973    1627.2125   -23252.186    171.52917   0.40760047 
   30300    235.42958   -90.969154    169975.84   -21646.885    1624.5995   -23271.484     171.7712   0.40760047 
   30400    240.27491    41.792304    169975.84   -21599.256    1658.0351   -23257.291    172.00309   0.40760047 
   30500    242.03973    121.24639    169975.84   -21555.191    1670.2134   -23225.404    172.29298   0.40760047 
   30600    246.50376   -139.67822    169975.84   -21521.764    1701.0178   -23222.782    172.55041   0.40760047 
   30700    233.89694    65.528167    169975.84   -21561.812    1614.0234   -23175.835    172.76542   0.40760047 
   30800    241.63845    32.499727    169975.84   -21516.444    1667.4443   -23183.889    173.54095   0.40760047 
   30900    238.08301    39.552015    169975.84   -21553.606    1642.9097   -23196.516    174.35754   0.40760047 
   31000    233.15677   -172.80615    169975.84   -21605.987    1608.9159   -23214.902    174.90859   0.40760047 
   31100    234.36316   -150.04438    169975.84   -21593.536    1617.2406   -23210.776    175.06007   0.40760047 
   31200    239.46503    112.40808    169975.84   -21578.054    1652.4464     -23230.5    174.83625   0.40760047 
   31300    238.05385    24.589271    169975.84   -21602.726    1642.7085   -23245.434    174.22633   0.40760047 
   31400    239.28954   -76.128133    169975.84   -21574.981    1651.2355   -23226.217    175.00048   0.40760047 
   31500    235.93562    -271.1124    169975.84   -21546.867    1628.0915   -23174.959    175.92505   0.40760047 
   31600    234.64559   -55.271924    169975.84   -21556.124    1619.1896   -23175.313     175.9896   0.40760047 
   31700    240.71981     -81.5984    169975.84   -21566.772    1661.1052   -23227.877    177.03733   0.40760047 
   31800    240.81915   -102.36723    169975.84   -21586.873    1661.7907   -23248.664    178.03638   0.40760047 
   31900      239.686   -15.736715    169975.84   -21600.825    1653.9713   -23254.797    179.30117   0.40760047 
   32000    243.47969    2.2403955    169975.84   -21545.506    1680.1499   -23225.656    180.77809   0.40760047 
   32100    236.85955    25.668593    169975.84   -21580.415    1634.4672   -23214.882    181.42936   0.40760047 
   32200    240.52029   -66.681584    169975.84   -21597.008    1659.7284   -23256.737      181.968   0.40760047 
   32300    238.09702    142.73716    169975.84   -21621.014    1643.0064    -23264.02     182.1947   0.40760047 
   32400    242.23031   -209.96789    169975.84   -21651.571    1671.5285   -23323.099    182.39455   0.40760047 
   32500    235.42122    81.131376    169975.84   -21635.662    1624.5418   -23260.204    182.95165   0.40760047 
   32600    237.18833   -405.36018    169975.84   -21590.079    1636.7359   -23226.815    183.08877   0.40760047 
   32700    240.78774    151.45339    169975.84   -21560.561    1661.5739   -23222.134    183.85519   0.40760047 
   32800    238.91718   -119.89741    169975.84    -21569.45     1648.666   -23218.116    183.67168   0.40760047 
   32900    232.19734    91.714029    169975.84   -21642.652    1602.2952   -23244.947    183.82271   0.40760047 
   33000    232.48036   -70.388572    169975.84   -21666.901    1604.2482   -23271.149    183.63739   0.40760047 
   33100    235.88309    38.058073    169975.84   -21620.209     1627.729   -23247.938    184.42349   0.40760047 
   33200    242.68226    43.187893    169975.84   -21589.861    1674.6472   -23264.509    185.24555   0.40760047 
   33300    240.87186   -34.437789    169975.84       -21532    1662.1544   -23194.154    185.86261   0.40760047 
   33400    241.84548    -91.50507    169975.84   -21569.181    1668.8729   -23238.054    186.28577   0.40760047 
   33500    232.75969   -92.484273    169975.84   -21607.181    1606.1758   -23213.357    186.85391   0.40760047 
   33600    240.23704    15.726967    169975.84   -21578.695    1657.7738   -23236.469     187.0864   0.40760047 
   33700    239.36798   -228.54698    169975.84   -21523.233    1651.7768   -23175.009    186.74422   0.40760047 
   33800    242.79281   -66.809538    169975.84   -21499.786    1675.4101   -23175.196    187.33244   0.40760047 
   33900    244.92533    211.31128    169975.84   -21522.999    1690.1257   -23213.125    188.19016   0.40760047 
   34000    248.28291     235.8087    169975.84    -21503.25    1713.2949   -23216.545     188.8843   0.40760047 
   34100    239.91504     -270.231    169975.84   -21473.912    1655.5518   -23129.464    189.13782   0.40760047 
   34200    236.97834   -166.67108    169975.84   -21506.131    1635.2869   -23141.418    189.31822   0.40760047 
   34300    243.60346   -144.74539    169975.84   -21518.068     1681.004   -23199.072    189.98675   0.40760047 
   34400     235.7023   -93.058009    169975.84   -21551.845    1626.4815   -23178.326    190.71688   0.40760047 
   34500    238.93754    84.905358    169975.84   -21547.618    1648.8065   -23196.424    191.48356   0.40760047 
   34600    236.60187   -148.55714    169975.84   -21579.992     1632.689   -23212.681    191.05085   0.40760047 
   34700    237.85223   -102.76519    169975.84   -21550.725    1641.3172   -23192.042     191.3622   0.40760047 
   34800    238.30222    171.99024    169975.84   -21564.455    1644.4224   -23208.878     190.8318   0.40760047 
   34900    244.38272    292.05435    169975.84   -21523.745    1686.3813   -23210.127    190.91094   0.40760047 
   35000    230.71416    -174.8568    169975.84   -21602.683    1592.0604   -23194.744    190.69545   0.40760047 
   35100    240.00709    10.491846    169975.84   -21572.249     1656.187   -23228.436    190.98472   0.40760047 
   35200    236.55481   -202.94591    169975.84   -21595.462    1632.3643   -23227.826    191.34475   0.40760047 
   35300    238.42408    46.193914    169975.84   -21590.112    1645.2633   -23235.375    191.16189   0.40760047 
   35400    248.93137   -103.98147    169975.84   -21564.718    1717.7696   -23282.487    191.77021   0.40760047 
   35500    243.81214   -44.888664    169975.84   -21527.508     1682.444   -23209.952    192.42453   0.40760047 
   35600    236.97366   -85.004138    169975.84   -21550.574    1635.2546   -23185.828    192.92526   0.40760047 
   35693    240.57117   -147.02377    169975.84   -21546.029    1660.0795   -23206.108    193.55595   0.40760047 
Loop time of 12.7921 on 12 procs for 10000 steps with 2316 atoms

Performance: 337.709 ns/day, 0.071 hours/ns, 781.734 timesteps/s
96.0% CPU use with 12 MPI tasks x no OpenMP threads

MPI task timing breakdown:
Section |  min time  |  avg time  |  max time  |%varavg| %total
---------------------------------------------------------------
Pair    | 0.00097698 | 3.1378     | 8.1246     | 191.0 | 24.53
Neigh   | 0.001239   | 0.18663    | 0.472      |  44.8 |  1.46
Comm    | 0.02498    | 3.5696     | 8.4303     | 182.5 | 27.90
Output  | 0.040361   | 0.041181   | 0.048476   |   1.1 |  0.32
Modify  | 1.1853     | 5.2184     | 12.385     | 214.2 | 40.79
Other   |            | 0.6385     |            |       |  4.99

Nlocal:        193.000 ave         479 max           0 min
Histogram: 4 0 4 0 0 0 0 0 0 4
Nghost:        503.250 ave        1116 max           0 min
Histogram: 4 0 0 4 0 0 0 0 0 4
Neighs:        0.00000 ave           0 max           0 min
Histogram: 12 0 0 0 0 0 0 0 0 0
FullNghs:      5340.00 ave       13870 max           0 min
Histogram: 4 2 2 0 0 0 0 0 0 4

Total # of neighbors = 64080
Ave neighs/atom = 27.668394
Neighbor list builds = 575
Dangerous builds = 0


write_data		data.${NAME}
write_data		data.Ibeam_MLmW_240K
System init for write_data ...
Total wall time: 0:00:42
