
# Set production fixes - Nose/Hoover
#
fix                 4 water temp/csvr ${START_TEMP} ${END_TEMP} 500.0 928347
fix                 4 water temp/csvr 235 ${END_TEMP} 500.0 928347
fix                 4 water temp/csvr 235 225 500.0 928347


## divide "droplet" into core and surface
#region		core_reg cylinder z 135 135 44.6 20 INF units box
#region		surface_reg cylinder z 135 135 44.6 20 INF units box side out
#group		core dynamic all region core_reg
#group		surface dynamic all region surface_reg

## compute pressure core
#compute        peratom_core core stress/atom NULL
#compute        p_core core reduce sum c_peratom_core[1] c_peratom_core[2] c_peratom_core[3]
#variable       press_core equal -(c_p_core[1]+c_p_core[2]+c_p_core[3])/(3*1249982.5)


## compute pressure surface
#compute        peratom_surf surface stress/atom NULL
#compute        p_surf surface reduce sum c_peratom_surf[1] c_peratom_surf[2] #c_peratom_surf[3]
#variable       press_surf equal -(c_p_surf[1]+c_p_surf[2]+c_p_surf[3])/(3*42395)

## compute total pressure of drop
compute        peratom water stress/atom NULL
compute        p water reduce sum c_peratom[1] c_peratom[2] c_peratom[3]
variable       press equal -(c_p[1]+c_p[2]+c_p[3])/(3*58301)


# compute order parameter
compute        3 all orientorder/atom nnn NULL cutoff 3.5

# compute center of mass of bridge
compute 	4 water com

# Run simulation
thermo_style        custom step c_2 press vol etotal ke pe v_press c_1[4] c_4[*]
thermo              200
dump		     1 water custom 400 ${DIR}/prod.${NAME}.dump id type x y z vx vy vz c_3[*] c_peratom[*]
dump		     1 water custom 400 run_5/prod.${NAME}.dump id type x y z vx vy vz c_3[*] c_peratom[*]
dump		     1 water custom 400 run_5/prod.ibeam_cooling_5.dump id type x y z vx vy vz c_3[*] c_peratom[*]
run                 ${STEPS}
run                 4000000
Neighbor list info ...
  update every 1 steps, delay 0 steps, check yes
  max neighbors/atom: 2000, page size: 100000
  master list distance cutoff = 6.67472
  ghost atom cutoff = 6.67472
  binsize = 3.33736, bins = 48 11 12
  2 neighbor lists, perpetual/occasional/extra = 1 1 0
  (1) pair sw, perpetual
      attributes: full, newton on
      pair build: full/bin/atomonly
      stencil: full/bin/3d
      bin: standard
  (2) compute orientorder/atom, occasional, copy from (1)
      attributes: full, newton on
      pair build: copy
      stencil: none
      bin: none
Per MPI rank memory allocation (min/avg/max) = 6.148 | 6.727 | 7.319 Mbytes
Step c_2 Press Volume TotEng KinEng PotEng v_press c_1[4] c_4[1] c_4[2] c_4[3] 
       0    242.49494   -300.79941    229018.04   -21230.206    1606.1313   -22836.337   -660.46285     29.21368    78.602175    15.911203    29.658847 
     200    230.51221   -350.27628    229018.04   -21279.015    1526.7653   -22805.781   -870.03579    30.065459    78.601998    15.909582    29.702953 
     400    232.08261   -343.38448    229018.04    -21282.33    1537.1667   -22819.497   -869.03465    31.441731     78.60223    15.910841    29.696672 
     600    226.42153   -230.39646    229018.04   -21397.556    1499.6713   -22897.227   -418.55789    32.336664    78.600676    15.909805    29.705859 
     800    227.65048   -321.99231    229018.04   -21378.544     1507.811   -22886.355   -831.14106    33.495106    78.600147    15.909188     29.71999 
    1000    233.51982   -494.89497    229018.04   -21261.772    1546.6858   -22808.458   -1428.3345    34.836524    78.600999    15.909593     29.70084 
    1200    236.32034   -269.56942    229018.04   -21371.271    1565.2347   -22936.506   -540.78803    35.869856    78.601492    15.911292    29.705273 
    1400    232.78542   -422.70888    229018.04   -21232.868    1541.8216   -22774.689   -1179.4253    37.415141    78.600952    15.912714    29.697706 
    1600    237.75142   -230.69024    229018.04   -21226.094    1574.7132   -22800.807   -408.98304    38.465402    78.602498    15.912635    29.711166 
    1800    232.44445   -336.70284    229018.04   -21242.775    1539.5632   -22782.338   -813.75137    39.111309    78.601984    15.912651    29.711137 
    2000      239.497   -292.40558    229018.04   -21137.572    1586.2748   -22723.846   -654.21953    40.635795    78.602942    15.914959    29.720704 
    2200    235.39511   -336.01605    229018.04   -21165.968    1559.1065   -22725.075   -824.43164    42.366949    78.602431     15.91509    29.729779 
    2400    242.66448   -119.05084    229018.04   -21207.781    1607.2542   -22815.035    41.703883    43.378751    78.602541    15.914129     29.72968 
    2600    233.66249   -356.54938    229018.04   -21239.633    1547.6308   -22787.264   -910.03879    44.416367    78.602957    15.915579    29.736726 
    2800    234.94413   -300.92981    229018.04   -21229.196    1556.1196   -22785.315   -683.78965    45.667506    78.602102    15.915448    29.732531 
    3000    232.58095   -153.30087    229018.04   -21296.666    1540.4674   -22837.134   -108.29642    46.932838    78.604085    15.915518    29.743344 
    3200    233.17842    -217.0816    229018.04   -21295.567    1544.4246   -22839.991   -353.43772     48.56973    78.605736    15.916863    29.745369 
    3400    228.86038   -349.55464    229018.04   -21231.623    1515.8247   -22747.447   -888.93361    49.547425    78.604991    15.918536    29.724777 
    3600    231.78577   -397.13269    229018.04   -21187.153    1535.2006   -22722.353   -1046.3477    51.633311    78.604295    15.920121    29.740319 
    3800    234.69922   -234.16321    229018.04   -21218.903    1554.4974     -22773.4   -398.41282    53.094385    78.605347    15.919971    29.728655 
    4000    231.88159    -335.1449    229018.04   -21250.405    1535.8352    -22786.24   -811.99901    55.454716    78.605044    15.919603    29.746812 
    4200    237.06463   -261.56722    229018.04   -21180.925    1570.1644   -22751.089    -534.7836    57.239182    78.605581    15.921682    29.731757 
    4400    238.51696   -217.32972    229018.04   -21133.172    1579.7837   -22712.955   -352.90848    60.935817    78.604929    15.921431    29.729362 
    4600    237.33935   -383.88832    229018.04   -21243.368    1571.9839   -22815.352   -1006.1539     64.28941     78.60568    15.919994    29.717551 
    4800    232.17139   -227.53328    229018.04   -21218.298    1537.7547   -22756.053   -440.53041    65.948696    78.607484    15.921325    29.704088 
    5000    232.98976   -334.20468    229018.04   -21259.934     1543.175   -22803.109   -800.64882    68.191719     78.60714    15.922918    29.696077 
    5200    238.08885   -160.02539    229018.04   -21248.467    1576.9481   -22825.415   -115.23155    68.648238    78.607821    15.925985    29.695374 
    5400    236.06764    -256.8259    229018.04   -21250.455     1563.561   -22814.016   -494.28726    68.142087    78.607982    15.927328    29.677798 
    5600     229.5981   -319.51431    229018.04   -21294.926    1520.7109   -22815.637   -760.89951    68.311644    78.608267    15.929496    29.676434 
    5800    241.70319    -350.6897    229018.04   -21140.447    1600.8872   -22741.334   -872.60549    68.264726    78.608497    15.930113    29.679443 
    6000    224.03068   -321.02817    229018.04   -21317.272    1483.8358   -22801.108   -757.11205    67.774591    78.607676    15.933194    29.680617 
    6200    228.54804   -223.78471    229018.04   -21215.081    1513.7559   -22728.837   -395.58444    68.200765    78.608771    15.933393    29.701679 
    6400    234.30425   -354.77201    229018.04   -21171.108    1551.8814    -22722.99   -921.21177    69.823805    78.610379    15.933694    29.699176 
    6600    233.07302   -294.86297    229018.04   -21265.116    1543.7265   -22808.842   -690.47999    70.959325    78.609577    15.933318    29.703233 
    6800    234.36383   -212.25047    229018.04   -21276.006     1552.276   -22828.282   -343.51138    71.838137     78.61097      15.9357    29.691621 
    7000    231.33251   -154.50942    229018.04   -21314.747    1532.1985   -22846.945    -124.6557     72.47346    78.612823    15.933886    29.672248 
    7200    241.92738    -459.6483    229018.04    -21214.25    1602.3721   -22816.622   -1331.6987    73.173342    78.613633    15.933186    29.673397 
    7400    225.90407   -327.08002    229018.04   -21294.068     1496.244   -22790.312   -787.25798    73.704153    78.615448    15.934981     29.68624 
    7600    229.11477   -421.67175    229018.04   -21331.327    1517.5096   -22848.837   -1163.3536    75.235473    78.616121    15.930619    29.700231 
    7800    237.15791   -277.51632    229018.04   -21215.383    1570.7822   -22786.166   -598.28347    76.471496    78.617008    15.930373    29.713672 
    8000    239.98492   -244.27635    229018.04   -21232.377    1589.5065   -22821.883   -427.45689    78.057425    78.617214    15.931205    29.730899 
    8200    236.19925   -337.30608    229018.04   -21311.436    1564.4327   -22875.869   -840.84939    80.102913    78.618676     15.93148    29.735062 
    8400    230.50631   -266.15389    229018.04    -21300.73    1526.7263   -22827.456   -542.68524    80.988451    78.618034    15.930423    29.706065 
    8600    235.52354   -440.48422    229018.04   -21206.063    1559.9572    -22766.02   -1242.4028    82.430439    78.618698    15.929185     29.70711 
    8800    240.93799    -259.1732    229018.04   -21224.835     1595.819   -22820.654   -538.17385    83.344991     78.61913    15.930412    29.704743 
    9000    232.32016   -261.66145    229018.04     -21192.7      1538.74    -22731.44   -519.50607    84.947882    78.620225    15.930874    29.697215 
    9200     235.9391   -208.63439    229018.04   -21230.551    1562.7096    -22793.26   -321.09233    85.972906    78.621359    15.930761    29.688557 
    9400    229.99076   -331.28153    229018.04   -21287.403    1523.3116   -22810.715   -833.29795    86.351582    78.623144    15.930441    29.682875 
    9600    231.88829   -237.65002    229018.04   -21279.108    1535.8796   -22814.987    -404.8926    87.081039    78.624947    15.929979    29.675928 
    9800    235.33435   -168.75402    229018.04   -21257.466    1558.7041    -22816.17   -174.35894    88.842467    78.625901    15.929669    29.694527 
   10000    241.62006   -177.19532    229018.04   -21107.838    1600.3366   -22708.175   -223.95626    90.213883    78.626864    15.927955    29.702259 
   10200    241.60275   -237.71476    229018.04   -21177.182     1600.222   -22777.404   -415.63929    90.208656    78.626345    15.924544    29.699705 
   10400    234.68086    -378.4164    229018.04   -21211.879    1554.3758   -22766.255   -996.67602    91.184781    78.626952    15.925123    29.685848 
   10600    239.87123   -300.11678    229018.04   -21171.725    1588.7535   -22760.478   -649.50735     92.02541     78.62698    15.929234    29.679418 
   10800    235.36104   -306.78673    229018.04   -21197.915    1558.8809   -22756.796   -681.03341    93.417417    78.626601    15.930159    29.682351 
   11000    231.76208   -242.37705    229018.04   -21188.154    1535.0437   -22723.198   -468.17912    94.705616    78.625932    15.931204    29.670448 
   11200    235.80769   -131.04631    229018.04    -21156.52    1561.8392   -22718.359   -42.651273    96.275255    78.623913     15.93292    29.675538 
   11400    233.31972   -319.20974    229018.04   -21185.458    1545.3605   -22730.818   -794.29455    97.629689    78.625732    15.935297     29.67356 
   11600    235.07711   -217.22241    229018.04   -21145.913    1557.0003   -22702.913   -328.80072    99.233146    78.624542    15.935704    29.664885 
   11800    239.43889   -271.77334    229018.04   -21171.028      1585.89   -22756.918    -578.7946    101.24205    78.624767    15.938441     29.65743 
   12000    237.89478   -271.16854    229018.04   -21116.841    1575.6627   -22692.503    -593.4553    102.32019    78.625489    15.939812    29.673754 
   12200    236.55701   -316.42803    229018.04   -21202.763    1566.8022   -22769.565   -775.03238    103.77846    78.622273    15.939315    29.689795 
   12400    236.14599   -218.67055    229018.04   -21125.004    1564.0799   -22689.084   -414.50993    104.42297    78.622189    15.940835    29.686415 
   12600    237.71417   -404.53032    229018.04   -21125.154    1574.4665   -22699.621   -1109.2408    106.57613    78.623531    15.940817    29.682165 
   12800    236.07261    -224.8228    229018.04   -21229.889    1563.5939   -22793.483   -398.89833    107.69717    78.624182    15.942036    29.670576 
   13000    231.33321   -258.43657    229018.04   -21249.202    1532.2031   -22781.405   -552.91981    108.38045    78.622785    15.941132    29.687592 
   13200    236.88435   -394.53497    229018.04   -21210.617    1568.9703   -22779.587   -1079.6202    109.43626    78.622335    15.942476    29.682717 
   13400    233.93398   -436.49087    229018.04   -21157.145     1549.429   -22706.574     -1216.23    111.91254    78.622775    15.946685    29.670876 
   13600    233.00996   -201.08117    229018.04   -21200.768    1543.3088   -22744.077   -333.80903    113.37516    78.623267    15.948742    29.675236 
   13800    232.39114   -451.02371    229018.04    -21227.53    1539.2101    -22766.74    -1312.046    114.91104    78.623388    15.950957    29.686507 
   14000    230.49762   -262.73185    229018.04   -21224.568    1526.6687   -22751.237   -546.96949    115.55943    78.623341    15.952024    29.686913 
   14200    236.52834   -383.26474    229018.04   -21276.476    1566.6123   -22843.088   -1020.4301    116.29243    78.623978    15.951476    29.679427 
   14400     230.1997   -383.92613    229018.04   -21318.505    1524.6954     -22843.2   -1010.0942    117.77361    78.623205    15.951066    29.679205 
   14600    238.09616   -340.71846    229018.04   -21278.085    1576.9965   -22855.081   -839.40165    119.06078     78.61995    15.950167    29.663532 
   14800    232.82458   -228.72842    229018.04   -21246.871     1542.081   -22788.952   -419.82551    119.44139    78.617444    15.950638    29.655659 
   15000    236.17767   -312.07064    229018.04   -21221.964    1564.2897   -22786.254   -748.19167    119.88069    78.619211    15.952717     29.65873 
   15200    225.50453   -391.92866    229018.04    -21274.43    1493.5977   -22768.028   -1059.7345     120.9952    78.619844    15.955353    29.651539 
   15400    236.40608   -228.61665    229018.04   -21249.255    1565.8026   -22815.057   -413.03284    122.79686    78.619405    15.956417    29.668574 
   15600    232.18789   -386.17678    229018.04   -21307.761    1537.8639   -22845.625   -1027.3037    124.36946    78.618264    15.957946     29.68047 
   15800    241.60897   -210.29623    229018.04   -21165.869    1600.2632   -22766.132    -355.4613    125.05657    78.617152    15.956582    29.690338 
   16000     234.2369   -284.21455    229018.04   -21219.793    1551.4353   -22771.229   -645.94552    125.79747    78.615673    15.956155    29.662164 
   16200    236.75299   -391.07914    229018.04   -21134.588    1568.1003   -22702.688   -1057.1926    126.21177    78.615002    15.956176    29.662938 
   16400    242.39166   -244.56281    229018.04   -21148.058    1605.4472   -22753.505   -492.79944    127.58016    78.614608    15.959952    29.649328 
   16600     237.9328    -277.5674    229018.04   -21184.553    1575.9146   -22760.467   -595.18301    128.80433    78.614546    15.961598    29.666191 
   16800    236.75434   -419.46461    229018.04   -21139.591    1568.1092     -22707.7   -1122.0227    130.45166    78.616266    15.960544    29.652117 
   17000    239.57036    -214.7511    229018.04   -21150.305    1586.7607   -22737.066   -379.73726    130.93373    78.617689    15.962394    29.660971 
   17200    236.99639   -547.81356    229018.04   -21182.164    1569.7124   -22751.877    -1662.294    133.03292    78.619863    15.962409    29.634509 
   17400    234.95517   -231.27355    229018.04   -21140.283    1556.1926   -22696.475   -410.66904    135.00966    78.622082    15.962748    29.607334 
   17600    245.51845   -270.51119    229018.04     -21068.8     1626.157   -22694.957   -602.34569    136.78879    78.622692    15.961792    29.606174 
   17800    235.19584   -378.87128    229018.04    -21140.78    1557.7867   -22698.566   -987.43395    137.51468    78.623184    15.960369    29.606678 
   18000    235.96806   -311.41289    229018.04    -21165.98    1562.9014   -22728.881   -743.67604    139.14751    78.622859    15.957743    29.604083 
   18200    232.85987   -258.88813    229018.04    -21202.48    1542.3147   -22744.794   -574.52501     140.6484    78.622086    15.956861    29.595908 
   18400    236.38151   -407.21417    229018.04   -21231.999    1565.6399   -22797.639   -1058.0916    142.25589    78.621093    15.955619    29.596928 
   18600    230.18483   -282.98399    229018.04   -21177.833     1524.597    -22702.43   -638.94829    143.46837    78.621941    15.954179    29.580004 
   18800    236.11032   -404.24762    229018.04   -21208.082    1563.8436   -22771.925   -1094.9011    145.68998    78.620479    15.951729    29.596635 
   19000    236.32137   -126.50368    229018.04   -21250.765    1565.2415   -22816.006   -16.349586    146.37607    78.619021    15.951707    29.592252 
   19200    229.10888   -340.50527    229018.04   -21212.933    1517.4706   -22730.403   -867.77242    148.82167    78.616132    15.951656    29.602483 
   19400    235.91097   -243.53791    229018.04   -21181.257    1562.5233    -22743.78   -469.78468    149.82568      78.6159    15.951703    29.627928 
   19600    232.14583    -210.3993    229018.04   -21264.841    1537.5854   -22802.426   -381.49013    149.35099    78.615234    15.948474    29.663194 
   19800    235.40285   -391.08136    229018.04   -21288.212    1559.1578    -22847.37   -1083.0763    150.05582    78.614019    15.947059     29.65685 
   20000    235.08343   -444.47244    229018.04   -21317.884    1557.0422   -22874.926   -1290.8612    150.71246    78.614297    15.945649    29.661875 
   20200    231.75169   -435.36555    229018.04   -21285.241    1534.9749   -22820.215   -1242.6527    151.96594    78.614977    15.948865    29.648726 
   20400    223.54189   -323.39682    229018.04   -21324.478    1480.5984   -22805.077   -762.67633    151.88907    78.615161    15.946309    29.651593 
   20600    239.71744   -318.75638    229018.04   -21290.223    1587.7349   -22877.957   -771.00251    153.71242    78.614317    15.944077    29.643766 
   20800    227.11165   -295.67034    229018.04   -21243.538    1504.2422    -22747.78   -682.74209    155.39419     78.61299    15.944683    29.636273 
   21000    232.23541   -345.93987    229018.04   -21245.801    1538.1787   -22783.979   -859.56902    155.17817    78.613984    15.941868    29.629641 
   21200    232.11009     -274.207    229018.04   -21160.736    1537.3487   -22698.084   -560.46253    155.84824    78.614316    15.941962    29.603664 
   21400    228.23442   -369.39913    229018.04   -21267.359    1511.6787   -22779.038   -946.23294    157.06245    78.613164    15.942309    29.611023 
   21600    239.64433    -212.5338    229018.04   -21185.304    1587.2506   -22772.554   -359.53169    157.61483    78.612935    15.943598    29.617245 
   21800    234.60623    -271.3764    229018.04   -21183.145    1553.8815   -22737.027   -585.49934    159.03674    78.612682    15.945398    29.630688 
   22000    229.59029   -146.80619    229018.04   -21217.736    1520.6591   -22738.396   -107.91458     160.2079    78.612272    15.947283    29.647472 
   22200    243.25596   -209.17978    229018.04   -21204.083    1611.1718   -22815.255   -347.45945    161.23584    78.612666    15.947794    29.643503 
   22400    234.84404   -249.94845    229018.04   -21208.976    1555.4566   -22764.432   -509.44128    163.20116    78.610805    15.946734    29.662176 
   22600     234.1374   -360.15436    229018.04   -21186.203    1550.7763   -22736.979   -935.77761    163.80184    78.610182    15.947742    29.664327 
   22800    240.78435   -168.77109    229018.04   -21148.783    1594.8014   -22743.585   -191.30087    164.84905    78.608536    15.947448    29.678459 
   23000    230.76467   -279.10485    229018.04   -21238.958    1528.4375   -22767.395   -611.09947    165.32657    78.608241    15.946065    29.677199 
   23200    237.23818   -302.02602    229018.04   -21266.144    1571.3139   -22837.458   -655.88441    166.88704    78.606838     15.94491    29.669965 
   23400    237.52515   -341.38596    229018.04   -21177.796    1573.2146   -22751.011   -840.78752      167.572    78.609153    15.945289    29.663685 
   23600    233.11761   -234.82994    229018.04   -21291.536    1544.0218   -22835.558   -453.98572    168.68999    78.611948    15.944269    29.627559 
   23800    226.72896   -321.56696    229018.04   -21304.826    1501.7075   -22806.534   -737.18217     169.0816    78.610171    15.947815    29.625891 
   24000    233.65001   -275.86311    229018.04   -21218.611    1547.5481   -22766.159   -627.15922    169.12326    78.609492    15.949771    29.623321 
   24200    238.01212   -317.81595    229018.04   -21309.525    1576.4399   -22885.964   -708.83217    171.00063    78.610261     15.95061    29.618911 
   24400    236.91706   -398.67402    229018.04   -21252.602     1569.187   -22821.789   -1069.3364    173.18208    78.612335     15.95375    29.641141 
   24600    229.72061   -267.60468    229018.04   -21275.399    1521.5223   -22796.921   -541.95684    173.05748    78.611171    15.954453    29.631896 
   24800    234.87536    -315.5267    229018.04   -21244.508    1555.6641   -22800.172   -703.09491    175.22268    78.611413    15.954817    29.621844 
   25000    240.31612   -206.62401    229018.04   -21237.534    1591.7002   -22829.235   -317.26224    177.06342    78.610604     15.95519    29.608068 
   25200    236.66834   -205.23507    229018.04   -21247.451    1567.5396   -22814.991   -317.35416    178.11381     78.61109    15.956694    29.594461 
   25400    235.49858    -353.2202    229018.04    -21263.81    1559.7919   -22823.602   -911.92928    179.01413    78.611319    15.956323     29.58446 
   25600    235.10501   -279.81016    229018.04   -21219.403    1557.1851   -22776.588    -615.3531    180.85131    78.613329    15.957564    29.579494 
   25800     240.3233   -396.11471    229018.04    -21261.64    1591.7477   -22853.388    -1041.453    182.40731    78.613927    15.954999    29.576348 
   26000    231.74194   -216.87454    229018.04   -21319.169    1534.9103    -22854.08   -303.83969    183.14891    78.613647    15.952745    29.592691 
   26200    232.21319   -399.97926    229018.04   -21270.302    1538.0315   -22808.334   -1098.3408    185.38323    78.615814    15.949623    29.586174 
   26400    225.85438   -367.05923    229018.04   -21358.124    1495.9148   -22854.039   -946.53894    185.52821    78.619167    15.948378    29.574947 
   26600    237.54184   -299.37318    229018.04   -21314.493    1573.3251   -22887.818   -645.01493    186.56011    78.620582    15.949975    29.582587 
   26800    234.29501   -388.02131    229018.04   -21266.769    1551.8202   -22818.589   -1027.9865     186.9276    78.619494    15.951524    29.591223 
   27000    231.98652   -350.28784    229018.04   -21279.378    1536.5302   -22815.908   -897.36923    187.20268    78.620632    15.952553    29.610655 
   27200     240.6482   -210.51505    229018.04   -21163.741    1593.8996   -22757.641   -355.52477     187.9499      78.6215    15.951419    29.618955 
   27400    237.10629   -382.27261    229018.04   -21253.074    1570.4403   -22823.515   -1013.6387    189.22585    78.622261    15.954054    29.604518 
   27600    241.16513    -359.6139    229018.04   -21268.434    1597.3235   -22865.757    -924.0593    189.65881    78.623497     15.95491    29.582647 
   27800    229.54936   -235.76885    229018.04   -21382.151    1520.3881   -22902.539   -404.76316    191.33921    78.623714    15.952744     29.59733 
   28000     228.4651   -246.61829    229018.04   -21320.772    1513.2066   -22833.979    -492.5222    192.37409    78.624013    15.950006    29.601267 
   28200    235.03913    -156.3541    229018.04   -21257.461    1556.7488    -22814.21   -148.95429    194.11803    78.625356    15.949391    29.626364 
   28400    244.12697   -476.69746    229018.04   -21246.979    1616.9408    -22863.92   -1365.2613    195.08632     78.62697    15.947681     29.61543 
   28600    234.92522   -222.39004    229018.04   -21287.722    1555.9943   -22843.716   -370.92566    195.30765    78.627508    15.948164    29.623919 
   28800    231.95163   -269.70806    229018.04   -21369.657    1536.2992   -22905.956   -573.28791     196.1761    78.626003    15.945563    29.605064 
   29000    229.62286   -357.24216    229018.04   -21296.064    1520.8749   -22816.939   -874.84924    198.05875    78.624609    15.947312    29.581022 
   29200    231.39385   -278.18056    229018.04   -21308.919    1532.6047   -22841.523   -563.39093    198.50079    78.627824    15.947165    29.589198 
   29400    233.36312   -176.10041    229018.04    -21248.99    1545.6479   -22794.638   -227.48692    199.96886    78.627865    15.944381    29.573157 
   29600    232.75989   -259.69294    229018.04   -21258.618    1541.6525   -22800.271   -505.69505    200.11003    78.628316    15.945158    29.568046 
   29800    231.61868   -204.74596    229018.04   -21193.928    1534.0939   -22728.022   -276.65638    200.01585     78.62665    15.946433    29.551172 
   30000    234.22488   -346.54478    229018.04   -21191.587    1551.3557   -22742.942   -848.47327    201.90948    78.628358    15.947675    29.552469 
   30200    233.40943     -302.573    229018.04   -21255.749    1545.9547   -22801.704   -709.32348    203.24756    78.627484    15.946746     29.55527 
   30400     232.3325   -315.20071    229018.04    -21285.53    1538.8218   -22824.352   -733.00318    204.70244    78.626186    15.944247    29.549961 
   30600    230.39643   -108.82399    229018.04   -21371.786    1525.9985   -22897.785    72.001216    204.34561    78.624786    15.942531    29.530762 
   30800    229.20476   -310.89979    229018.04   -21273.745    1518.1056    -22791.85   -713.16896    205.24697    78.622481    15.943104    29.516145 
   31000    237.35478   -462.17469    229018.04   -21206.828    1572.0862   -22778.914    -1291.195    206.59991    78.622158    15.946517    29.525422 
   31200    241.52033   -350.74832    229018.04   -21121.104    1599.6761    -22720.78   -886.18025     207.9523    78.620279    15.947659    29.521584 
   31400    241.66456   -367.30682    229018.04   -21160.488    1600.6313    -22761.12   -938.34577    208.16007    78.621073    15.950702    29.519222 
   31600    239.03011   -14.706509    229018.04   -21149.371    1583.1824   -22732.554    428.07332    209.82348    78.622701    15.953455    29.519444 
   31800    233.29099   -163.34145    229018.04   -21229.919    1545.1702   -22775.089   -138.08164    211.47422    78.623844    15.954879    29.502314 
   32000    237.13175   -280.73109    229018.04    -21208.28     1570.609   -22778.889   -607.68943    212.60315    78.628594    15.956105    29.497604 
   32200    227.74927   -279.16241    229018.04   -21298.525    1508.4654   -22806.991   -620.60641    213.77535    78.629975    15.953306    29.486307 
   32400    231.44218   -171.12781    229018.04   -21307.442    1532.9249   -22840.367   -170.97455    214.85656    78.631462    15.952254      29.4923 
   32600    235.75229   -311.78161    229018.04   -21305.424    1561.4723   -22866.896   -721.81402    215.45114    78.631103    15.948744    29.502903 
   32800    236.78379   -219.85494    229018.04   -21287.016    1568.3043    -22855.32   -372.76711    216.97157     78.63034    15.950108    29.501699 
   33000    244.87209   -369.44113    229018.04   -21269.169     1621.876   -22891.045   -963.16006    219.24409    78.630948    15.952411    29.481214 
   33200    228.65498   -305.90684    229018.04   -21269.896    1514.4643    -22784.36   -721.11792    221.98477     78.63004     15.95206    29.477926 
   33400    229.38815   -339.66375    229018.04   -21243.618    1519.3203   -22762.938    -825.7476    224.29283    78.630494    15.951382    29.474286 
   33600    231.53102   -223.78845    229018.04   -21323.432    1533.5133   -22856.945   -406.07672     227.0908    78.630996    15.945583    29.464088 
   33800    235.54548   -329.80262    229018.04    -21234.03    1560.1025   -22794.133   -794.18482    228.05474    78.631029    15.944621    29.446456 
   34000     229.0646   -422.04766    229018.04     -21284.9    1517.1773   -22802.078   -1173.8792     230.1059    78.630248    15.943721    29.414266 
   34200    237.83171   -388.39634    229018.04   -21259.116     1575.245   -22834.362   -1047.3112    229.14721    78.628174    15.943259     29.41426 
   34400    229.99089   -392.46255    229018.04   -21276.878    1523.3124    -22800.19   -1020.0272    231.20488    78.627656    15.944131     29.40387 
   34600    231.36637   -228.55304    229018.04   -21227.133    1532.4228   -22759.555   -411.07193    232.12309    78.626913    15.943285    29.377648 
   34800    234.77189   -294.93448    229018.04    -21217.32    1554.9787   -22772.299   -644.91026     233.9271    78.625352    15.941347    29.404464 
   35000    232.04048   -204.89598    229018.04   -21199.442    1536.8876    -22736.33   -316.47582    234.78297    78.625568    15.940096    29.436129 
   35200    234.73024   -384.82093    229018.04   -21212.056    1554.7029   -22766.759   -1047.2792    236.94643    78.624967    15.938874     29.44691 
   35400    235.12142   -188.47797    229018.04   -21141.485    1557.2938   -22698.779   -236.94347     239.0785    78.624336     15.94065    29.457076 
   35600    232.65696   -190.80704    229018.04   -21241.939    1540.9708    -22782.91   -258.45092    240.75143     78.62595    15.940228    29.465383 
   35800     236.2518   -282.00295    229018.04    -21160.59    1564.7807    -22725.37   -644.18916    243.92201    78.627403    15.938323    29.462213 
   36000    232.32058   -250.36205    229018.04    -21252.28    1538.7428   -22791.022   -487.92566    245.22892    78.626342    15.937079    29.465003 
   36200    233.82676    -378.7835    229018.04   -21264.224    1548.7188   -22812.943   -983.89828    244.55026    78.626076    15.937459    29.472265 
   36400    232.51645   -198.93451    229018.04   -21213.778    1540.0401   -22753.818   -272.96216    246.96132    78.625279    15.937183    29.490152 
   36600    228.89192   -391.60835    229018.04   -21269.617    1516.0335   -22785.651   -1036.6787    248.92522    78.623312    15.936511    29.500937 
   36800    229.25386   -365.76069    229018.04   -21274.327    1518.4308   -22792.758   -950.80429    248.20953    78.622122      15.9374    29.517045 
   37000     243.2836   -231.65543    229018.04    -21240.13    1611.3549   -22851.485   -435.24526    247.47039    78.621191      15.9368    29.511563 
   37200    230.25312   -337.00391    229018.04   -21317.009    1525.0493   -22842.058   -870.14523    248.44387    78.623551    15.940142    29.506143 
   37400    231.41709   -217.81984    229018.04   -21251.234    1532.7587   -22783.993    -393.7981    251.59716    78.624311    15.942701    29.516064 
   37600    230.74795   -175.68571    229018.04   -21216.399    1528.3267   -22744.725   -181.38142    254.19325    78.624175    15.943665      29.4983 
   37800    231.48715   -398.21684    229018.04    -21287.04    1533.2227   -22820.262   -1046.5106    256.44405    78.624203    15.941835    29.490626 
   38000    230.09552    -359.1893    229018.04   -21219.564    1524.0055    -22743.57   -926.36224    257.73239    78.621973    15.940997    29.492076 
   38200     235.3007   -222.74355    229018.04   -21209.071    1558.4812   -22767.552   -404.16855    260.21092    78.621282    15.941707     29.49301 
   38400    229.78227   -418.15026    229018.04   -21232.394    1521.9307   -22754.324   -1112.6761    261.86726     78.62191    15.943654    29.511738 
   38600     233.9561    -326.9515    229018.04    -21222.75    1549.5754   -22772.325   -782.63208      262.487    78.622045    15.943578    29.489198 
   38800    230.24622   -353.90136    229018.04   -21236.872    1525.0036   -22761.876   -905.09624    265.58522    78.623278    15.942609    29.485809 
   39000    236.10025   -470.14881    229018.04    -21220.21    1563.7769   -22783.987   -1318.5483    268.47763    78.622417    15.940664     29.46667 
   39200    233.11564   -231.24281    229018.04   -21309.419    1544.0088   -22853.428   -418.45731    271.53979    78.622553     15.93959    29.449687 
   39400    234.79247    -111.3584    229018.04   -21301.165     1555.115    -22856.28    94.641857    273.94567    78.622789    15.939439    29.453108 
   39600    226.48612   -350.71185    229018.04   -21315.277    1500.0991   -22815.376   -842.07399    274.95851    78.623741    15.940375    29.456435 
   39800    240.63584   -157.29083    229018.04    -21158.76    1593.8177   -22752.578   -125.18659    274.56017    78.623815    15.941776    29.466096 
   40000    228.61183   -275.33373    229018.04   -21269.232    1514.1785   -22783.411   -640.77192    277.08879    78.621441    15.944051    29.442282 
   40200    230.43913   -344.17072    229018.04   -21371.779    1526.2813    -22898.06   -859.32078    275.93208    78.620875    15.948445    29.455666 
   40400    231.34396   -349.13608    229018.04   -21255.568    1532.2743   -22787.843   -890.03427    278.58467    78.619558    15.951192     29.46284 
   40600    221.97601   -342.47651    229018.04   -21323.602     1470.227   -22793.829   -838.19186    279.93995    78.620058    15.950928    29.457795 
   40800    230.52437   -263.00753    229018.04   -21284.839    1526.8459   -22811.685   -532.80156    280.68722    78.619514    15.949185    29.455737 
   41000    237.63153   -317.60817    229018.04    -21195.19    1573.9191   -22769.109   -757.00456    282.41546    78.617993    15.944071    29.431199 
   41200    238.49293   -294.00543    229018.04   -21193.851    1579.6245   -22773.476   -677.84488    286.91383    78.616625    15.940202    29.410791 
   41400    241.17759   -329.13755    229018.04   -21227.046     1597.406   -22824.452    -827.5731      291.016    78.616892    15.936492    29.411326 
   41600    230.52667   -268.19443    229018.04   -21116.325    1526.8611   -22643.186   -566.96676    291.71559     78.61691    15.934185     29.39213 
   41800    242.88648   -306.54666    229018.04   -21169.287    1608.7246   -22778.011   -688.48974    291.82156    78.616468    15.932827    29.412398 
   42000    233.23867   -361.40181    229018.04   -21205.322    1544.8237   -22750.146   -926.92934    291.64186    78.617068    15.935182     29.41771 
   42200    237.59632    -212.9284    229018.04   -21236.324    1573.6859    -22810.01   -385.81959    291.94338    78.615613    15.936473    29.400267 
   42400    236.96327   -303.93952    229018.04   -21254.259    1569.4931   -22823.752   -722.47164    293.31748     78.61361    15.938817    29.400835 
   42600    227.03993   -343.19961    229018.04   -21318.888    1503.7672   -22822.655   -861.40847    295.22288    78.613754    15.941667    29.429856 
   42800      233.345    -336.2231    229018.04   -21198.807    1545.5279   -22744.335    -848.8779     296.7626    78.613962    15.942434    29.437341 
   43000    238.88897   -266.04865    229018.04   -21159.333    1582.2476   -22741.581   -562.39852    297.35777    78.614578    15.943453    29.414939 
   43200    233.24871   -287.83884    229018.04    -21219.56    1544.8902    -22764.45   -671.44529     299.3513    78.614243    15.943608    29.408901 
   43400    236.94522   -280.93854    229018.04   -21281.518    1569.3734   -22850.892   -618.45146     302.4282    78.613821    15.944113     29.39876 
   43600    231.80869   -295.09342    229018.04   -21276.973    1535.3524   -22812.325   -680.24065    303.98068    78.612737    15.945599    29.401268 
   43800    236.25665   -416.56093    229018.04   -21240.622    1564.8128   -22805.434   -1173.4642    305.63642    78.612288    15.948879    29.436282 
   44000    224.77191   -245.30866    229018.04    -21291.58    1488.7453   -22780.325   -471.40396    305.39292    78.611658    15.948913    29.460474 
   44200    236.88585   -418.92798    229018.04   -21256.395    1568.9803   -22825.375    -1169.658    308.08682    78.612951    15.950469    29.465661 
   44400    242.92091   -292.66763    229018.04   -21244.623    1608.9526   -22853.576   -653.49906    308.31794    78.612336    15.950403    29.458237 
   44600    234.82416   -186.55275    229018.04   -21234.343    1555.3249   -22789.667    -298.3422    305.60083    78.613729      15.9509    29.440909 
   44800    234.88512    -96.23818    229018.04    -21239.94    1555.7287   -22795.669     84.57341    304.46318    78.615073    15.946864    29.456285 
   45000    234.43524   -309.62371    229018.04   -21268.913     1552.749   -22821.662   -754.34492    305.91732    78.617202    15.948288     29.48409 
   45200    237.60751   -372.19873    229018.04   -21126.274    1573.7601   -22700.034   -942.85341    306.57504    78.617976    15.950549     29.47889 
   45400    247.58686   -452.14801    229018.04   -21119.181    1639.8569   -22759.037   -1296.0945    306.33762     78.61967    15.950346    29.466972 
   45600    231.16188   -80.844068    229018.04   -21127.545    1531.0683   -22658.613       163.07    304.15222    78.620753    15.951449    29.468986 
   45800     223.7233   -504.95414    229018.04    -21179.29       1481.8    -22661.09   -1454.7068    302.15544    78.619775    15.951315    29.455506 
   46000    238.38785   -397.90023    229018.04   -21200.604    1578.9285   -22779.532   -1092.4662    302.62264    78.617036    15.951753    29.449121 
   46200    242.27963   -285.61558    229018.04    -21158.24    1604.7052   -22762.945   -625.46357    305.43624    78.615907    15.949112    29.448426 
   46400    235.55975   -348.30494    229018.04   -21135.232     1560.197   -22695.429   -858.37023    307.61334    78.617405    15.950359      29.4552 
   46600    235.98396   -325.04224    229018.04   -21195.316    1563.0067   -22758.322   -783.27863    306.54985    78.617458    15.950802    29.469066 
   46800    241.40789   -111.39851    229018.04   -21159.842    1598.9313   -22758.773    21.264177    308.33896    78.616874    15.948449    29.474325 
   47000    243.58268    -137.9418    229018.04   -21131.268    1613.3358   -22744.604    -34.49335    307.28487     78.61646    15.950929    29.489709 
   47200    235.41012   -287.44144    229018.04   -21204.055    1559.2059   -22763.261   -635.07551    308.52651    78.617148    15.951647    29.500863 
   47400    236.21284   -263.90752    229018.04   -21224.268    1564.5227   -22788.791   -531.91641    308.57628     78.61545    15.954348     29.51431 
   47600    241.72821   -318.36111    229018.04   -21168.266    1601.0529   -22769.318    -754.5595    309.71892    78.615804    15.955389    29.520726 
   47800    240.55003   -301.46434    229018.04   -21156.022    1593.2494   -22749.271   -698.49697    312.34089    78.615531    15.953147    29.490944 
   48000     237.4714   -395.97807    229018.04    -21203.22    1572.8586   -22776.078    -1060.492    314.48731    78.614702    15.952066    29.504428 
   48200    234.39857   -165.75909    229018.04   -21233.816    1552.5061   -22786.322   -130.42531    317.17061    78.614838    15.953597    29.503712 
   48400    231.84857   -156.67952    229018.04   -21230.621    1535.6165   -22766.237   -123.00848    318.16648    78.614378    15.954842    29.510728 
   48600    235.67274   -266.66583    229018.04   -21211.786    1560.9454   -22772.731    -543.5734    320.59531    78.613869    15.954825    29.518366 
   48800    235.77896   -239.02307    229018.04   -21175.517    1561.6489   -22737.165   -447.29245     323.0078    78.613621    15.956138    29.530964 
   49000    230.16887   -313.84553    229018.04    -21239.96    1524.4913   -22764.451   -754.88518    323.64887    78.613848    15.957623    29.517513 
   49200    236.43266   -157.13192    229018.04   -21196.831    1565.9786   -22762.809   -124.31777    324.33992    78.616201     15.95679    29.519179 
   49400    237.27723   -305.79027    229018.04    -21186.88    1571.5725   -22758.452   -703.25254    325.98859    78.615818    15.952804    29.516892 
   49600    233.54383     -268.515    229018.04   -21201.875    1546.8449    -22748.72   -527.79576    328.31887    78.614595    15.953239    29.516134 
   49800    235.05716   -373.10123    229018.04   -21276.167    1556.8681   -22833.035   -983.97047    330.66483    78.612144    15.951304     29.52851 
   50000     234.8797   -392.77252    229018.04   -21247.872    1555.6928   -22803.565   -1032.8141    333.45363    78.612823    15.949673    29.530042 
   50200    240.66871   -165.89563    229018.04   -21247.245    1594.0355   -22841.281   -133.80332     333.0219    78.612642    15.949052     29.54583 
   50400    230.35389   -340.56565    229018.04   -21244.019    1525.7167   -22769.736   -843.27437     334.7646    78.612504      15.9468    29.536951 
   50600     230.9177   -379.09043    229018.04   -21287.047     1529.451   -22816.498    -997.0568    337.45068    78.611443    15.945337    29.549032 
   50800    231.03081   -366.96373    229018.04   -21307.731    1530.2002   -22837.931   -947.95631    339.73309    78.611275     15.94483    29.550786 
   51000    237.10033   -318.38832    229018.04   -21284.245    1570.4009   -22854.646   -724.30258    340.26743    78.610447    15.945463    29.542836 
   51200    231.56165   -365.34583    229018.04   -21252.994    1533.7161    -22786.71   -960.68122    340.76315    78.608515    15.948097     29.53253 
   51400    231.44026   -220.98881    229018.04   -21319.193    1532.9122   -22852.105   -385.96124    342.24456    78.607636    15.948299    29.542952 
   51600    230.87992    -324.9015    229018.04   -21302.302    1529.2008   -22831.503   -762.05982     342.6615    78.606691     15.94888    29.534998 
   51800      238.394   -228.03277    229018.04   -21268.636    1578.9693   -22847.605   -379.62181    342.44738    78.606386    15.948793    29.540906 
   52000     235.3498   -293.26526    229018.04   -21297.184    1558.8065    -22855.99    -660.5206     343.6465    78.607391    15.949123    29.552336 
   52200    241.79019   -209.95688    229018.04   -21316.425    1601.4635   -22917.889   -322.55157     345.6337    78.609021    15.945937    29.562882 
   52400    231.82546   -313.74892    229018.04   -21297.227    1535.4634    -22832.69   -715.56369    347.42361     78.61146    15.947474     29.57375 
   52600    231.85853   -220.73641    229018.04   -21238.216    1535.6825   -22773.899   -358.10227    349.36679    78.612685     15.94695    29.583872 
   52800    227.53315   -354.07235    229018.04    -21340.93    1507.0339   -22847.964   -880.14373    351.13476    78.614359     15.94437    29.601557 
   53000     231.0218   -232.00382    229018.04   -21337.486    1530.1405   -22867.626   -431.26792    351.12345    78.617745    15.946039    29.635442 
   53200    230.75503    -385.2244    229018.04   -21302.896    1528.3736    -22831.27    -1020.474    353.39543    78.617692    15.947561    29.641991 
   53400    232.09185   -354.55207    229018.04   -21249.249    1537.2279   -22786.477   -906.91943    351.92951    78.614723    15.947376    29.674127 
   53600    235.00892   -335.46662    229018.04   -21211.062    1556.5487    -22767.61   -820.72715     350.1179    78.612919    15.947972    29.658408 
   53800     235.8651   -166.87047    229018.04   -21274.767    1562.2194   -22836.987   -133.54346    348.82079    78.612992    15.947259    29.668517 
   54000    238.04309   -274.38016    229018.04   -21174.084    1576.6451    -22750.73   -551.79784    348.63024    78.614327    15.949138    29.665177 
   54200    232.36265   -305.99796    229018.04   -21250.106    1539.0215   -22789.128   -743.24171    349.20387    78.612819    15.949862    29.651229 
   54400    229.03987   -425.04357    229018.04   -21322.777    1517.0135    -22839.79   -1164.5183    348.12468    78.613786    15.949877    29.648165 
   54600    235.41453   -409.36676    229018.04   -21261.558    1559.2352   -22820.793   -1105.2635     349.3828    78.614499    15.948738    29.627489 
   54800    239.08227   -224.44535    229018.04   -21275.777    1583.5279   -22859.305   -371.35838    349.56882    78.616781    15.951454    29.638702 
   55000    228.66556   -209.38776    229018.04   -21288.506    1514.5343    -22803.04   -341.02715    351.18573    78.618128    15.950184    29.645156 
   55200    238.88165   -387.17147    229018.04   -21245.954    1582.1992   -22828.153   -1020.8029    353.20429    78.619516    15.950273     29.65594 
   55400    237.53096   -276.20776    229018.04   -21255.958    1573.2531   -22829.211   -597.10418    357.85459    78.617884    15.952748    29.657236 
   55600    239.01987   -347.39835    229018.04   -21236.573    1583.1146   -22819.688    -861.1951    359.65094    78.619186     15.95491    29.663463 
   55800      228.789   -231.70689    229018.04   -21297.129    1515.3519   -22812.481   -418.77703    359.54446    78.617673    15.953465    29.668677 
   56000    229.94151   -426.21436    229018.04   -21263.547    1522.9854   -22786.532   -1165.5127    361.47857    78.618256    15.950912    29.655719 
   56200    236.68738   -287.16793    229018.04    -21195.21    1567.6657   -22762.876   -622.28635    360.92548    78.621873    15.949054    29.669393 
   56400    236.93221   -243.71217    229018.04   -21227.002    1569.2873   -22796.289   -524.80151    362.37742    78.622979    15.949964    29.649138 
   56600    230.80833    -434.0264    229018.04    -21284.94    1528.7267   -22813.667   -1191.3428    365.08503    78.621011    15.950283    29.672873 
   56800    236.04182   -301.76464    229018.04   -21269.837    1563.3899   -22833.227   -681.56974    365.82862    78.621279    15.949236    29.659142 
   57000    226.80306   -223.52724    229018.04   -21303.934    1502.1983   -22806.132   -389.27628    367.10321     78.62242    15.947455     29.66802 
   57200    235.68469   -238.16423    229018.04   -21274.808    1561.0246   -22835.832   -449.29691    365.40183     78.62163    15.947871    29.670587 
   57400    227.64359   -185.75914    229018.04   -21322.611    1507.7654   -22830.377    -246.8047     365.8465    78.622766    15.948825    29.662549 
   57600      240.758   -190.98641    229018.04   -21231.869    1594.6269   -22826.496   -297.90036    367.43592    78.625306    15.949233    29.675893 
   57800    235.22328    -278.3108    229018.04   -21221.712    1557.9684    -22779.68   -597.07591    370.64938    78.624759    15.949841    29.652003 
   58000    234.92181   -353.67241    229018.04   -21182.495    1555.9717   -22738.467   -887.96422    373.63345    78.623848    15.949671    29.649216 
   58200    236.41325   -228.57018    229018.04    -21188.86    1565.8501    -22754.71   -404.29665    375.79041     78.62514    15.949276     29.67122 
   58400    233.84516   -252.34554    229018.04    -21260.26    1548.8406     -22809.1   -484.61446    376.69165    78.626466    15.949184    29.656049 
   58600    234.28404   -254.21469    229018.04   -21221.781    1551.7476   -22773.529   -562.83739    377.15924    78.626234    15.948425    29.647002 
   58800    235.10986   -257.32734    229018.04   -21250.355    1557.2172   -22807.573   -499.48206    375.41022    78.626701    15.949393     29.63098 
   59000    228.34684   -292.54285    229018.04   -21218.256    1512.4233   -22730.679   -659.86443    375.58083    78.626657    15.949426    29.625511 
   59200    225.95404   -189.94729    229018.04   -21215.158     1496.575   -22711.733   -276.15487    373.40708    78.627315    15.948243    29.622246 
   59400    234.07981   -308.46444    229018.04   -21217.566    1550.3948   -22767.961   -736.93789    371.81276    78.627562    15.947865    29.621151 
   59600    239.62857   -346.46653    229018.04   -21149.024    1587.1463    -22736.17   -842.91095    371.30164     78.62704    15.948424    29.629674 
   59800    242.72183   -300.32986    229018.04   -21117.189    1607.6341   -22724.823   -695.52801    370.94767    78.626246    15.949918    29.616408 
   60000    229.51914   -242.01418    229018.04     -21212.6    1520.1879   -22732.788   -457.33872    372.94739    78.624813    15.951253    29.611392 
   60200    229.83778   -383.33125    229018.04   -21180.639    1522.2983   -22702.938    -968.9032    374.58635    78.626315    15.951006    29.593424 
   60400    235.95787   -134.48776    229018.04   -21265.683    1562.8339   -22828.517   -49.452307    376.70733    78.624897    15.951573      29.5923 
   60600    234.33031    -318.4846    229018.04   -21297.976     1552.054    -22850.03   -741.24721     376.6028    78.625332    15.950029    29.578607 
   60800    236.57578   -330.26293    229018.04    -21313.84    1566.9265   -22880.766   -819.74165    380.02929    78.624842     15.94773    29.607563 
   61000    231.87755   -315.11085    229018.04   -21324.904    1535.8085   -22860.712   -747.81914     384.5314    78.625591     15.94803    29.609379 
   61200    231.99357   -268.55731    229018.04   -21376.343    1536.5769    -22912.92   -548.16065    383.58953    78.623412    15.947552    29.585843 
   61400    236.80955   -344.25985    229018.04   -21312.758    1568.4749   -22881.233   -867.39749    385.21937    78.623819    15.948759    29.587527 
   61600     245.6971   -184.77237    229018.04   -21297.565    1627.3403   -22924.905   -220.77157    385.57604    78.624514    15.946846    29.572779 
   61800    236.47662   -260.20637    229018.04    -21274.23    1566.2697     -22840.5   -536.76711    386.54978     78.62449    15.944541    29.577921 
   62000    229.69452   -329.55363    229018.04   -21334.223    1521.3495   -22855.572   -812.96995    388.03728    78.624996    15.942503    29.586267 
   62200    234.00787   -284.28935    229018.04   -21246.711    1549.9184   -22796.629   -587.93706    386.46429    78.623136    15.941088    29.592299 
   62400    242.15172   -312.75717    229018.04   -21220.548     1603.858   -22824.406   -741.08722    387.79791    78.621798    15.939445    29.571411 
   62600    238.99799   -301.90755    229018.04   -21237.592    1582.9697   -22820.562   -726.29293    389.82206    78.622385      15.9379    29.567616 
   62800    233.97044   -318.14296    229018.04   -21241.395    1549.6704   -22791.065   -745.87326    388.45177    78.623807    15.940258    29.566834 
   63000    236.83746   -293.82639    229018.04   -21242.588    1568.6597   -22811.248    -659.0031    388.49838    78.624186    15.938545    29.561733 
   63200    229.96938   -194.84829    229018.04   -21337.941      1523.17   -22861.111   -279.78108    387.75475    78.624209      15.9369    29.544057 
   63400    240.02606   -383.16318    229018.04   -21224.328     1589.779   -22814.107   -1034.5201    388.11237    78.625664     15.93216    29.557866 
   63600    233.54157   -150.83152    229018.04   -21238.575    1546.8299   -22785.404   -134.31555    386.13475    78.626055    15.929697    29.533866 
   63800     238.8572   -238.42323    229018.04   -21167.059    1582.0372   -22749.096    -449.0853    387.64439    78.627461    15.929287    29.542216 
   64000     228.2528   -142.00144    229018.04   -21244.722    1511.8004   -22756.522   -57.831203    386.19417    78.627343    15.928272    29.566163 
   64200    233.03666   -304.95177    229018.04   -21229.285    1543.4857    -22772.77   -686.71101    383.02147    78.627064    15.927948    29.580764 
   64400    235.65411   -323.75895    229018.04   -21232.374     1560.822   -22793.196   -801.37839    382.89965    78.625064    15.931703    29.550949 
   64600    229.36946   -125.68316    229018.04   -21262.967    1519.1965   -22782.163    19.946609    382.33283    78.623849    15.933821    29.558813 
   64800     238.4381   -404.23513    229018.04    -21191.13    1579.2613   -22770.391   -1085.5361    384.10526    78.624542     15.93478     29.56683 
   65000    234.27703   -335.19399    229018.04    -21256.51    1551.7011   -22808.211   -836.57786    383.41425    78.624269    15.936043    29.549171 
   65200    229.56665    -230.3704    229018.04   -21257.234    1520.5025   -22777.737   -404.79792    385.35147     78.62518     15.93488    29.596928 
   65400    237.51322   -318.66788    229018.04   -21148.536    1573.1355   -22721.671   -762.99101    384.84108    78.624632    15.937767    29.573397 
   65600    235.80163   -186.11918    229018.04    -21159.49     1561.799   -22721.289   -252.51967    385.63333    78.626274    15.936819    29.589247 
   65800    234.97337   -384.49108    229018.04   -21259.854    1556.3132   -22816.167   -990.27572    388.32977    78.626452    15.933811     29.57703 
   66000    232.04017   -364.23325    229018.04   -21288.625    1536.8855    -22825.51   -931.43659    389.39535    78.622974    15.933167     29.56514 
   66200    235.25319   -272.73025    229018.04   -21231.445    1558.1665   -22789.612   -577.98118    391.48427    78.619471    15.930529     29.55206 
   66400     227.0923   -317.07634    229018.04   -21311.515    1504.1141   -22815.629   -755.03392    391.51707    78.618388    15.928195    29.529587 
   66600    233.31267   -245.87679    229018.04   -21307.185    1545.3138   -22852.498   -467.15745    393.79123    78.617132    15.928689    29.513491 
   66800    230.94499   -253.51343    229018.04   -21353.129    1529.6318   -22882.761    -496.0112    392.81928    78.615187    15.929163    29.530584 
   67000    232.31103   -256.01756    229018.04   -21276.055    1538.6796   -22814.734   -486.20428    392.90173    78.611904     15.93312    29.519946 
   67200    230.29525    -191.7743    229018.04   -21297.949    1525.3283   -22823.278   -256.13419    393.38792    78.610946     15.93397    29.510486 
   67400    238.58638    -134.8676    229018.04   -21221.492    1580.2435   -22801.735   -39.592413    395.56869    78.609886    15.936953    29.509425 
   67600    230.21093   -405.98566    229018.04   -21250.102    1524.7699   -22774.872   -1129.4957    397.93476    78.606883    15.939591    29.525958 
   67800    237.99657   -361.50962    229018.04   -21260.781     1576.337   -22837.118   -936.33066    398.46642    78.602843    15.938729    29.537119 
   68000    236.48257    -177.1724    229018.04   -21282.442    1566.3092   -22848.751   -195.98384    398.31523    78.602259    15.937943    29.525928 
   68200    232.67063   -286.04223    229018.04   -21289.359    1541.0613    -22830.42    -640.5627    398.43507    78.604255    15.938918    29.525592 
   68400     238.2971   -367.97182    229018.04    -21155.82    1578.3274   -22734.148    -956.2744    397.27587    78.606333    15.938895    29.511923 
   68600    239.32732   -174.04344    229018.04   -21174.002     1585.151   -22759.153     -218.818    398.67375    78.606113    15.936328      29.5215 
   68800    242.63993   -122.48055    229018.04   -21143.021    1607.0916   -22750.112    1.5720774    401.11686    78.607209     15.93676    29.512248 
   69000    237.68741   -387.59622    229018.04   -21113.001    1574.2893    -22687.29     -1039.44    402.31162    78.610253     15.93748    29.500718 
   69200    239.42812   -234.51467    229018.04   -21202.645    1585.8186   -22788.464   -419.42236    401.55508    78.612789     15.93569    29.515813 
   69400    236.22048   -346.15478    229018.04   -21231.513    1564.5733   -22796.087   -857.52224    402.43264    78.612648    15.933498    29.514662 
   69600    231.22598   -490.83706    229018.04   -21219.762    1531.4929   -22751.255   -1391.2274    403.99252    78.611586    15.934038    29.522519 
   69800    238.93359    -363.8198    229018.04   -21213.295    1582.5432   -22795.838   -949.92037    405.52144    78.610167    15.933057    29.513114 
   70000    232.67769   -399.55363    229018.04   -21302.579    1541.1081   -22843.687   -1078.3955    406.36663    78.609359    15.931732    29.523791 
   70200    233.68102   -267.24423    229018.04   -21332.542    1547.7535   -22880.295   -583.36212    409.11755    78.607779    15.932341    29.526383 
   70400    232.19897   -388.25934    229018.04   -21297.843    1537.9374   -22835.781   -1035.8806    413.08407    78.606235    15.930977    29.521594 
   70600    238.91506    -286.7417    229018.04   -21270.399    1582.4204   -22852.819   -622.09281    412.27496    78.605378    15.929147    29.510622 
   70800    233.85986   -203.39797    229018.04   -21312.971    1548.9381   -22861.909    -283.2326    409.91346    78.603974    15.930486    29.526397 
   71000    234.74551    -200.7622    229018.04   -21286.332     1554.804   -22841.136   -330.96116    409.08291     78.60293    15.931706    29.515512 
   71200    243.91652   -289.34046    229018.04   -21195.372    1615.5469   -22810.919   -625.41514    409.16537    78.601303    15.931601    29.514288 
   71400    235.83428   -303.20369    229018.04   -21249.988    1562.0153   -22812.003   -720.17193    410.00982    78.598521    15.930049      29.5072 
   71600     227.3272   -351.55995    229018.04   -21274.663    1505.6698   -22780.333   -845.61957    411.27347    78.596007    15.928833     29.47919 
   71800    229.57552   -403.60744    229018.04   -21307.926    1520.5613   -22828.487   -1101.5684    413.50751    78.595467    15.931927    29.458181 
   72000    236.79144    -263.3045    229018.04   -21299.618    1568.3549   -22867.973   -488.61363    414.41169    78.595891    15.928299    29.423414 
   72200    237.79952   -350.73552    229018.04     -21285.7    1575.0318   -22860.732   -872.93621    416.11539    78.597628    15.926983    29.448753 
   72400    241.47891   -362.35393    229018.04   -21251.653    1599.4017   -22851.055    -926.8422    417.02752    78.594612    15.928582    29.435865 
   72600    239.52546   -308.69614    229018.04   -21282.632    1586.4633   -22869.096   -692.42872    419.05251    78.594085    15.930402    29.431331 
   72800    231.57958   -355.17613    229018.04   -21317.717    1533.8349   -22851.552   -892.60804    419.89495    78.592701    15.931923    29.438245 
   73000    236.12229    -416.1003    229018.04   -21330.269    1563.9229   -22894.191   -1127.2371    420.51985    78.592833    15.933187    29.436464 
   73200    237.69243   -272.49977    229018.04   -21219.426    1574.3225   -22793.748   -581.65265     419.3612    78.594983    15.933154    29.444085 
   73400    239.81893   -247.65515    229018.04   -21219.842    1588.4071   -22808.249    -495.4193     418.1535    78.598006    15.935421    29.441222 
   73600    233.29449   -276.44386    229018.04   -21304.625    1545.1934   -22849.818   -615.52209    418.35512    78.594917    15.939852    29.441879 
   73800    237.19804   -352.16389    229018.04   -21252.837     1571.048   -22823.885   -924.01421    417.93259    78.595209    15.942689    29.442672 
   74000    241.37774   -454.76121    229018.04   -21205.888    1598.7316   -22804.619   -1295.1941    420.37499    78.595236    15.944372    29.457914 
   74200    233.57299   -326.71122    229018.04   -21254.421     1547.038   -22801.459   -804.01043    421.54532    78.595243    15.947274    29.454675 
   74400    226.99679   -312.59639    229018.04   -21293.209    1503.4814    -22796.69   -694.96803     422.2699    78.598744    15.951662    29.454822 
   74600    230.08266   -372.07572    229018.04   -21282.184    1523.9203   -22806.105   -941.60955    423.00843    78.603367    15.954682      29.4622 
   74800    240.99728   -114.46582    229018.04   -21231.309    1596.2118   -22827.521    72.857003    422.18706    78.606398    15.957517    29.466322 
   75000     229.5704    -667.6971    229018.04   -21241.276    1520.5274   -22761.803   -2132.3354    425.10098    78.609321    15.960996    29.473012 
   75200    233.24877   -247.02386    229018.04    -21237.86    1544.8906   -22782.751   -428.41068    426.53196    78.609451    15.964625    29.497525 
   75400    237.15207   -83.388894    229018.04   -21224.805    1570.7435   -22795.549    151.64184    428.12643    78.609207    15.968481    29.517598 
   75600    233.55257   -139.96434    229018.04   -21225.799    1546.9027   -22772.702   -63.522725    428.41487     78.60829    15.970178    29.514703 
   75800    236.95366   -360.85419    229018.04   -21255.268    1569.4294   -22824.698   -880.41076    429.87066    78.609718    15.970513    29.526388 
   76000    234.47526   -409.98989    229018.04    -21274.08     1553.014   -22827.094   -1107.9877    431.37558    78.610985    15.971956    29.524808 
   76200     231.5304   -102.05173    229018.04   -21312.646    1533.5092   -22846.155    77.986244    429.33206     78.61167     15.97239    29.542939 
   76400    225.26865   -506.30644    229018.04   -21349.488    1492.0354   -22841.523   -1468.0401    430.86812    78.615359    15.973083    29.536747 
   76600    232.76572   -206.23208    229018.04   -21294.849    1541.6911    -22836.54   -318.74425    432.05353    78.614618    15.972251    29.529439 
   76800    238.18439   -303.09293    229018.04   -21196.014    1577.5809   -22773.594   -657.36926    433.95786    78.614705    15.971485    29.536085 
   77000    226.99394   -305.96475    229018.04   -21302.623    1503.4626   -22806.086   -669.72664    434.12051    78.615713       15.972      29.5712 
   77200    230.51797   -344.13014    229018.04   -21278.799    1526.8035   -22805.602   -856.54413    433.84073    78.615211    15.973038    29.581431 
   77400    235.54352   -313.95047    229018.04   -21259.109    1560.0895   -22819.198   -696.98747    434.94871    78.615449    15.971492    29.588464 
   77600    232.55106   -235.33132    229018.04   -21262.689    1540.2694   -22802.958   -435.81733    435.82835    78.613877    15.971671    29.608959 
   77800     238.6523   -177.93413    229018.04   -21306.386    1580.6801   -22887.066   -202.02886     437.1029    78.614918    15.972313    29.618101 
   78000    227.57549   -368.26715    229018.04   -21346.652    1507.3144   -22853.967   -959.98969    438.21996    78.618004    15.972172    29.628201 
   78200    235.19876   -265.03021    229018.04   -21279.134    1557.8061    -22836.94   -550.85167    437.53463    78.620994    15.970582    29.642542 
   78400    236.47494   -312.14504    229018.04   -21275.076    1566.2587   -22841.335   -674.32431    439.77325    78.619001    15.971287    29.646599 
   78600    225.71409   -408.20997    229018.04   -21315.338    1494.9857   -22810.323   -1091.8218    437.97185    78.620059    15.969153    29.650974 
   78800    231.62672   -268.53771    229018.04   -21291.707    1534.1471   -22825.854   -536.19351    439.39169    78.618548    15.968604     29.66621 
   79000    235.79473   -215.53381    229018.04   -21259.709    1561.7534   -22821.462   -353.40704    441.85681    78.617513    15.970527    29.662457 
   79200    234.65147   -381.70046    229018.04   -21268.172    1554.1811   -22822.353    -990.6101    442.30196    78.616133    15.972592    29.674836 
   79400    233.39362   -384.78387    229018.04   -21349.628      1545.85   -22895.478   -971.42662    444.11021     78.61302    15.974851    29.670439 
   79600    231.04237   -351.68141    229018.04   -21313.914    1530.2767   -22844.191   -884.05606    444.64461    78.611288     15.97418     29.66585 
   79800     238.7759   -259.84989    229018.04   -21297.343    1581.4987   -22878.842   -502.40647    445.71267    78.609728     15.97272    29.659551 
   80000    236.42481   -160.57777    229018.04   -21352.888    1565.9266   -22918.815   -136.59401    443.09666    78.608903    15.971898    29.679414 
   80200    235.80648   -243.40034    229018.04   -21340.849    1561.8312    -22902.68   -412.17752    446.00569    78.608509    15.970974    29.667035 
   80400     231.6047   -281.53437    229018.04   -21380.194    1534.0013   -22914.196    -603.6474    446.75401    78.608757    15.973033    29.686126 
   80600    239.39176   -345.17656    229018.04   -21210.026    1585.5778   -22795.604    -816.0519    449.79472    78.607405    15.974634    29.705938 
   80800    226.16824   -343.40951    229018.04   -21273.724    1497.9937   -22771.718   -800.30984    449.30812    78.605745    15.974955    29.723538 
   81000    235.68674   -378.88155    229018.04   -21196.791    1561.0381   -22757.829   -970.97271    450.72682    78.605744    15.976773    29.721485 
   81200      237.904   -162.41539    229018.04   -21207.404    1575.7238   -22783.128   -168.27903     450.7889    78.603472    15.975745    29.720546 
   81400    224.28392   -447.21648    229018.04   -21261.053    1485.5132   -22746.566   -1261.5829    451.57374    78.602321    15.975032    29.712387 
   81600    238.51826   -383.77595    229018.04   -21168.038    1579.7923    -22747.83   -1020.4954    451.30813     78.60075     15.97545    29.725025 
   81800    237.85283   -154.90217    229018.04   -21155.093    1575.3849   -22730.477   -125.04193    453.07373    78.601541     15.97546     29.71933 
   82000    240.17378   -338.73163    229018.04   -21089.483    1590.7574   -22680.241   -852.42573    454.29479     78.59998    15.978124    29.719767 
   82200    238.81787   -293.40353    229018.04   -21200.025    1581.7767   -22781.801   -650.88407    456.15519    78.600348     15.97866    29.728634 
   82400     230.7024   -239.22439    229018.04   -21211.266     1528.025   -22739.291   -415.13961    459.42198     78.60046    15.979765    29.725127 
   82600    236.99537   -285.52248    229018.04   -21202.483    1569.7057   -22772.188   -633.55285    460.18684    78.600708    15.980499    29.719033 
   82800    236.44557   -388.37179    229018.04   -21184.197    1566.0641   -22750.261   -1066.1575    459.94533    78.598981    15.981723    29.719022 
   83000    230.13797   -308.25899    229018.04   -21238.602    1524.2866   -22762.888   -695.59282    461.39158    78.599167    15.983379    29.706223 
   83200    231.16005   -253.09037    229018.04   -21218.495    1531.0562   -22749.552   -503.36925    462.33219    78.596624    15.983086    29.695359 
   83400    234.44826   -482.22139    229018.04   -21235.363    1552.8352   -22788.198   -1429.3201    463.01773    78.597009    15.982677    29.692978 
   83600    232.43752   -313.11506    229018.04   -21206.013    1539.5174   -22745.531   -725.94168    464.04338    78.597636    15.983284    29.698926 
   83800    232.83165   -302.92603    229018.04   -21245.485    1542.1278   -22787.613   -648.79339    465.16314     78.60043    15.981169    29.710568 
   84000    234.57858   -206.26058    229018.04   -21253.839    1553.6984   -22807.537   -294.94157    465.71844    78.600376    15.981356    29.725493 
   84200    230.15429   -116.88634    229018.04   -21251.009    1524.3947   -22775.404    51.798349    467.16789    78.597741    15.982481    29.730995 
   84400    232.32847   -363.28231    229018.04   -21175.242    1538.7951   -22714.037   -926.35324    469.08558    78.596279    15.979488    29.716185 
   84600     230.0762   -284.96972    229018.04   -21199.055    1523.8775   -22722.932   -587.70705    469.33488     78.59562     15.97833    29.704192 
   84800    232.80729   -486.99831    229018.04   -21197.471    1541.9665   -22739.438   -1401.0717    471.95099    78.595069    15.976575    29.696376 
   85000    234.00542   -278.77744    229018.04   -21155.032    1549.9021   -22704.934   -566.26023    472.45058    78.593895     15.97582    29.696587 
   85200    238.43473   -357.97481    229018.04   -21121.244     1579.239   -22700.483   -882.80602    474.21275    78.595368    15.973984    29.700109 
   85400    233.47426   -287.34888    229018.04   -21180.821    1546.3841   -22727.205   -603.83667    473.58923    78.597655    15.973504    29.692533 
   85600     241.0583   -247.94755    229018.04   -21165.466    1596.6159   -22762.082   -498.38454    473.96426    78.598345    15.973798    29.711409 
   85800    236.61189   -215.77332    229018.04   -21164.739    1567.1657   -22731.905   -361.66159    474.91982    78.597405    15.974042    29.733432 
   86000     238.2195   -421.54139    229018.04     -21127.9    1577.8135   -22705.714   -1097.9122       476.48    78.597353    15.974291    29.731763 
   86200    240.79978   -217.71042    229018.04   -21180.506    1594.9036    -22775.41   -344.49788    479.37109      78.5969    15.973688    29.735334 
   86400    233.93436   -135.29536    229018.04   -21191.349    1549.4315   -22740.781    8.2519766    480.37291    78.595036    15.974062    29.718605 
   86600     235.6972    -309.9809    229018.04   -21150.651    1561.1074   -22711.758   -708.53881    480.01946    78.593594    15.974865    29.718585 
   86800    226.16593   -388.18861    229018.04   -21183.351    1497.9784   -22681.329   -1008.2804    479.93581    78.592662    15.973704    29.726414 
   87000    229.42291   -287.67285    229018.04   -21196.728    1519.5505   -22716.279   -628.57592    480.35946    78.592956    15.972226    29.705482 
   87200    238.26635   -377.20715    229018.04   -21173.319    1578.1238   -22751.443   -959.21293     481.5035    78.593427    15.970476    29.698011 
   87400    234.71495   -483.04193    229018.04   -21194.572    1554.6016   -22749.173   -1368.9107     481.4645    78.594722    15.968494    29.719846 
   87600    237.26815   -167.61601    229018.04   -21149.242    1571.5124   -22720.755   -166.69414    482.21728    78.594781      15.9682    29.706874 
   87800    231.06008   -330.87917    229018.04   -21302.343    1530.3941   -22832.738   -815.66677    482.75753    78.591439    15.967671    29.691043 
   88000    238.08843   -269.62999    229018.04   -21129.732    1576.9453   -22706.677   -510.88909    485.13123    78.589474    15.966053    29.667003 
   88200    239.41034   -221.22788    229018.04   -21111.151    1585.7009   -22696.852   -300.25338    486.42069    78.588283    15.966519    29.657428 
   88400    237.57802   -334.05545    229018.04   -21132.486    1573.5647    -22706.05   -804.27563    486.94153    78.588314    15.967639    29.650591 
   88600    230.25042   -382.96156    229018.04    -21236.48    1525.0314   -22761.511    -988.3099    487.97339    78.588738    15.969642    29.641328 
   88800     233.1523   -332.05294    229018.04   -21278.303    1544.2516   -22822.554   -818.77431    486.71737      78.5907    15.972168    29.627643 
   89000    229.72004   -204.96349    229018.04   -21295.363    1521.5185   -22816.882   -292.78517    488.53525    78.592716    15.974014    29.598835 
   89200    233.35746   -347.51181    229018.04   -21279.292    1545.6105   -22824.902    -877.6928    491.03048    78.596094    15.978321    29.607836 
   89400    242.60274   -123.38849    229018.04   -21230.114    1606.8453   -22836.959    42.768803    493.13199    78.597479    15.977762     29.61309 
   89600    229.94723    -412.0135    229018.04    -21363.05    1523.0233   -22886.074   -1101.0099    494.57751    78.597942    15.976417    29.594691 
   89800    233.17585   -65.979619    229018.04   -21291.121    1544.4076   -22835.529    236.11427     492.5344    78.598666    15.978121    29.589561 
   90000    240.17848   -249.68449    229018.04   -21184.907    1590.7885   -22775.696   -440.44435    493.92319    78.597524    15.980618     29.58625 
   90200    229.06912   -358.60984    229018.04   -21219.741    1517.2072   -22736.948   -897.50164    496.34784    78.595673     15.98334    29.577751 
   90400    238.29569   -194.28852    229018.04   -21281.124    1578.3181   -22859.442   -215.44098    495.90746    78.596645     15.98317    29.560617 
   90600    232.87164   -198.08048    229018.04   -21317.664    1542.3927   -22860.057   -252.91958    498.43883    78.595602    15.982631    29.547674 
   90800    238.60632   -265.23193    229018.04   -21223.061    1580.3756   -22803.436   -561.62687    497.56259    78.595195     15.98111    29.564307 
   91000    228.81691   -363.49823    229018.04   -21291.794    1515.5368    -22807.33   -953.13333    496.86557    78.594406    15.980408    29.563144 
   91200    234.15326   -207.07116    229018.04   -21285.968    1550.8813    -22836.85   -331.39847    497.66671    78.596135    15.981072    29.571346 
   91400    236.48505   -248.72712    229018.04   -21288.522    1566.3256   -22854.848   -458.27229    497.30965    78.597346    15.979329    29.585932 
   91600    228.86847   -383.27275    229018.04   -21272.743    1515.8782   -22788.621   -952.83687    499.27615      78.5954    15.979952    29.583935 
   91800    236.80466   -190.30678    229018.04   -21240.613    1568.4425   -22809.055   -253.02577    500.41664    78.595795    15.978849    29.578381 
   92000    230.92901   -398.20199    229018.04    -21288.92     1529.526   -22818.446   -1044.0723     501.5823    78.593351    15.977934    29.587942 
   92200    234.75887   -223.50381    229018.04   -21299.813    1554.8925   -22854.706    -333.8793    499.84586    78.591327    15.978123     29.58412 
   92400    234.80562    -367.2734    229018.04   -21253.098    1555.2021     -22808.3   -931.35568    502.58559    78.590417    15.977315    29.603513 
   92600    239.36112   -226.99191    229018.04   -21240.635    1585.3749    -22826.01   -416.29554    501.04524    78.587952    15.976084    29.611917 
   92800    230.68647   -445.10559    229018.04    -21346.57    1527.9195   -22874.489   -1210.4751    503.92876     78.58764    15.978183    29.633208 
   93000    234.35981   -140.03753    229018.04   -21370.368    1552.2494   -22922.617   -8.3687971    503.29654     78.58815    15.980633    29.641138 
   93200    237.02869   -313.98888    229018.04   -21287.031    1569.9263   -22856.958    -724.7366    505.95455    78.588527    15.979916    29.651365 
   93400    228.55792   -279.20394    229018.04   -21354.544    1513.8214   -22868.366   -591.54789    507.93441    78.588649    15.979187    29.675295 
   93600    231.63429   -288.16798    229018.04   -21333.306    1534.1973   -22867.503   -588.17324    510.46767    78.588108    15.979291     29.70425 
   93800    235.57116   -246.47129    229018.04   -21233.122    1560.2726   -22793.394   -460.35493    512.28268    78.586924    15.979744    29.718213 
   94000    237.39283   -202.76571    229018.04   -21248.619    1572.3382   -22820.957   -308.08797    510.53234     78.58452    15.976855    29.730247 
   94200    236.37325   -458.61985    229018.04   -21285.646    1565.5851   -22851.231   -1306.1244    516.16182    78.585952    15.975657    29.759651 
   94400    238.87755   -256.53068    229018.04   -21220.676     1582.172   -22802.848   -498.26045    515.93371      78.5856    15.973154     29.75918 
   94600    233.73015   -360.31221    229018.04   -21284.412    1548.0789   -22832.491   -894.08511    517.45473    78.583811      15.9718    29.759669 
   94800    244.55456   -312.91711    229018.04   -21184.921    1619.7729   -22804.694   -711.63875    517.58662    78.583941    15.970466    29.760256 
   95000    237.97777     -374.126    229018.04   -21222.062    1576.2124   -22798.274   -935.19705    516.66556    78.586108    15.968343    29.759126 
   95200    228.42738   -269.34198    229018.04   -21281.192    1512.9567   -22794.149   -554.00888    514.51893    78.585804    15.969503    29.759536 
   95400    229.00877   -266.87748    229018.04   -21285.663    1516.8075    -22802.47   -584.43497    515.50448    78.584055    15.968678    29.763592 
   95600    235.22588   -176.41251    229018.04   -21273.693    1557.9857   -22831.679   -145.29259    517.03666    78.583395    15.968338    29.769077 
   95800    240.41908   -177.37184    229018.04   -21232.691    1592.3821   -22825.073   -179.26666    519.46427    78.583214    15.968469    29.786424 
   96000    230.89533    -203.1312    229018.04   -21252.217    1529.3029    -22781.52   -290.45891    519.44985    78.584251    15.968216    29.798942 
   96200    231.35566   -319.28504    229018.04   -21283.636    1532.3518   -22815.988   -772.01266    519.24106    78.582254    15.970052     29.79723 
   96400    236.52339   -420.24407    229018.04   -21221.932    1566.5796   -22788.512   -1169.9041    520.90393    78.580019    15.974601    29.802206 
   96600     229.1412   -305.67222    229018.04   -21294.254    1517.6847   -22811.939   -700.62281    521.35952    78.580434    15.977586    29.806545 
   96800     227.5387   -386.26875    229018.04   -21260.615    1507.0707   -22767.685   -981.59828    523.12621    78.582891    15.977944    29.817321 
   97000    232.69774   -202.42055    229018.04   -21249.037    1541.2409   -22790.278   -321.61849    524.41166     78.58385    15.974876    29.831018 
   97200    238.26735   -325.79422    229018.04   -21204.882    1578.1304   -22783.012   -782.15187    524.27856    78.583168    15.975563    29.837433 
   97400    237.42156   -304.93484    229018.04   -21210.955    1572.5284   -22783.484   -691.38775    524.93119    78.584222    15.974701    29.848815 
   97600    238.04629   -282.13291    229018.04   -21244.275    1576.6663   -22820.941   -604.34775    524.29592    78.586325    15.975026    29.837646 
   97800    233.42505   -120.04349    229018.04   -21310.474    1546.0581   -22856.533    29.374772    526.95403    78.585751    15.975472     29.85872 
   98000    220.08899   -363.76044    229018.04   -21402.621    1457.7286    -22860.35   -990.18617    533.49063    78.586712    15.973927    29.841686 
   98200    228.28308   -398.90576    229018.04   -21356.147     1512.001   -22868.148   -1035.6237    534.35302    78.587585    15.974061    29.850742 
   98400    236.80803   -148.70538    229018.04   -21317.377    1568.4648   -22885.841   -97.314104    536.01044    78.587844    15.975677    29.852099 
   98600    234.44045    -325.4327    229018.04   -21286.887    1552.7835   -22839.671   -778.35773    538.59201    78.589199    15.975641    29.858654 
   98800    238.63219   -236.01487    229018.04   -21164.967    1580.5469   -22745.514   -451.49709    538.28326     78.58908     15.97467    29.863824 
   99000    240.87765   -410.63404    229018.04   -21125.469    1595.4194   -22720.888   -1095.3989    540.58432    78.588739    15.974406    29.878826 
   99200    243.45717   -222.87818    229018.04   -21208.858    1612.5045   -22821.362   -376.70688    541.73033    78.586657    15.974535    29.865418 
   99400    236.22341   -268.31101    229018.04   -21296.706    1564.5927   -22861.298   -522.32639    543.41288    78.586188    15.973776    29.871241 
   99600    238.12692   -253.35616    229018.04   -21260.262    1577.2003   -22837.463   -534.66006    543.73134    78.586311     15.97471    29.871512 
   99800    238.46773   -349.54222    229018.04   -21220.447    1579.4576   -22799.904   -851.08539    543.55515    78.587247    15.972816    29.825769 
  100000    241.08751   -340.51519    229018.04   -21253.878    1596.8093   -22850.687   -805.58612    543.71519    78.587609    15.970816    29.813743 
  100200    241.87691   -283.99531    229018.04   -21160.284    1602.0379   -22762.322   -629.34016    543.54944     78.58737    15.971163    29.823183 
  100400    234.45421   -248.99617    229018.04   -21207.144    1552.8746   -22760.019   -461.97756    548.29713    78.589569    15.971699      29.7824 
  100600     230.1214   -323.68337    229018.04   -21246.333    1524.1769   -22770.509   -801.53476    548.79447    78.589825    15.970934    29.755715 
  100800    244.67404   -130.25259    229018.04   -21180.101    1620.5642   -22800.665   -7.2831547    548.14735    78.589386    15.968248     29.76355 
[...]
 3975800    224.43858   -235.56506    229018.04   -23390.893    1486.5375   -24877.431   -456.68716    2046.9646    77.911587    14.934318    29.643971 
 3976000    216.57871   -433.54921    229018.04   -23425.179    1434.4788   -24859.658   -1238.7665    2050.6589    77.912653    14.934875    29.642663 
 3976200    222.09354     -129.142    229018.04   -23393.254    1471.0055   -24864.259   -43.267682    2045.3257    77.913333    14.932364    29.641871 
 3976400    218.85118   -195.94226    229018.04   -23377.875    1449.5301   -24827.405   -279.91331    2045.4429    77.913029    14.932213    29.654113 
 3976600    226.33084   -406.56074    229018.04   -23311.168    1499.0706   -24810.239   -1141.6828    2050.5591    77.914016    14.929896    29.641602 
 3976800    228.13615   -267.47102    229018.04   -23311.787    1511.0278   -24822.815    -614.6642    2047.4778    77.913706    14.927072    29.644593 
 3977000    221.87713   -234.12661    229018.04   -23347.757    1469.5721   -24817.329   -455.72233    2046.0556    77.912646    14.924437    29.639136 
 3977200    231.06722   -377.95227    229018.04   -23291.992    1530.4413   -24822.434   -1024.5313    2048.5337    77.913168    14.922466    29.633819 
 3977400    225.16722   -224.47336    229018.04   -23348.877    1491.3635   -24840.241   -425.85814    2048.2538    77.913363    14.921593    29.642631 
 3977600    220.66569   -171.77102    229018.04   -23411.434    1461.5483   -24872.982   -209.37017    2044.6272    77.914941    14.921673    29.636002 
 3977800     225.9986   -393.47395    229018.04   -23380.812    1496.8701   -24877.682   -1048.2199    2046.5833      77.9147    14.919352    29.632449 
 3978000    226.40876   -272.56217    229018.04   -23393.421    1499.5867   -24893.008   -624.80899    2049.2564    77.913341     14.91756     29.64339 
 3978200    231.51262   -284.37805    229018.04    -23324.83    1533.3914   -24858.221   -682.90435    2046.5602    77.913678    14.918264    29.636664 
 3978400    223.10134    -448.9174    229018.04   -23376.036    1477.6805   -24853.717   -1330.2038    2048.4585    77.913355    14.918316    29.648204 
 3978600    219.46871   -253.89208    229018.04   -23423.609    1453.6203    -24877.23   -518.98254    2049.0277    77.912841    14.917679    29.645928 
 3978800    224.88066   -267.57828    229018.04   -23374.441    1489.4656   -24863.907   -596.29447    2045.6798    77.911624    14.919167    29.649906 
 3979000    229.69134   -391.93872    229018.04    -23245.05    1521.3284   -24766.379   -1044.9314    2047.3876    77.911237    14.918588    29.650187 
 3979200    225.29157   -187.43659    229018.04   -23331.503    1492.1872   -24823.691   -279.28412    2047.3503    77.910754    14.918486    29.656803 
 3979400    226.62675   -285.77567    229018.04   -23392.544    1501.0305   -24893.575   -656.93219    2046.7697    77.910606    14.919272    29.657559 
 3979600    224.13262   -454.67634    229018.04   -23375.671     1484.511   -24860.182   -1367.4687    2047.6304    77.910759    14.919618    29.645974 
 3979800    227.60004   -264.58898    229018.04   -23324.402     1507.477   -24831.879   -555.14014    2046.6617    77.911748    14.920862    29.643713 
 3980000    222.24358   -303.34814    229018.04   -23422.731    1471.9992   -24894.731   -742.52047    2048.7683    77.911812    14.921041    29.646972 
 3980200    224.08968   -403.13601    229018.04   -23412.494    1484.2266   -24896.721   -1118.9865    2046.8362    77.912361    14.922905    29.646921 
 3980400     225.4368   -243.25749    229018.04   -23382.315    1493.1491   -24875.464   -489.28356    2046.1445    77.914168    14.922353     29.65094 
 3980600    221.74939   -298.29274    229018.04   -23406.539     1468.726   -24875.265   -703.08148    2049.3199    77.914404    14.923063    29.649719 
 3980800    223.30937   -412.00756    229018.04   -23415.538    1479.0583   -24894.597   -1117.3202    2046.5867    77.912909    14.924927     29.64773 
 3981000    225.60489   -333.04861    229018.04    -23339.58    1494.2624   -24833.842   -873.58785    2047.1766    77.912939     14.92337    29.652702 
 3981200    227.60681   -322.00385    229018.04   -23390.645    1507.5218   -24898.167   -816.07992    2048.9549    77.913001    14.922796    29.652109 
 3981400    222.51003    -393.6453    229018.04   -23374.045     1473.764   -24847.809   -1065.0498    2048.4583    77.913873    14.923173    29.654137 
 3981600    231.45174   -234.03882    229018.04   -23342.267    1532.9882   -24875.255   -461.71066    2044.8134    77.915053    14.923116    29.648401 
 3981800    223.34241   -263.45022    229018.04   -23404.834    1479.2771   -24884.111    -562.5489    2048.0642    77.914472    14.923441    29.641075 
 3982000    216.83385   -424.90303    229018.04   -23376.839    1436.1686   -24813.008   -1214.3869    2049.8179    77.915029    14.922496    29.634523 
 3982200    229.61079   -297.25145    229018.04   -23342.832    1520.7949   -24863.627   -738.08995     2044.704    77.915332    14.921664    29.642657 
 3982400    225.80747   -290.67051    229018.04   -23356.257    1495.6042   -24851.861   -639.46087    2049.1621    77.916357    14.920092    29.641948 
 3982600    228.44062   -357.03113    229018.04    -23352.61    1513.0445   -24865.654   -952.39885    2048.5183    77.916259    14.919436    29.636718 
 3982800    228.78565    -290.8199    229018.04   -23339.809    1515.3297   -24855.139   -674.36159    2045.4242    77.916934     14.91884     29.63928 
 3983000     221.5326    -356.4611    229018.04   -23418.757    1467.2902   -24886.047   -923.52172    2046.9982    77.917161    14.918561     29.64159 
 3983200    222.75906   -438.58489    229018.04    -23375.82    1475.4134   -24851.234   -1238.0881    2049.3872    77.918276    14.917533    29.638306 
 3983400    228.86295   -273.96504    229018.04    -23382.42    1515.8417   -24898.261   -631.38888    2045.3757    77.918177    14.917445    29.639727 
 3983600    228.18458   -274.56277    229018.04   -23317.335    1511.3486   -24828.684     -596.261    2046.3568    77.917858    14.915915    29.631455 
 3983800    221.36517   -312.83302    229018.04   -23431.102    1466.1812   -24897.283   -766.23298    2050.2625    77.917849    14.915758    29.618833 
 3984000    220.86557   -302.29456    229018.04   -23365.081    1462.8721   -24827.953   -742.41657     2045.658    77.917788    14.914078     29.63087 
 3984200    222.04101   -257.37568    229018.04   -23415.764    1470.6575   -24886.422   -522.33256    2044.5746    77.916274    14.913573     29.62581 
 3984400    224.91781   -447.52229    229018.04   -23419.102    1489.7116   -24908.814   -1263.6116    2049.7805    77.916176    14.914915    29.630173 
 3984600    220.18688   -332.19856    229018.04   -23369.892     1458.377   -24828.269   -843.04376      2045.71    77.917375    14.914672    29.636043 
 3984800     223.3231   -229.71459    229018.04   -23395.164    1479.1492   -24874.313   -439.85902    2044.2754    77.917925    14.915041    29.638023 
 3985000    229.22325   -366.51312    229018.04   -23356.635    1518.2281   -24874.863   -977.40459    2050.3021    77.918661    14.913848    29.634603 
 3985200    225.93859   -330.17762    229018.04    -23346.59    1496.4726   -24843.062   -801.11863    2046.7768    77.918993    14.915499    29.641514 
 3985400    224.60036   -178.49834    229018.04   -23365.794     1487.609   -24853.403   -253.70244    2045.1332    77.920059    14.916271    29.643466 
 3985600    225.04015   -310.18552    229018.04   -23326.987    1490.5219   -24817.509   -808.71799    2048.4309    77.920304    14.917535    29.647714 
 3985800    222.13971   -357.87881    229018.04   -23407.252    1471.3112   -24878.563   -945.87407    2048.7297    77.920623    14.917275    29.648647 
 3986000    230.31021   -194.41598    229018.04    -23346.82    1525.4274   -24872.247   -296.18652    2043.9237    77.919545     14.91759     29.64111 
 3986200    225.30276   -309.00581    229018.04   -23360.435    1492.2613   -24852.696   -751.64843    2047.3837    77.919985     14.91778    29.644004 
 3986400     222.1723   -312.81127    229018.04    -23433.03    1471.5271   -24904.557   -744.94587     2049.521    77.920699    14.918005    29.641816 
 3986600    226.68024    -233.3428    229018.04   -23419.915    1501.3848     -24921.3   -478.10136    2043.9716    77.919903    14.918393    29.644866 
 3986800     230.8973   -363.38323    229018.04   -23326.604    1529.3159    -24855.92   -965.32578    2046.9155    77.919826    14.918565    29.641256 
 3987000    227.34156   -364.53797    229018.04   -23329.251     1505.765   -24835.016    -954.7604    2048.6311     77.91946    14.919321    29.638534 
 3987200    221.83754   -160.34608    229018.04   -23353.132    1469.3099   -24822.442   -150.08436    2045.2179    77.918495    14.919873    29.648142 
 3987400     228.5397   -374.23153    229018.04   -23360.422    1513.7007   -24874.123   -1028.5566    2046.8604    77.916525    14.921174    29.647249 
 3987600    218.55284   -336.63929    229018.04   -23421.749    1447.5542   -24869.303   -856.35636    2046.7054    77.916242     14.92111    29.643698 
 3987800    222.75326   -245.21464    229018.04   -23391.946     1475.375   -24867.321    -529.7563    2044.8987    77.914508    14.922187    29.632376 
 3988000    225.02429   -385.82798    229018.04    -23360.48    1490.4168   -24850.897   -1019.4243    2048.1007    77.913989    14.923103     29.63397 
 3988200    226.32647   -354.76041    229018.04   -23348.734    1499.0417   -24847.775   -938.92076    2046.6728    77.913471    14.926007    29.647705 
 3988400    228.15414   -209.90374    229018.04   -23324.278     1511.147   -24835.425    -332.5893    2045.2102    77.912473    14.926485    29.638294 
 3988600     229.1603   -381.02453    229018.04   -23347.469    1517.8111   -24865.281   -1029.4404    2046.3804    77.911611    14.927261    29.641885 
 3988800    218.69149   -446.90578    229018.04   -23433.195    1448.4725   -24881.667   -1290.1222    2047.0263     77.91156    14.927443    29.640629 
 3989000    219.33982   -299.06319    229018.04   -23401.273    1452.7666    -24854.04   -733.91182     2045.658    77.911346    14.927824    29.632237 
 3989200    226.19118   -381.45776    229018.04   -23326.667    1498.1456   -24824.813   -993.12155    2046.5009    77.911902    14.929616    29.631368 
 3989400    225.73192   -375.94986    229018.04   -23341.062    1495.1037   -24836.166   -1025.8465    2047.4312     77.91245    14.930322    29.631986 
 3989600    220.51745   -291.79053    229018.04   -23385.153    1460.5665   -24845.719    -668.8693    2046.2189    77.912903    14.933388    29.633039 
 3989800    229.59728   -325.17512    229018.04   -23345.693    1520.7054   -24866.399   -817.46296    2046.1676    77.912563    14.932791    29.642157 
 3990000    225.92964   -373.85463    229018.04   -23324.193    1496.4133   -24820.607   -980.40181    2047.2781    77.911942    14.933377    29.640362 
 3990200     220.5071   -275.59172    229018.04   -23365.322    1460.4979    -24825.82   -603.29773    2046.5569     77.91032    14.933715    29.646453 
 3990400    222.38678   -373.70495    229018.04   -23342.736    1472.9477   -24815.683   -977.55033    2046.8147    77.910366    14.935596    29.649597 
 3990600    231.26348   -311.63676    229018.04   -23364.949    1531.7413    -24896.69   -728.09874    2046.9852    77.911467    14.935107    29.647457 
 3990800    224.66902   -260.15308    229018.04   -23283.228    1488.0638   -24771.291   -558.07383    2046.2562    77.911963    14.932139    29.649983 
 3991000    224.79526   -350.48357    229018.04    -23305.85       1488.9    -24794.75   -896.58796    2047.1283    77.911502    14.933184    29.651666 
 3991200     223.5737   -292.54491    229018.04   -23360.134    1480.8091   -24840.943   -642.86813    2044.5029    77.911185    14.932409    29.650622 
 3991400    224.61739   -289.85075    229018.04   -23382.952    1487.7218   -24870.674   -701.92098    2047.6176    77.911009    14.932485    29.643777 
 3991600    222.81649   -305.96797    229018.04   -23360.662    1475.7938   -24836.456   -769.42221    2046.6696    77.910613    14.928727    29.644011 
 3991800    226.14177   -276.49014    229018.04   -23309.814    1497.8183   -24807.632   -596.47027    2044.8277    77.911536    14.928149    29.649052 
 3992000    225.55581   -261.19741    229018.04   -23348.457    1493.9373   -24842.394   -534.35191    2045.6997    77.912053    14.929157    29.639995 
 3992200    226.04772   -363.07493    229018.04   -23382.697    1497.1954   -24879.892     -980.003    2047.0504    77.910651    14.929036    29.648668 
 3992400    218.82194   -336.48715    229018.04   -23383.641    1449.3365   -24832.977   -818.68744    2044.6882    77.910738     14.92876    29.633594 
 3992600    227.97971   -248.48846    229018.04   -23323.697    1509.9917   -24833.688   -516.83395    2045.6514    77.910473    14.930002    29.643798 
 3992800    228.30455   -414.79219    229018.04   -23294.164    1512.1432   -24806.307   -1150.0182    2048.5471     77.90982    14.931037    29.643196 
 3993000    229.96251   -323.27851    229018.04    -23286.56    1523.1245   -24809.684   -807.74619    2045.3532    77.907835     14.93009    29.651036 
 3993200    227.41105   -311.24695    229018.04   -23289.626    1506.2252   -24795.851   -793.88115    2043.2109    77.907536    14.929685    29.648849 
 3993400    224.10619   -307.31876    229018.04    -23330.04    1484.3359   -24814.376   -749.80169    2047.9366     77.90684    14.928395    29.651489 
 3993600    223.18606   -340.32075    229018.04   -23373.822    1478.2416   -24852.063   -912.26668    2044.7934    77.906035     14.92854    29.648361 
 3993800    218.74495   -311.04992    229018.04   -23423.569    1448.8265   -24872.395   -780.59978    2043.3109    77.904779    14.928537    29.657876 
 3994000    220.44157   -372.39509    229018.04   -23427.381    1460.0638   -24887.445   -1004.0379    2048.0295    77.903575    14.927415    29.655124 
 3994200    226.32328   -403.92007    229018.04   -23351.514    1499.0205   -24850.535   -1094.7707    2045.0421    77.902582    14.928441    29.653426 
 3994400    220.97462   -169.81946    229018.04    -23370.91    1463.5944   -24834.504    -226.3216    2042.2868    77.902253     14.92705    29.658551 
 3994600    223.32535   -401.68751    229018.04   -23347.882    1479.1642   -24827.046   -1126.2105    2047.5797    77.902374    14.928887    29.659639 
 3994800    224.42972   -475.62751    229018.04   -23352.161    1486.4788    -24838.64   -1406.9008    2045.9431    77.903385    14.931119    29.655861 
 3995000    223.68977   -186.26732    229018.04   -23392.439    1481.5779   -24874.017   -278.09053    2042.1141    77.903307    14.930039    29.656048 
 3995200    221.72835   -394.10479    229018.04    -23429.73    1468.5866   -24898.316   -1120.9722    2046.9855     77.90154     14.93052    29.658339 
 3995400    220.24728   -386.87323    229018.04   -23384.114     1458.777   -24842.891   -1085.9281    2047.2103    77.900996    14.931601    29.664651 
 3995600    223.67797   -189.01089    229018.04   -23362.886    1481.4997   -24844.386   -249.84969    2042.0543    77.900282    14.932084    29.669106 
 3995800    221.12216   -338.96903    229018.04   -23426.588    1464.5716   -24891.159   -848.25516    2047.4959    77.899125    14.932268    29.665179 
 3996000    224.80641   -387.29691    229018.04   -23390.669    1488.9738   -24879.643   -1077.9112    2048.5274    77.898622    14.934811    29.658726 
 3996200    227.49106   -232.96483    229018.04   -23372.103    1506.7552   -24878.858   -462.52541    2041.7429    77.897684    14.935104    29.643922 
 3996400    224.00516   -348.97739    229018.04   -23399.224    1483.6668   -24882.891   -904.03791    2048.0023     77.89603    14.935775    29.644919 
 3996600    219.26046   -434.42988    229018.04   -23425.688     1452.241   -24877.929   -1232.3446    2049.8878    77.895385    14.936876    29.655023 
 3996800    220.96367   -184.88947    229018.04   -23371.232    1463.5219   -24834.753   -255.63134    2044.6987     77.89484    14.937882    29.644581 
 3997000    226.51366   -327.40551    229018.04   -23330.915    1500.2815   -24831.197   -789.30308    2047.4728    77.895265    14.936945    29.656892 
 3997200    216.92071   -356.89906    229018.04   -23409.488    1436.7439   -24846.232    -918.8973    2048.6876    77.894693     14.93823    29.667256 
 3997400    224.12687   -185.10279    229018.04   -23391.942    1484.4729   -24876.415   -306.39861    2043.4594    77.894858    14.939547    29.649705 
 3997600    228.38702     -346.421    229018.04   -23391.729    1512.6895   -24904.418    -907.2521    2047.9991    77.893121     14.93824    29.651295 
 3997800    226.56219   -424.01768    229018.04   -23371.439    1500.6029   -24872.042   -1145.3665      2048.25    77.891807    14.939345    29.657951 
 3998000    224.63297   -181.97805    229018.04   -23376.122     1487.825   -24863.947   -251.93175    2045.1184    77.889508    14.939081    29.655938 
 3998200    229.32199   -350.70787    229018.04   -23325.579    1518.8821   -24844.461   -891.81186    2047.9152    77.888809    14.938405    29.662356 
 3998400     224.8786   -329.51569    229018.04   -23392.533    1489.4519   -24881.984   -821.61081    2048.7141    77.887706    14.938156    29.668015 
 3998600     221.0298   -229.05568    229018.04   -23390.125    1463.9599   -24854.085   -427.48851     2044.615    77.887051    14.935343    29.662615 
 3998800    220.82701   -310.11285    229018.04    -23384.44    1462.6168   -24847.057   -713.45687    2045.1002    77.887287     14.93411    29.665264 
 3999000    226.05594   -358.93801    229018.04   -23405.575    1497.2498   -24902.825   -954.34239    2048.4642    77.887116    14.934515    29.669611 
 3999200    224.50531   -251.42615    229018.04   -23380.636    1486.9794   -24867.616   -559.31241     2044.731    77.885097    14.934359    29.665568 
 3999400    224.52674   -246.18194    229018.04   -23375.437    1487.1214   -24862.558   -554.58424    2045.5248    77.885353    14.933102    29.662355 
 3999600    225.98334   -335.47558    229018.04   -23395.612     1496.769   -24892.381   -876.43078    2049.4538    77.886057    14.933538     29.67596 
 3999800    221.10917   -167.97869    229018.04   -23384.834    1464.4856   -24849.319   -218.07388    2044.5411    77.885216    14.933211    29.665572 
 4000000    226.10387   -203.51276    229018.04   -23371.961    1497.5673   -24869.528   -338.32015    2045.1766    77.884628    14.934138    29.675444 
Loop time of 12748.6 on 60 procs for 4000000 steps with 8943 atoms

Performance: 271.088 ns/day, 0.089 hours/ns, 313.759 timesteps/s
97.0% CPU use with 60 MPI tasks x no OpenMP threads

MPI task timing breakdown:
Section |  min time  |  avg time  |  max time  |%varavg| %total
---------------------------------------------------------------
Pair    | 0.28314    | 2848.4     | 10638      |7070.5 | 22.34
Neigh   | 2.0827     | 181.5      | 530.02     |1426.5 |  1.42
Comm    | 86.835     | 4030.4     | 10469      |6449.6 | 31.61
Output  | 123.59     | 123.71     | 125.22     |   1.8 |  0.97
Modify  | 174.01     | 5479.2     | 12436      |7135.3 | 42.98
Other   |            | 85.4       |            |       |  0.67

Nlocal:    149.05 ave 373 max 0 min
Histogram: 24 0 2 14 0 0 0 0 2 18
Nghost:    818.05 ave 1256 max 360 min
Histogram: 8 4 0 0 20 8 4 3 5 8
Neighs:    0 ave 0 max 0 min
Histogram: 60 0 0 0 0 0 0 0 0 0
FullNghs:  14944.6 ave 44932 max 0 min
Histogram: 27 13 0 0 0 0 0 2 10 8

Total # of neighbors = 896678
Ave neighs/atom = 100.266
Neighbor list builds = 406973
Dangerous builds = 0
write_data 		${DIR}/data.${NAME}_run
write_data 		run_5/data.${NAME}_run
write_data 		run_5/data.ibeam_cooling_5_run
Total wall time: 3:33:33
