
### Dimensions ###


### IMPORT ATOMS ###
read_data ../Box_Setup/data.Ibeam_240K
  orthogonal box = (0 0 0) to (157.504 36.4877 39.8503)
  10 by 2 by 3 MPI processor grid
  reading atoms ...
  8943 atoms
  reading velocities ...
  8943 velocities
group water type 2
2223 atoms in group water
group graphite type 1
6720 atoms in group graphite


# Define potential
#
pair_style          sw
pair_coeff * * MLC_e.sw C mW

# Add velocity/set timestep
#

fix		1 graphite setforce 0.0 0.0 0.0
velocity 	graphite set 0.0 0.0 0.0
velocity            water create ${START_TEMP} ${SEED} rot yes dist gaussian
velocity            water create 235 ${SEED} rot yes dist gaussian
velocity            water create 235 8371 rot yes dist gaussian
timestep            5.0

# Define output
#
compute 1 water msd
compute 2 water temp


thermo	            100
thermo_style custom step c_2 press vol etotal ke pe c_1[4] density

# Neighbor lists
#
neigh_modify        delay 0 every 1 check yes


# Set fixes
#
fix                 2 water momentum 10 linear 1 1 1 rescale
fix                 3 all nve
fix                 4 water temp/csvr ${START_TEMP} ${START_TEMP} 500.0 928347
fix                 4 water temp/csvr 235 ${START_TEMP} 500.0 928347
fix                 4 water temp/csvr 235 235 500.0 928347

# Run 0.05 ns equilibration
#
dump                1 all custom 100 ${DIR}/eq.${NAME}.dump id type x y z vx vy vz
dump                1 all custom 100 run_5/eq.${NAME}.dump id type x y z vx vy vz
dump                1 all custom 100 run_5/eq.ibeam_cooling_5.dump id type x y z vx vy vz
run                 10000
Neighbor list info ...
  update every 1 steps, delay 0 steps, check yes
  max neighbors/atom: 2000, page size: 100000
  master list distance cutoff = 6.67472
  ghost atom cutoff = 6.67472
  binsize = 3.33736, bins = 48 11 12
  1 neighbor lists, perpetual/occasional/extra = 1 0 0
  (1) pair sw, perpetual
      attributes: full, newton on
      pair build: full/bin/atomonly
      stencil: full/bin/3d
      bin: standard
Per MPI rank memory allocation (min/avg/max) = 3.374 | 4.219 | 4.781 Mbytes
Step c_2 Press Volume TotEng KinEng PotEng c_1[4] Density 
       0          235    -169.9624    229018.04   -21244.698    1556.4896   -22801.188            0   0.87555383 
     100    241.85612   -170.51249    229018.04   -21232.634    1601.9002   -22834.534   0.81670455   0.87555383 
     200    235.33752   -406.43893    229018.04   -21289.165    1558.7251    -22847.89    1.2955579   0.87555383 
     300    235.83371   -424.79423    229018.04   -21279.235    1562.0116   -22841.247    1.6011468   0.87555383 
     400    232.10423   -267.68142    229018.04   -21300.543    1537.3098   -22837.853     1.930646   0.87555383 
     500    230.11648   -429.99412    229018.04   -21286.758    1524.1443   -22810.902    2.3698324   0.87555383 
     600    225.68912   -326.74489    229018.04   -21383.683    1494.8203   -22878.503    2.7840505   0.87555383 
     700    229.69969    -243.3169    229018.04   -21356.954    1521.3837   -22878.338    3.1049527   0.87555383 
     800    228.35972   -409.37402    229018.04   -21410.069    1512.5086   -22922.578    3.4272049   0.87555383 
     900    237.52356   -289.38161    229018.04   -21378.408     1573.204   -22951.612    3.6876741   0.87555383 
    1000    234.40487   -476.28598    229018.04   -21312.576    1552.5478   -22865.124    3.8069301   0.87555383 
    1100     236.7057   -339.47667    229018.04   -21323.209     1567.787   -22890.996    4.0542618   0.87555383 
    1200    225.15808   -404.75282    229018.04   -21369.023     1491.303   -22860.326    4.2925646   0.87555383 
    1300    227.77267   -158.29045    229018.04   -21331.484    1508.6204   -22840.104    4.6379979   0.87555383 
    1400    238.65126   -213.37118    229018.04   -21275.639    1580.6732   -22856.312    4.9515946   0.87555383 
    1500    235.02737   -275.78832    229018.04   -21285.125    1556.6709   -22841.796     5.439022   0.87555383 
    1600    238.79802   -341.25208    229018.04    -21278.67    1581.6452   -22860.315    5.6753325   0.87555383 
    1700    232.11082   -360.00994    229018.04   -21301.909    1537.3535   -22839.263    5.9625784   0.87555383 
    1800    231.51813   -402.84358    229018.04   -21310.595    1533.4279   -22844.023       6.2975   0.87555383 
    1900    242.52453   -326.32513    229018.04   -21228.091    1606.3273   -22834.418    6.4956328   0.87555383 
    2000    243.35776   -244.06072    229018.04   -21203.467     1611.846   -22815.313    6.7455757   0.87555383 
    2100    236.70024   -178.55133    229018.04   -21219.686    1567.7509   -22787.437    7.1637786   0.87555383 
    2200    234.88233   -139.42343    229018.04    -21201.48    1555.7102    -22757.19    7.4786833   0.87555383 
    2300    233.16442   -195.99455    229018.04   -21244.923    1544.3319   -22789.255     7.764829   0.87555383 
    2400    242.02672    -259.6524    229018.04    -21244.41      1603.03    -22847.44    8.2884788   0.87555383 
    2500    244.47937   -187.29636    229018.04   -21225.155    1619.2749    -22844.43    8.7396375   0.87555383 
    2600    233.98805   -279.82644    229018.04   -21282.346     1549.787   -22832.134    8.9882954   0.87555383 
    2700    236.71197   -149.11248    229018.04   -21264.566    1567.8286   -22832.394    9.3277232   0.87555383 
    2800    232.01292   -230.65513    229018.04   -21267.946    1536.7051   -22804.651    9.8187958   0.87555383 
    2900    234.25881   -274.32722    229018.04   -21328.508    1551.5804   -22880.089    10.302055   0.87555383 
    3000    230.06088   -266.28681    229018.04   -21343.052     1523.776   -22866.828    10.557457   0.87555383 
    3100    230.58877   -241.60249    229018.04   -21338.185    1527.2724   -22865.457    10.859681   0.87555383 
    3200    237.57868    -256.7469    229018.04   -21350.113    1573.5691   -22923.682    11.089479   0.87555383 
    3300     236.3731   -359.56484    229018.04   -21318.137    1565.5841   -22883.721    11.298964   0.87555383 
    3400    235.23641   -335.65542    229018.04   -21314.907    1558.0554   -22872.963    11.620719   0.87555383 
    3500    232.76691   -323.81996    229018.04   -21322.239     1541.699   -22863.938    11.872198   0.87555383 
    3600    236.07422   -198.63641    229018.04   -21309.597    1563.6046   -22873.202    11.938157   0.87555383 
    3700    236.01533    -294.2216    229018.04   -21338.392    1563.2145   -22901.606     12.37929   0.87555383 
    3800    234.69567   -282.22373    229018.04   -21351.006    1554.4739    -22905.48    12.717423   0.87555383 
    3900    230.35904   -348.14695    229018.04   -21350.644    1525.7508   -22876.395     12.87727   0.87555383 
    4000    224.70504   -261.74649    229018.04   -21376.556    1488.3024   -22864.859    13.144557   0.87555383 
    4100    233.71874   -232.50085    229018.04   -21337.237    1548.0033   -22885.241     13.39693   0.87555383 
    4200    238.25309   -216.74988    229018.04   -21305.384     1578.036    -22883.42    13.736593   0.87555383 
    4300    241.09361   -348.36519    229018.04   -21223.646    1596.8497   -22820.496    14.006066   0.87555383 
    4400     236.8282   -431.72206    229018.04   -21237.245    1568.5984   -22805.843    14.061173   0.87555383 
    4500    235.18919   -388.75831    229018.04   -21283.215    1557.7427   -22840.957    14.150667   0.87555383 
    4600    233.56183   -313.49647    229018.04   -21306.192    1546.9641   -22853.156    14.522666   0.87555383 
    4700    228.26971   -220.60614    229018.04   -21338.706    1511.9124   -22850.618    14.935752   0.87555383 
    4800    236.15269    -179.2468    229018.04   -21297.303    1564.1243   -22861.427    15.360547   0.87555383 
    4900     232.3938   -412.33557    229018.04   -21302.981    1539.2278   -22842.209    15.511398   0.87555383 
    5000    232.43846    -445.3852    229018.04   -21330.521    1539.5236   -22870.045    15.839964   0.87555383 
    5100    235.03512    -280.6958    229018.04   -21339.297    1556.7222   -22896.019     16.15596   0.87555383 
    5200    237.10237    -388.2381    229018.04   -21313.577    1570.4143   -22883.991     16.68613   0.87555383 
    5300    232.05505   -223.00272    229018.04   -21369.398    1536.9841   -22906.383    16.759005   0.87555383 
    5400     228.1555   -231.96114    229018.04   -21331.506     1511.156   -22842.662    16.998412   0.87555383 
    5500    231.94899   -212.30901    229018.04    -21359.53    1536.2817   -22895.812     17.19324   0.87555383 
    5600    228.33677   -267.86359    229018.04   -21370.425    1512.3566   -22882.781    17.904282   0.87555383 
    5700    234.53152   -242.55156    229018.04   -21337.359    1553.3867   -22890.746    17.979303   0.87555383 
    5800    234.82677   -145.88272    229018.04   -21262.174    1555.3422   -22817.516    18.171407   0.87555383 
    5900    232.94466   -368.83536    229018.04   -21287.698    1542.8763   -22830.575    18.342219   0.87555383 
    6000    227.98766   -228.20273    229018.04    -21366.35    1510.0443   -22876.394    18.762738   0.87555383 
    6100    229.86266   -287.66751    229018.04   -21330.547    1522.4631    -22853.01    19.107811   0.87555383 
    6200    233.70454   -168.92183    229018.04   -21290.667    1547.9093   -22838.577    19.702173   0.87555383 
    6300    239.23981   -298.53059    229018.04    -21249.78    1584.5714   -22834.351    19.770155   0.87555383 
    6400    237.79794   -381.22917    229018.04   -21240.031    1575.0213   -22815.052    19.907219   0.87555383 
    6500    238.71182   -205.20579    229018.04   -21277.861    1581.0743   -22858.935     20.33741   0.87555383 
    6600    233.97238    -362.9878    229018.04   -21347.116    1549.6833   -22896.799    20.760225   0.87555383 
    6700     231.6985   -297.61659    229018.04   -21396.082    1534.6226   -22930.705    20.948704   0.87555383 
    6800    231.79135    -135.9678    229018.04   -21360.936    1535.2375   -22896.174    21.087387   0.87555383 
    6900    227.54975   -182.66832    229018.04   -21403.599    1507.1439   -22910.743    21.112753   0.87555383 
    7000    225.50635   -377.01611    229018.04   -21422.533    1493.6097   -22916.143    21.200755   0.87555383 
    7100    242.31756   -298.12914    229018.04   -21338.444    1604.9564     -22943.4    21.379784   0.87555383 
    7200    234.26262   -351.59548    229018.04   -21341.392    1551.6056   -22892.998    21.695145   0.87555383 
    7300    228.71152   -333.88184    229018.04   -21403.846    1514.8387   -22918.684    21.898175   0.87555383 
    7400    233.56217    -221.8488    229018.04    -21391.22    1546.9663   -22938.187    22.001807   0.87555383 
    7500    224.44718   -147.52534    229018.04   -21407.129    1486.5944   -22893.723    22.663248   0.87555383 
    7600    230.53487   -348.99487    229018.04   -21407.718    1526.9154   -22934.634    23.112497   0.87555383 
    7700    228.84603   -228.65858    229018.04   -21352.886    1515.7296   -22868.616    23.542646   0.87555383 
    7800    230.74462   -294.74607    229018.04    -21300.87    1528.3047   -22829.175    23.735752   0.87555383 
    7900    237.98643   -145.25106    229018.04   -21290.938    1576.2698   -22867.207    24.006066   0.87555383 
    8000    243.92544   -312.68874    229018.04   -21298.296     1615.606   -22913.902    23.922132   0.87555383 
    8100    239.19822   -334.43704    229018.04   -21339.574    1584.2959    -22923.87    24.103651   0.87555383 
    8200    229.67601   -146.09325    229018.04   -21375.033    1521.2269    -22896.26     24.37833   0.87555383 
    8300    227.50277   -359.03478    229018.04   -21392.486    1506.8327   -22899.319     24.45741   0.87555383 
    8400    224.56584   -242.15237    229018.04   -21384.641    1487.3804   -22872.021    24.575344   0.87555383 
    8500     230.3231   -413.82562    229018.04   -21388.333    1525.5128   -22913.846    25.111265   0.87555383 
    8600    234.58288   -316.10339    229018.04   -21319.132    1553.7268   -22872.859    25.189074   0.87555383 
    8700    231.33926   -207.86603    229018.04   -21381.488    1532.2432   -22913.731     25.37741   0.87555383 
    8800    237.14409   -235.83559    229018.04   -21322.255    1570.6907   -22892.945    26.032228   0.87555383 
    8900     234.4736   -316.43844    229018.04   -21354.681     1553.003   -22907.684    26.273326   0.87555383 
    9000    234.92277   -434.80252    229018.04    -21316.27    1555.9781   -22872.248    26.658555   0.87555383 
    9100    234.07132   -264.51204    229018.04   -21297.736    1550.3386   -22848.074    26.944756   0.87555383 
    9200    231.53958   -208.43928    229018.04   -21333.947      1533.57   -22867.517    27.258571   0.87555383 
    9300    230.27025   -222.38945    229018.04   -21364.908    1525.1628   -22890.071    27.182375   0.87555383 
    9400    233.41153   -305.38902    229018.04   -21403.207    1545.9686   -22949.175    27.575962   0.87555383 
    9500    230.68052    -267.6923    229018.04   -21359.768    1527.8801   -22887.649    27.890177   0.87555383 
    9600    224.37502   -177.07982    229018.04    -21410.57    1486.1165   -22896.686    28.419404   0.87555383 
    9700    225.66497   -288.27945    229018.04   -21356.598    1494.6603   -22851.258    28.598341   0.87555383 
    9800    228.72887   -177.26603    229018.04   -21358.359    1514.9536   -22873.313    28.713424   0.87555383 
    9900    233.70423      -165.52    229018.04   -21308.046    1547.9072   -22855.953    29.144035   0.87555383 
   10000    242.49494   -300.79941    229018.04   -21230.206    1606.1313   -22836.337     29.21368   0.87555383 
Loop time of 64.1536 on 60 procs for 10000 steps with 8943 atoms

Performance: 67.338 ns/day, 0.356 hours/ns, 155.876 timesteps/s
89.7% CPU use with 60 MPI tasks x no OpenMP threads

MPI task timing breakdown:
Section |  min time  |  avg time  |  max time  |%varavg| %total
---------------------------------------------------------------
Pair    | 0.00074482 | 8.2817     | 27.476     | 363.3 | 12.91
Neigh   | 0.00295    | 0.25471    | 0.74657    |  53.1 |  0.40
Comm    | 0.21316    | 15.055     | 50.724     | 360.9 | 23.47
Output  | 0.3558     | 0.3621     | 0.37035    |   0.4 |  0.56
Modify  | 2.7862     | 38.225     | 61.33      | 330.6 | 59.58
Other   |            | 1.975      |            |       |  3.08

Nlocal:    149.05 ave 375 max 0 min
Histogram: 24 0 3 13 0 0 0 0 5 15
Nghost:    817.617 ave 1290 max 360 min
Histogram: 9 3 0 0 25 3 4 4 4 8
Neighs:    0 ave 0 max 0 min
Histogram: 60 0 0 0 0 0 0 0 0 0
FullNghs:  15003.9 ave 45001 max 0 min
Histogram: 28 12 0 0 0 0 0 2 10 8

Total # of neighbors = 900234
Ave neighs/atom = 100.664
Neighbor list builds = 564
Dangerous builds = 0
write_data 	    ${DIR}/data.${NAME}_eq
write_data 	    run_5/data.${NAME}_eq
write_data 	    run_5/data.ibeam_cooling_5_eq

undump              1
unfix               4



################################################
#######         Run Simulation         #########
################################################

reset_timestep      0
timestep	    10.0
log                 ${DIR}/log.run_${NAME}
log                 run_5/log.run_${NAME}
log                 run_5/log.run_ibeam_cooling_5
