

### IMPORT ATOMS ###
read_data ../Box_Setup/data.Ibeam_240K
  orthogonal box = (0 0 0) to (157.504 42.9242 26.8557)
  8 by 4 by 2 MPI processor grid
  reading atoms ...
  9253 atoms
  reading velocities ...
  9253 velocities
group water type 2
1381 atoms in group water
group graphite type 1
7872 atoms in group graphite


# Define potential
#
pair_style          sw
pair_coeff * * MLC_e.sw C mW

# Add velocity/set timestep
#

fix		1 graphite setforce 0.0 0.0 0.0
velocity 	graphite set 0.0 0.0 0.0
velocity            water create ${START_TEMP} ${SEED} rot yes dist gaussian
velocity            water create 240 ${SEED} rot yes dist gaussian
velocity            water create 240 13082 rot yes dist gaussian
timestep            5.0

# Define output
#
compute 1 water msd
compute 2 water temp


thermo	            100
thermo_style custom step c_2 press vol etotal ke pe c_1[4] density

# Neighbor lists
#
neigh_modify        delay 0 every 1 check yes


# Set fixes
#
fix                 2 water momentum 10 linear 1 1 1 rescale
fix                 3 all nve
fix                 4 water temp/csvr ${START_TEMP} ${START_TEMP} 500.0 928347
fix                 4 water temp/csvr 240 ${START_TEMP} 500.0 928347
fix                 4 water temp/csvr 240 240 500.0 928347

# Run 0.05 ns equilibration
#
dump                1 all custom 100 ${DIR}/eq.${NAME}.dump id type x y z vx vy vz
dump                1 all custom 100 run_5/eq.${NAME}.dump id type x y z vx vy vz
dump                1 all custom 100 run_5/eq.ibeam_cooling_5.dump id type x y z vx vy vz
run                 10000
Neighbor list info ...
  update every 1 steps, delay 0 steps, check yes
  max neighbors/atom: 2000, page size: 100000
  master list distance cutoff = 6.67472
  ghost atom cutoff = 6.67472
  binsize = 3.33736, bins = 48 13 9
  1 neighbor lists, perpetual/occasional/extra = 1 0 0
  (1) pair sw, perpetual
      attributes: full, newton on
      pair build: full/bin/atomonly
      stencil: full/bin/3d
      bin: standard
Per MPI rank memory allocation (min/avg/max) = 3.396 | 4.325 | 4.765 Mbytes
Step c_2 Press Volume TotEng KinEng PotEng c_1[4] Density 
       0          240   -344.39513    181563.75    -13284.54    987.24429   -14271.784            0    1.0922001 
     100    246.69068   -238.44901    181563.75   -13258.612    1014.7665   -14273.379   0.93032979    1.0922001 
     200    240.24952   -355.97645    181563.75   -13295.969    988.27069   -14284.239    1.3832022    1.0922001 
     300    242.38488    -237.0847    181563.75   -13284.839    997.05455   -14281.893    1.7822768    1.0922001 
     400    238.08404   -353.88474    181563.75   -13302.827    979.36294    -14282.19    2.1389498    1.0922001 
     500    245.50354   -357.32199    181563.75    -13308.89    1009.8832   -14318.774    2.6449376    1.0922001 
     600    231.56228   -291.55553    181563.75   -13394.847    952.53558   -14347.382    3.0623832    1.0922001 
     700    234.72575   -405.71804    181563.75   -13383.469    965.54858   -14349.017    3.5478689    1.0922001 
     800    238.34331   -375.34412    181563.75   -13420.088    980.42945   -14400.518    3.6374348    1.0922001 
     900    240.22788   -424.85635    181563.75   -13388.175    988.18166   -14376.357    4.1053503    1.0922001 
    1000    241.27055   -372.24672    181563.75   -13347.517    992.47073   -14339.988     4.638359    1.0922001 
    1100    234.02674   -204.22754    181563.75   -13361.204    962.67317   -14323.877    4.9075714    1.0922001 
    1200    229.44649   -406.61895    181563.75   -13392.158    943.83224    -14335.99    5.1841492    1.0922001 
    1300    238.11647   -458.62452    181563.75   -13360.096    979.49634   -14339.592    5.6003055    1.0922001 
    1400    246.08529   -322.00432    181563.75   -13306.534    1012.2762    -14318.81    6.2781039    1.0922001 
    1500    239.28792   -553.16794    181563.75   -13310.965    984.31514    -14295.28    6.7728206    1.0922001 
    1600    252.26569   -530.66448    181563.75   -13287.955    1037.6994   -14325.654    6.8406758    1.0922001 
    1700    240.29684   -458.11219    181563.75   -13303.531    988.46533   -14291.997    6.8882631    1.0922001 
    1800    242.51025   -324.43308    181563.75    -13315.25    997.57025    -14312.82    6.8219272    1.0922001 
    1900    248.13098   -315.63773    181563.75     -13259.8    1020.6912   -14280.491    6.9801593    1.0922001 
    2000    255.84001   -187.82568    181563.75   -13241.741    1052.4024   -14294.144    7.2438969    1.0922001 
    2100    245.25834   -257.05874    181563.75    -13261.37    1008.8746   -14270.244    7.5467115    1.0922001 
    2200    248.71508   -366.96138    181563.75   -13258.956    1023.0939    -14282.05    7.8650682    1.0922001 
    2300    244.97458   -555.35431    181563.75   -13287.907    1007.7073   -14295.615    8.4114141    1.0922001 
    2400    239.09368   -356.72978    181563.75   -13280.137    983.51611   -14263.653    8.8160821    1.0922001 
    2500    242.71581   -358.42599    181563.75    -13274.04     998.4158   -14272.456    9.1918593    1.0922001 
    2600    237.15085   -304.26829    181563.75    -13299.95    975.52428   -14275.474    9.5810273    1.0922001 
    2700    239.05313    -346.4501    181563.75   -13265.049    983.34931   -14248.398    9.9752873    1.0922001 
    2800    239.20632   -289.60384    181563.75   -13267.914    983.97948   -14251.893    10.236978    1.0922001 
    2900    234.81889   -345.50232    181563.75   -13335.655    965.93168   -14301.587    10.507019    1.0922001 
    3000    239.99589   -430.67562    181563.75   -13350.865    987.22739   -14338.092    10.767581    1.0922001 
    3100    236.70226   -351.20845    181563.75   -13346.759    973.67896   -14320.438    11.305608    1.0922001 
    3200    237.79852   -264.69466    181563.75   -13363.857    978.18848   -14342.046     11.57144    1.0922001 
    3300    242.07752    -324.7895    181563.75   -13321.094    995.79021   -14316.884    11.617971    1.0922001 
    3400    237.65503   -359.34119    181563.75   -13336.739     977.5982   -14314.337     11.83483    1.0922001 
    3500    239.33905   -295.45185    181563.75   -13345.082    984.52545   -14329.607    12.230808    1.0922001 
    3600    236.56954   -246.99964    181563.75   -13331.162    973.13301   -14304.295    12.455406    1.0922001 
    3700    234.15493    -393.3073    181563.75   -13363.964     963.2005   -14327.164      12.5985    1.0922001 
    3800     233.6989   -296.82945    181563.75   -13353.487    961.32458   -14314.812    12.896914    1.0922001 
    3900    236.69519   -422.05067    181563.75   -13363.599    973.64989   -14337.249    13.368255    1.0922001 
    4000    235.56556   -347.32333    181563.75   -13368.106    969.00315   -14337.109    13.609912    1.0922001 
    4100    233.22418   -450.49706    181563.75   -13325.915    959.37184   -14285.287    14.181957    1.0922001 
    4200    246.95983   -492.70116    181563.75   -13289.808    1015.8737   -14305.682    14.144261    1.0922001 
    4300     246.0273   -445.31654    181563.75    -13221.01    1012.0377   -14233.048    14.310608    1.0922001 
    4400    244.02691    -446.8685    181563.75   -13224.935     1003.809   -14228.744    14.545506    1.0922001 
    4500    242.07526   -374.23581    181563.75   -13286.021    995.78092   -14281.802    14.900587    1.0922001 
    4600     247.1028   -337.26637    181563.75   -13308.278    1016.4618   -14324.739    15.161395    1.0922001 
    4700    249.65556   -260.95481    181563.75   -13308.956    1026.9626   -14335.918    15.521117    1.0922001 
    4800    241.90663   -398.29595    181563.75   -13301.055    995.08723   -14296.143    15.884095    1.0922001 
    4900    243.52104   -376.73343    181563.75   -13325.418    1001.7282   -14327.146    16.376367    1.0922001 
    5000    250.65597   -330.90654    181563.75   -13351.622    1031.0778     -14382.7      16.5833    1.0922001 
    5100    241.92784   -383.32529    181563.75   -13360.155    995.17449   -14355.329    16.842618    1.0922001 
    5200    240.05067   -254.39441    181563.75   -13344.621    987.45271   -14332.074     17.16324    1.0922001 
    5300    231.94226   -177.56313    181563.75    -13388.71    954.09862   -14342.808    17.786382    1.0922001 
    5400    238.63178   -292.40514    181563.75   -13352.228    981.61609   -14333.844    18.048401    1.0922001 
    5500    229.78512   -469.84168    181563.75    -13370.82    945.22521   -14316.045     18.25395    1.0922001 
    5600    231.84097   -304.64924    181563.75   -13372.796    953.68197   -14326.478     18.50632    1.0922001 
    5700    235.05654   -356.12971    181563.75   -13325.364    966.90928   -14292.273    19.130506    1.0922001 
    5800    254.08916   -261.96942    181563.75   -13257.162    1045.2003   -14302.363    19.228371    1.0922001 
    5900    239.39391    -363.0391    181563.75   -13295.006    984.75111   -14279.757    19.743586    1.0922001 
    6000     236.9842   -429.70295    181563.75   -13356.861    974.83873   -14331.699     20.25354    1.0922001 
    6100    240.43525   -402.56889    181563.75   -13342.855    989.03471    -14331.89    20.742835    1.0922001 
    6200    237.66135   -318.68335    181563.75   -13315.751    977.62421   -14293.375     21.60097    1.0922001 
    6300    243.73651   -265.95887    181563.75   -13291.801    1002.6145   -14294.416    22.152138    1.0922001 
    6400    233.13074   -281.39655    181563.75   -13282.975    958.98744   -14241.963    22.851214    1.0922001 
    6500    236.38721   -370.69998    181563.75   -13288.283      972.383   -14260.666    23.663984    1.0922001 
    6600    234.37078   -481.42553    181563.75   -13328.084     964.0884   -14292.173    23.839101    1.0922001 
    6700    233.63331   -354.76409    181563.75   -13344.727    961.05481   -14305.782    24.083311    1.0922001 
    6800    238.50336   -368.96671    181563.75   -13335.764    981.08782   -14316.852    24.042778    1.0922001 
    6900     232.5503   -220.73093    181563.75   -13375.759    956.59982   -14332.359    24.666147    1.0922001 
    7000    238.14657   -417.83579    181563.75    -13368.52    979.62017    -14348.14    24.967652    1.0922001 
    7100    242.80654   -452.03532    181563.75   -13296.223    998.78903   -14295.012    25.432426    1.0922001 
    7200    236.03849   -489.86715    181563.75   -13299.378    970.94855   -14270.327    26.149078    1.0922001 
    7300    231.79938   -369.51065    181563.75   -13352.315     953.5109   -14305.826    26.198262    1.0922001 
    7400    235.49347   -462.75348    181563.75   -13369.923    968.70662   -14338.629    26.748238    1.0922001 
    7500    228.46574   -394.72701    181563.75   -13380.202    939.79792       -14320    27.425578    1.0922001 
    7600    232.80675   -191.64366    181563.75   -13399.184    957.65475   -14356.839     27.97186    1.0922001 
    7700    236.99463   -410.95381    181563.75   -13387.594    974.88166   -14362.476    28.567115    1.0922001 
    7800    238.87878   -338.88733    181563.75   -13341.582    982.63214   -14324.214    28.869966    1.0922001 
    7900    238.15513   -328.19115    181563.75   -13348.112     979.6554   -14327.767    28.555907    1.0922001 
    8000     243.6144   -383.43027    181563.75   -13347.117    1002.1122    -14349.23    28.419008    1.0922001 
    8100    233.04209   -440.42298    181563.75   -13366.943    958.62282   -14325.566     28.93435    1.0922001 
    8200    237.06269   -414.12777    181563.75   -13377.175    975.16162   -14352.336    29.421287    1.0922001 
    8300    235.92891   -339.07228    181563.75   -13395.554    970.49778   -14366.052    29.741339    1.0922001 
    8400     229.3324   -322.11038    181563.75   -13392.016    943.36294   -14335.379    29.833547    1.0922001 
    8500     233.9645   -249.77461    181563.75   -13362.427    962.41716   -14324.844     30.27278    1.0922001 
    8600    238.63039   -385.63658    181563.75    -13323.92    981.61037   -14305.531     30.52913    1.0922001 
    8700    240.15816   -513.37852    181563.75   -13380.099    987.89488   -14367.994     31.12316    1.0922001 
    8800    244.02032     -260.454    181563.75   -13332.712     1003.782   -14336.494    31.768788    1.0922001 
    8900    240.47209   -203.72025    181563.75   -13359.368    989.18625   -14348.554    31.839207    1.0922001 
    9000    247.67735   -340.69351    181563.75   -13330.945    1018.8252    -14349.77     31.86215    1.0922001 
    9100    245.35705   -354.75388    181563.75   -13338.601    1009.2806   -14347.882    31.892333    1.0922001 
    9200    232.67142   -322.25951    181563.75   -13375.152    957.09806    -14332.25    31.789374    1.0922001 
    9300     236.6988   -421.01718    181563.75   -13382.716    973.66474   -14356.381    31.663221    1.0922001 
    9400    236.14512   -396.97346    181563.75   -13395.931    971.38718   -14367.318    31.923609    1.0922001 
    9500     232.3613   -452.59148    181563.75   -13378.329    955.82237   -14334.152    31.789144    1.0922001 
    9600    229.29242   -246.03356    181563.75   -13442.735    943.19846   -14385.933    31.733123    1.0922001 
    9700    245.60315    -286.1894    181563.75   -13386.361     1010.293   -14396.654    31.794746    1.0922001 
    9800    227.54376   -236.40134    181563.75   -13407.669    936.00532   -14343.675    32.254668    1.0922001 
    9900    245.64662   -349.39219    181563.75   -13354.187    1010.4717   -14364.659    32.531293    1.0922001 
   10000    246.94828    -390.7496    181563.75    -13306.83    1015.8262   -14322.656    32.970072    1.0922001 
Loop time of 11.5647 on 64 procs for 10000 steps with 9253 atoms

Performance: 373.551 ns/day, 0.064 hours/ns, 864.701 timesteps/s
100.0% CPU use with 64 MPI tasks x no OpenMP threads

MPI task timing breakdown:
Section |  min time  |  avg time  |  max time  |%varavg| %total
---------------------------------------------------------------
Pair    | 0.0010377  | 3.3427     | 9.2819     | 171.7 | 28.90
Neigh   | 0.0079892  | 0.24436    | 0.56122    |  39.3 |  2.11
Comm    | 0.32624    | 2.9676     | 9.1219     | 149.5 | 25.66
Output  | 0.1668     | 0.16686    | 0.16756    |   0.0 |  1.44
Modify  | 0.26442    | 4.7254     | 10.936     | 205.7 | 40.86
Other   |            | 0.1178     |            |       |  1.02

Nlocal:    144.578 ave 289 max 0 min
Histogram: 17 7 0 8 0 0 0 1 19 12
Nghost:    963.594 ave 1346 max 657 min
Histogram: 13 3 0 19 5 0 13 3 0 8
Neighs:    0 ave 0 max 0 min
Histogram: 64 0 0 0 0 0 0 0 0 0
FullNghs:  15619.1 ave 35162 max 0 min
Histogram: 24 8 0 0 0 0 0 10 14 8

Total # of neighbors = 999622
Ave neighs/atom = 108.032
Neighbor list builds = 557
Dangerous builds = 0
write_data 	    ${DIR}/data.${NAME}_eq
write_data 	    run_5/data.${NAME}_eq
write_data 	    run_5/data.ibeam_cooling_5_eq

undump              1
unfix               4



################################################
#######         Run Simulation         #########
################################################

reset_timestep      0
timestep	    10.0
log                 ${DIR}/log.run_${NAME}
log                 run_5/log.run_${NAME}
log                 run_5/log.run_ibeam_cooling_5
