
### Dimensions ###


### IMPORT ATOMS ###
read_data ../Box_Setup/data.Ibeam_240K
  orthogonal box = (0 0 0) to (189.989 26.9999 39.8504)
  20 by 2 by 4 MPI processor grid
  reading atoms ...
  8482 atoms
  reading velocities ...
  8482 velocities
group water type 2
2436 atoms in group water
group graphite type 1
6046 atoms in group graphite


# Define potential
#
pair_style          sw
pair_coeff * * MLC_e.sw C mW

# Add velocity/set timestep
#

fix		1 graphite setforce 0.0 0.0 0.0
velocity 	graphite set 0.0 0.0 0.0
velocity            water create ${START_TEMP} ${SEED} rot yes dist gaussian
velocity            water create 240 ${SEED} rot yes dist gaussian
velocity            water create 240 16821 rot yes dist gaussian
timestep            5.0

# Define output
#
compute 1 water msd
compute 2 water temp


thermo	            100
thermo_style custom step c_2 press vol etotal ke pe c_1[4] density

# Neighbor lists
#
neigh_modify        delay 0 every 1 check yes


# Set fixes
#
fix                 2 water momentum 10 linear 1 1 1 rescale
fix                 3 all nve
fix                 4 water temp/csvr ${START_TEMP} ${START_TEMP} 500.0 928347
fix                 4 water temp/csvr 240 ${START_TEMP} 500.0 928347
fix                 4 water temp/csvr 240 240 500.0 928347

# Run 0.05 ns equilibration
#
dump                1 all custom 100 ${DIR}/eq.${NAME}.dump id type x y z vx vy vz
dump                1 all custom 100 run_15/eq.${NAME}.dump id type x y z vx vy vz
dump                1 all custom 100 run_15/eq.ibeam_cooling_15.dump id type x y z vx vy vz
run                 10000
Neighbor list info ...
  update every 1 steps, delay 0 steps, check yes
  max neighbors/atom: 2000, page size: 100000
  master list distance cutoff = 6.67472
  ghost atom cutoff = 6.67472
  binsize = 3.33736, bins = 57 9 12
  1 neighbor lists, perpetual/occasional/extra = 1 0 0
  (1) pair sw, perpetual
      attributes: full, newton on
      pair build: full/bin/atomonly
      stencil: full/bin/3d
      bin: standard
Per MPI rank memory allocation (min/avg/max) = 0.4608 | 3.725 | 4.735 Mbytes
Step c_2 Press Volume TotEng KinEng PotEng c_1[4] Density 
       0          240   -262.64038    204420.41   -23347.773    1741.9854   -25089.758            0   0.94632332 
     100    243.59183   -283.38014    204420.41    -23354.08    1768.0558   -25122.136   0.82143189   0.94632332 
     200     240.4355   -206.93891    204420.41   -23390.738    1745.1464   -25135.884    1.1149322   0.94632332 
     300    232.05846   -291.64234    204420.41   -23376.296    1684.3435   -25060.639    1.5591085   0.94632332 
     400     235.8296   -356.72124    204420.41   -23378.406    1711.7155   -25090.121    1.8403775   0.94632332 
     500    242.30062   -509.22257    204420.41   -23351.913    1758.6839   -25110.597    2.1743712   0.94632332 
     600    240.95177   -159.64803    204420.41   -23284.479    1748.8936   -25033.373    2.4892636   0.94632332 
     700    241.66983   -216.68967    204420.41   -23291.179    1754.1054   -25045.284     2.821852   0.94632332 
     800    240.28948   -255.02351    204420.41   -23267.153    1744.0865   -25011.239    3.2894915   0.94632332 
     900    231.69941   -479.01152    204420.41   -23269.426    1681.7375   -24951.163    3.6587448   0.94632332 
    1000    240.98263   -489.94128    204420.41   -23283.482    1749.1176     -25032.6    3.9572459   0.94632332 
    1100    240.42588   -452.06855    204420.41   -23237.614    1745.0765    -24982.69    4.2078129   0.94632332 
    1200    239.01092   -446.11903    204420.41   -23237.902    1734.8064   -24972.709    4.5393232   0.94632332 
    1300    245.54364   -138.79534    204420.41   -23192.455    1782.2227   -24974.678    4.8831445   0.94632332 
    1400    240.08608   -173.04573    204420.41   -23220.225    1742.6102   -24962.835     5.293548   0.94632332 
    1500    239.37698   -223.84815    204420.41   -23251.466    1737.4633   -24988.929    5.7618164   0.94632332 
    1600    235.26207   -243.12337    204420.41   -23228.854    1707.5962    -24936.45     6.171451   0.94632332 
    1700    240.57331   -172.98432    204420.41   -23241.489    1746.1466   -24987.636    6.5170904   0.94632332 
    1800    238.29754   -368.37922    204420.41   -23218.247    1729.6285   -24947.875      6.85202   0.94632332 
    1900     240.7722   -396.63412    204420.41    -23176.72    1747.5903    -24924.31    7.2553641   0.94632332 
    2000    248.76286    -471.6986    204420.41   -23152.486    1805.5886   -24958.075    7.5280688   0.94632332 
    2100    243.20525   -486.99496    204420.41    -23265.72      1765.25    -25030.97    8.0158875   0.94632332 
    2200    239.56906   -351.20627    204420.41   -23234.242    1738.8575     -24973.1    8.3294457   0.94632332 
    2300    246.52833   -356.19152    204420.41   -23201.387    1789.3698   -24990.757    8.6720721   0.94632332 
    2400    239.81827   -417.34587    204420.41   -23207.179    1740.6663   -24947.845    9.1711609   0.94632332 
    2500    238.79494   -406.33803    204420.41   -23250.373    1733.2388   -24983.612    9.5591438   0.94632332 
    2600     239.4372   -177.42969    204420.41   -23256.446    1737.9004   -24994.346     9.911962   0.94632332 
    2700    242.54475   -285.26311    204420.41   -23256.133    1760.4559   -25016.589     10.33894   0.94632332 
    2800    244.60817   -426.64976    204420.41   -23214.765    1775.4327   -24990.198    10.772178   0.94632332 
    2900    241.76319   -441.92617    204420.41   -23222.365    1754.7831   -24977.148    11.282381   0.94632332 
    3000    243.46218   -422.16216    204420.41   -23204.347    1767.1149   -24971.462    11.815647   0.94632332 
    3100    244.08384   -545.40183    204420.41    -23213.57     1771.627   -24985.197    12.153222   0.94632332 
    3200    246.41222   -386.11731    204420.41   -23284.823     1788.527    -25073.35    12.395631   0.94632332 
    3300    229.62125   -310.55555    204420.41   -23350.556    1666.6536    -25017.21    12.746105   0.94632332 
    3400    238.16383   -251.38176    204420.41   -23294.876    1728.6579   -25023.534     13.16186   0.94632332 
    3500    237.61256   -381.00605    204420.41    -23276.11    1724.6567   -25000.767    13.572489   0.94632332 
    3600    240.73096    -374.7838    204420.41   -23272.933    1747.2909   -25020.224    13.994134   0.94632332 
    3700    245.35779   -225.40472    204420.41   -23247.748    1780.8737   -25028.621    14.629096   0.94632332 
    3800    241.93458   -312.85587    204420.41   -23228.929    1756.0271   -24984.956    14.925253   0.94632332 
    3900     237.9241   -327.32622    204420.41   -23225.906     1726.918   -24952.824    15.265195   0.94632332 
    4000    248.00297   -451.32517    204420.41   -23275.301    1800.0731   -25075.375    15.497618   0.94632332 
    4100    240.83205   -554.60421    204420.41   -23271.614    1748.0246   -25019.639    15.925286   0.94632332 
    4200    242.41903     -490.283    204420.41   -23253.214    1759.5434   -25012.758    16.429567   0.94632332 
    4300    239.17734   -389.97798    204420.41   -23315.765    1736.0143    -25051.78    16.906684   0.94632332 
    4400    235.86975    -484.4841    204420.41   -23277.764    1712.0069   -24989.771    17.488194   0.94632332 
    4500    240.08371   -389.66494    204420.41   -23301.603     1742.593   -25044.196    17.817376   0.94632332 
    4600    235.50727   -297.95815    204420.41   -23346.962     1709.376   -25056.338    18.214826   0.94632332 
    4700    234.49336   -368.48903    204420.41   -23274.943    1702.0167   -24976.959    18.480666   0.94632332 
    4800    251.88467   -343.98554    204420.41   -23236.596    1828.2476   -25064.844      18.8683   0.94632332 
    4900    244.55673   -201.78659    204420.41   -23209.871    1775.0594   -24984.931    19.318211   0.94632332 
    5000    238.97071    -384.6578    204420.41   -23270.547    1734.5146   -25005.062    19.960187   0.94632332 
    5100    240.55314   -458.33522    204420.41   -23225.607    1746.0002   -24971.607    20.796527   0.94632332 
    5200    241.38845   -206.82595    204420.41   -23262.166    1752.0631   -25014.229    21.325206   0.94632332 
    5300    236.66587   -296.02912    204420.41   -23356.039    1717.7854   -25073.824    21.639827   0.94632332 
    5400    238.47226   -305.66801    204420.41   -23345.229    1730.8966   -25076.126    22.128428   0.94632332 
    5500     237.6186   -90.165592    204420.41   -23345.115    1724.7006   -25069.815    22.416778   0.94632332 
    5600    235.48281   -257.00869    204420.41    -23363.07    1709.1984   -25072.268    22.624336   0.94632332 
    5700    238.77801   -237.12143    204420.41   -23330.959    1733.1158   -25064.075    22.599943   0.94632332 
    5800    234.65289   -201.48783    204420.41   -23314.743    1703.1746   -25017.917    22.917231   0.94632332 
    5900    238.39118   -441.40639    204420.41   -23329.728    1730.3081   -25060.036    23.206288   0.94632332 
    6000    241.22489   -391.88102    204420.41   -23325.875     1750.876   -25076.751    23.487073   0.94632332 
    6100    235.37576   -239.75563    204420.41   -23336.428    1708.4214    -25044.85    23.901322   0.94632332 
    6200    233.48263   -317.04185    204420.41   -23336.702    1694.6806   -25031.382    24.206569   0.94632332 
    6300    235.84157   -473.47137    204420.41   -23257.182    1711.8024   -24968.985    25.027484   0.94632332 
    6400    236.57588   -234.79868    204420.41   -23284.458    1717.1322   -25001.591    25.343841   0.94632332 
    6500    229.51042   -478.72978    204420.41   -23289.351    1665.8492     -24955.2    25.605734   0.94632332 
    6600    235.89771   -369.77607    204420.41   -23286.687    1712.2099   -24998.897    26.088132   0.94632332 
    6700    232.48677   -437.53279    204420.41   -23307.528    1687.4523   -24994.981    26.150897   0.94632332 
    6800    241.83361    -357.8208    204420.41   -23299.667    1755.2942   -25054.961    26.243675   0.94632332 
    6900    243.89768   -300.16715    204420.41   -23244.331    1770.2758   -25014.607    26.720993   0.94632332 
    7000    235.29609   -333.97443    204420.41   -23259.192    1707.8431   -24967.035    27.318531   0.94632332 
    7100    237.33783   -374.48799    204420.41   -23264.478    1722.6626   -24987.141     27.65878   0.94632332 
    7200    232.46019   -385.45504    204420.41   -23321.067    1687.2594   -25008.326    27.788895   0.94632332 
    7300    231.60798   -391.37016    204420.41   -23342.084    1681.0739   -25023.158    28.288704   0.94632332 
    7400    238.37563   -510.25149    204420.41   -23302.619    1730.1953   -25032.815    28.806736   0.94632332 
    7500    235.24413   -362.11467    204420.41   -23273.597     1707.466   -24981.063    29.134976   0.94632332 
    7600    245.47686    -290.1745    204420.41   -23218.823    1781.7379   -25000.561    29.544804   0.94632332 
    7700    237.90492   -224.85199    204420.41   -23225.163    1726.7787   -24951.941    30.124045   0.94632332 
    7800    233.74404   -219.59486    204420.41   -23295.988    1696.5779   -24992.566    30.500801   0.94632332 
    7900    237.97543   -281.22199    204420.41   -23263.074    1727.2905   -24990.364    31.065013   0.94632332 
    8000    245.71307   -346.50074    204420.41   -23193.099    1783.4524   -24976.551    31.520971   0.94632332 
    8100     244.0722   -447.28942    204420.41   -23188.935    1771.5425   -24960.478    32.038797   0.94632332 
    8200    241.50501    -426.9905    204420.41   -23223.642    1752.9091   -24976.551     32.42361   0.94632332 
    8300    241.71473   -467.77348    204420.41    -23191.04    1754.4314   -24945.471    33.004957   0.94632332 
    8400    245.08241   -316.95473    204420.41   -23199.903    1778.8749   -24978.778    33.214734   0.94632332 
    8500    242.84783   -189.45647    204420.41     -23233.2    1762.6557   -24995.856    33.847227   0.94632332 
    8600    242.48815   -314.15344    204420.41   -23249.993    1760.0451   -25010.039    34.510035   0.94632332 
    8700    240.18437   -212.07291    204420.41   -23277.118    1743.3236   -25020.441    35.261935   0.94632332 
    8800    239.40464   -328.83671    204420.41   -23288.966    1737.6641    -25026.63     35.88848   0.94632332 
    8900    234.29778    -409.0018    204420.41   -23326.514    1700.5971   -25027.111    36.436882   0.94632332 
    9000    242.12878   -381.38096    204420.41   -23286.106    1757.4367   -25043.543    36.892968   0.94632332 
    9100    232.78714   -419.66998    204420.41   -23304.373    1689.6325   -24994.005     37.36884   0.94632332 
    9200    241.13106   -475.77086    204420.41   -23241.464    1750.1949   -24991.659    37.798058   0.94632332 
    9300    237.67551   -376.97333    204420.41   -23316.641    1725.1136   -25041.755    38.202194   0.94632332 
    9400    238.72819   -438.44672    204420.41   -23263.522    1732.7543   -24996.276    38.359154   0.94632332 
    9500    243.05998   -324.19574    204420.41   -23300.839    1764.1956   -25065.034    38.881354   0.94632332 
    9600    233.19608   -272.42759    204420.41   -23308.166    1692.6007   -25000.767    39.111221   0.94632332 
    9700    241.93162   -188.21688    204420.41   -23270.581    1756.0057   -25026.587    39.366228   0.94632332 
    9800    236.49694    -365.0567    204420.41   -23214.292    1716.5592   -24930.851    39.757948   0.94632332 
    9900    241.50677   -311.61164    204420.41   -23246.172     1752.922   -24999.094    40.092657   0.94632332 
   10000    234.87859   -406.98307    204420.41   -23260.527    1704.8128   -24965.339    40.302857   0.94632332 
Loop time of 13.6373 on 160 procs for 10000 steps with 8482 atoms

Performance: 316.779 ns/day, 0.076 hours/ns, 733.285 timesteps/s
97.8% CPU use with 160 MPI tasks x no OpenMP threads

MPI task timing breakdown:
Section |  min time  |  avg time  |  max time  |%varavg| %total
---------------------------------------------------------------
Pair    | 0.0004158  | 3.2784     | 10.987     | 218.0 | 24.04
Neigh   | 0.00036788 | 0.093802   | 0.39502    |  35.4 |  0.69
Comm    | 0.010934   | 3.2128     | 11.066     | 209.7 | 23.56
Output  | 0.1681     | 0.16828    | 0.17498    |   0.1 |  1.23
Modify  | 0.78252    | 6.7076     | 13.279     | 219.0 | 49.19
Other   |            | 0.1764     |            |       |  1.29

Nlocal:    53.0125 ave 164 max 0 min
Histogram: 60 8 52 0 0 0 0 5 5 30
Nghost:    544.156 ave 909 max 0 min
Histogram: 20 0 4 0 16 41 21 7 35 16
Neighs:    0 ave 0 max 0 min
Histogram: 160 0 0 0 0 0 0 0 0 0
FullNghs:  5307.56 ave 20724 max 0 min
Histogram: 88 32 0 0 0 0 0 6 17 17

Total # of neighbors = 849210
Ave neighs/atom = 100.119
Neighbor list builds = 577
Dangerous builds = 0
write_data 	    ${DIR}/data.${NAME}_eq
write_data 	    run_15/data.${NAME}_eq
write_data 	    run_15/data.ibeam_cooling_15_eq

undump              1
unfix               4



################################################
#######         Run Simulation         #########
################################################

reset_timestep      0
timestep	    10.0
log                 ${DIR}/log.run_${NAME}
log                 run_15/log.run_${NAME}
log                 run_15/log.run_ibeam_cooling_15
