
# Set production fixes - Nose/Hoover
#
fix                 4 water temp/csvr ${START_TEMP} ${END_TEMP} 500.0 928347
fix                 4 water temp/csvr 240 ${END_TEMP} 500.0 928347
fix                 4 water temp/csvr 240 227 500.0 928347


## divide "droplet" into core and surface
#region		core_reg cylinder z 135 135 44.6 20 INF units box
#region		surface_reg cylinder z 135 135 44.6 20 INF units box side out
#group		core dynamic all region core_reg
#group		surface dynamic all region surface_reg

## compute pressure core
#compute        peratom_core core stress/atom NULL
#compute        p_core core reduce sum c_peratom_core[1] c_peratom_core[2] c_peratom_core[3]
#variable       press_core equal -(c_p_core[1]+c_p_core[2]+c_p_core[3])/(3*1249982.5)


## compute pressure surface
#compute        peratom_surf surface stress/atom NULL
#compute        p_surf surface reduce sum c_peratom_surf[1] c_peratom_surf[2] #c_peratom_surf[3]
#variable       press_surf equal -(c_p_surf[1]+c_p_surf[2]+c_p_surf[3])/(3*42395)

## compute total pressure of drop
compute        peratom water stress/atom NULL
compute        p water reduce sum c_peratom[1] c_peratom[2] c_peratom[3]
variable       press equal -(c_p[1]+c_p[2]+c_p[3])/(3*58301)


# compute order parameter
compute        3 all orientorder/atom nnn NULL cutoff 3.5

# compute center of mass of bridge
compute 	4 water com

# Run simulation
thermo_style        custom step c_2 press vol etotal ke pe v_press c_1[4] c_4[*]
thermo              200
dump		     1 water custom 400 ${DIR}/prod.${NAME}.dump id type x y z vx vy vz c_3[*] c_peratom[*]
dump		     1 water custom 400 run_15/prod.${NAME}.dump id type x y z vx vy vz c_3[*] c_peratom[*]
dump		     1 water custom 400 run_15/prod.ibeam_cooling_15.dump id type x y z vx vy vz c_3[*] c_peratom[*]
run                 ${STEPS}
run                 5200000
Neighbor list info ...
  update every 1 steps, delay 0 steps, check yes
  max neighbors/atom: 2000, page size: 100000
  master list distance cutoff = 6.67472
  ghost atom cutoff = 6.67472
  binsize = 3.33736, bins = 57 9 12
  2 neighbor lists, perpetual/occasional/extra = 1 1 0
  (1) pair sw, perpetual
      attributes: full, newton on
      pair build: full/bin/atomonly
      stencil: full/bin/3d
      bin: standard
  (2) compute orientorder/atom, occasional, copy from (1)
      attributes: full, newton on
      pair build: copy
      stencil: none
      bin: none
Per MPI rank memory allocation (min/avg/max) = 0.8516 | 6.01 | 7.139 Mbytes
Step c_2 Press Volume TotEng KinEng PotEng v_press c_1[4] c_4[1] c_4[2] c_4[3] 
       0    234.87859   -406.98307    204420.41   -23260.527    1704.8128   -24965.339    -930.8198    40.302857    95.094833    14.532273    27.915871 
     200    235.66102   -379.97196    204420.41   -23303.521    1710.4919   -25014.012   -832.47895    41.986501    95.096516    14.529421    27.920527 
     400    239.07368   -327.02064    204420.41   -23288.128    1735.2619    -25023.39   -615.13495    43.518185    95.096485     14.52637    27.929028 
     600    241.75447   -477.82784    204420.41    -23187.73    1754.7198    -24942.45   -1137.9167    43.910817    95.096646    14.523225    27.954574 
     800    247.56608   -418.57727    204420.41   -23183.086    1796.9021   -24979.988   -972.09693     44.80528    95.098793    14.522416    27.949489 
    1000    240.61529   -431.88015    204420.41   -23216.897    1746.4513   -24963.348   -993.13145    45.573024    95.099352    14.519732    27.934087 
    1200    237.38338   -294.19386    204420.41   -23151.124    1722.9933   -24874.117   -521.59961    46.979821    95.099131    14.517503    27.927071 
    1400    244.53562   -345.63411    204420.41   -23142.603    1774.9062   -24917.509   -705.88742    49.147921    95.100333    14.519049    27.938159 
    1600     237.9171    -185.8722    204420.41   -23177.337    1726.8671   -24904.204   -156.42979    50.154116    95.100781    14.519275    27.947445 
    1800    237.46264   -365.49518    204420.41   -23138.699    1723.5685   -24862.267   -753.09398    52.280015    95.099914    14.521342    27.927657 
    2000     242.5289   -328.58421    204420.41   -23089.696    1760.3408   -24850.037   -671.46095    53.964156    95.100491    14.520107    27.947646 
    2200    240.01225   -310.94145    204420.41    -23186.32    1742.0743   -24928.394     -533.767    55.900321    95.101415    14.519385    27.922927 
    2400     238.0576   -375.69091    204420.41   -23142.682    1727.8869   -24870.569   -832.95458    57.585514    95.101214    14.519057     27.90468 
    2600    238.41642   -283.60819    204420.41   -23202.769    1730.4914   -24933.261   -482.84715    60.056128    95.100618    14.518177    27.913443 
    2800    242.97832   -325.09833    204420.41   -23107.295    1763.6029   -24870.898   -627.03453    62.054652    95.100516    14.519505    27.905283 
    3000    242.09843   -274.98798    204420.41    -23143.05    1757.2164   -24900.266   -447.05812    64.026098    95.101102    14.518303    27.901183 
    3200     233.9538    -306.7186    204420.41   -23237.959    1698.1004    -24936.06   -542.47677    65.706537    95.100823    14.516844    27.899506 
    3400    236.29913   -345.57136    204420.41   -23232.345    1715.1235   -24947.469   -732.59223    68.054876    95.100754    14.515907    27.908723 
    3600    243.86931   -260.95619    204420.41   -23211.753    1770.0699   -24981.822    -383.4535    70.149627    95.100541    14.515431    27.896076 
    3800     237.5387   -243.10878    204420.41   -23146.194    1724.1206   -24870.315   -358.02139    73.814495    95.100719    14.515584    27.878379 
    4000    236.02638   -286.43444    204420.41   -23208.407    1713.1438   -24921.551   -507.47602    76.465674    95.098613    14.517047    27.891905 
    4200      247.702   -280.71106    204420.41    -23206.88    1797.8886   -25004.769   -511.57444    78.755853    95.096724    14.517372    27.884683 
    4400    235.38289   -371.28716    204420.41   -23249.785    1708.4731   -24958.258   -797.56806    81.222304    95.097177    14.515625    27.898587 
    4600    237.51765   -410.41155    204420.41   -23318.859    1723.9678   -25042.827   -924.19779    83.215929    95.096923    14.512768    27.910647 
    4800    241.88855   -514.59189    204420.41   -23198.767     1755.693    -24954.46   -1253.1644    84.718393    95.096709    14.509278    27.914805 
    5000    240.03936   -356.54991    204420.41   -23229.688    1742.2711   -24971.959   -732.18181    85.706009    95.095479    14.508277    27.905742 
    5200    240.80951   -369.39887    204420.41   -23227.835     1747.861   -24975.696   -766.31167    87.895833    95.095731    14.509139    27.916949 
    5400    240.27058   -269.63548    204420.41   -23220.432    1743.9494   -24964.382   -453.27657       89.387    95.094696    14.506603    27.898644 
    5600    238.62447   -85.815522    204420.41   -23253.825    1732.0014   -24985.827    172.15292    90.471199    95.095077    14.507433     27.90901 
    5800    242.20949   -331.59085    204420.41   -23190.368    1758.0225   -24948.391   -640.66142    92.783766     95.09635    14.507156    27.919386 
    6000     244.8888    -454.5615    204420.41   -23231.286    1777.4697   -25008.755   -1046.6447    95.330228    95.096808    14.505142    27.924685 
    6200    238.14928   -197.35828    204420.41   -23245.341    1728.5524   -24973.893   -189.54021    96.608264    95.097352    14.500779    27.953248 
    6400    236.66923   -246.11305    204420.41   -23214.601    1717.8097    -24932.41   -382.68503    97.563572    95.097429    14.499154    27.951127 
    6600    239.21287   -221.22818    204420.41    -23221.22    1736.2722   -24957.492   -242.17815    99.731625    95.096708    14.500834    27.957948 
    6800    239.99073   -250.31032    204420.41   -23239.393    1741.9181   -24981.311   -357.31038    101.37514    95.098063    14.503287    27.948468 
    7000    247.33418   -339.68275    204420.41   -23210.804    1795.2189   -25006.023   -681.31401    103.98208    95.096984    14.502904    27.963042 
    7200    236.94675   -615.63648    204420.41   -23313.323     1719.824   -25033.147    -1650.109    106.09754    95.096663    14.504757    27.963909 
    7400     233.4408   -342.60971    204420.41   -23237.081     1694.377   -24931.458    -650.4948    106.88983    95.097568     14.50583    27.950226 
    7600    245.07871   -470.88599    204420.41   -23149.083    1778.8481   -24927.931    -1089.496    106.85902    95.097114    14.504261    27.931359 
    7800    233.84076   -216.40173    204420.41   -23287.351    1697.2799   -24984.631   -229.62985    109.09426    95.095814     14.50377    27.930034 
    8000    243.58079   -435.96957    204420.41   -23157.643    1767.9757   -24925.619   -975.92848    110.40068    95.096104    14.499972    27.931624 
    8200    240.95405   -339.42818    204420.41   -23184.418    1748.9102   -24933.328   -651.46835    114.05811    95.095817    14.500562    27.944632 
    8400    235.71215   -343.49375    204420.41   -23138.573     1710.863   -24849.436   -681.00471    119.91439     95.09597    14.503105    27.930283 
    8600    234.90114   -183.51068    204420.41   -23189.447    1704.9765   -24894.424   -117.15895    123.26634    95.096237    14.505665     27.95178 
    8800    236.84513   -207.99477    204420.41   -23195.452    1719.0865   -24914.538   -191.31404    124.47367     95.09511    14.507445    27.931631 
    9000    240.03891   -336.05808    204420.41   -23169.375    1742.2678   -24911.643   -679.07824    124.86278    95.094982     14.51115    27.904861 
    9200    243.23821   -184.29173    204420.41   -23123.585    1765.4892   -24889.074   -153.74904    124.68168    95.094808    14.511267     27.91129 
    9400    244.59727   -248.91877    204420.41    -23157.56    1775.3536   -24932.914   -342.41242    125.45453    95.096327    14.509378     27.92753 
    9600    241.47466   -290.14091    204420.41   -23231.607    1752.6889   -24984.296   -478.44207    128.23436    95.097761    14.510462    27.925415 
    9800    244.02603   -316.28706    204420.41   -23137.069    1771.2074   -24908.277   -549.23208    129.57865    95.099181    14.511435    27.926489 
   10000    237.83239   -449.46163    204420.41   -23200.858    1726.2523    -24927.11   -1027.0916    129.27204    95.097508    14.511931    27.926476 
   10200    242.02922   -426.61989    204420.41   -23142.666     1756.714    -24899.38   -969.63942    130.91932    95.097732    14.513415    27.927074 
   10400    236.06946   -383.70193    204420.41   -23125.964    1713.4565   -24839.421   -773.86522    132.70421    95.097647    14.516917    27.930757 
   10600    235.09226   -393.51148    204420.41   -23194.686    1706.3637    -24901.05   -881.61596    133.99497    95.098613    14.521757    27.914529 
   10800    235.08777   -169.85771    204420.41   -23260.048    1706.3311   -24966.379   -56.506882    134.17839    95.100209    14.522847     27.90752 
   11000    239.23292   -106.91135    204420.41   -23246.747    1736.4177   -24983.165    138.02954    135.24556    95.101983    14.527332    27.916304 
   11200    232.88255   -486.68469    204420.41    -23222.02     1690.325   -24912.345   -1159.3324    137.68709    95.103359    14.528005    27.918881 
   11400     235.8579   -216.08982    204420.41   -23189.253    1711.9209   -24901.174   -230.16695     137.1537    95.101651    14.532474    27.938445 
   11600    247.27382   -431.04237    204420.41   -23101.817    1794.7807   -24896.598   -921.36826    138.02002    95.102247    14.538002    27.920691 
   11800    234.47989   -251.87649    204420.41    -23151.52    1701.9189   -24853.438   -376.57372    139.84407     95.10232    14.539288     27.92667 
   12000    240.69932   -424.89639    204420.41   -23128.421    1747.0612   -24875.482   -940.03135     140.2309      95.1034    14.541203    27.923362 
   12200    241.08038    -328.9877    204420.41   -23158.188    1749.8271   -24908.015   -633.76351     141.1565    95.103715    14.542449    27.932608 
   12400    247.30401   -127.88884    204420.41   -23199.096    1794.9999   -24994.096    81.582428      142.746    95.103545    14.542295    27.939757 
   12600    243.40767   -302.35243    204420.41   -23135.371    1766.7192    -24902.09   -540.87647    144.18388    95.102975     14.53897    27.929535 
   12800    236.74986   -338.55808    204420.41   -23190.857     1718.395   -24909.252   -670.09787    146.69252    95.102862    14.541828    27.924469 
   13000    236.27459   -271.73961    204420.41    -23234.28    1714.9454   -24949.225   -418.24551    148.14641    95.103939    14.544382    27.932622 
   13200    239.82531   -251.68109    204420.41   -23291.351    1740.7174   -25032.068   -311.22467    150.31511    95.104602    14.546717    27.942861 
   13400    230.31928   -377.66826    204420.41   -23375.104    1671.7201   -25046.824   -772.42478     151.1847    95.105425    14.548803    27.930841 
   13600    241.84916   -298.54952    204420.41    -23306.59    1755.4071   -25061.997   -514.74896    153.24715    95.106282    14.548187    27.940186 
   13800    241.55279   -626.35871    204420.41   -23250.621     1753.256   -25003.877   -1661.6005    154.12016    95.108048    14.546125    27.931112 
   14000    246.84168   -380.12572    204420.41   -23186.146    1791.6442    -24977.79   -815.16596    153.28612    95.108399    14.548174    27.918381 
   14200    240.69733    -214.3586    204420.41   -23227.522    1747.0468   -24974.569   -218.85972    153.85816    95.108574    14.549841    27.909198 
   14400    238.59083   -191.47179    204420.41   -23289.562    1731.7573   -25021.319   -141.84997    155.83091    95.108643    14.550315    27.900874 
   14600    242.64336   -238.27199    204420.41   -23245.649    1761.1716    -25006.82   -267.35629    158.18727    95.108479    14.551758    27.910385 
   14800    243.50152   -343.32387    204420.41   -23196.693    1767.4004   -24964.093   -666.65759    159.95861    95.106578    14.551286    27.913496 
   15000    237.87261   -372.07488    204420.41   -23242.572    1726.5442   -24969.116   -747.23799    161.09141    95.107562     14.55535    27.927047 
   15200    244.94396   -134.62697    204420.41   -23246.393      1777.87   -25024.263    71.673581    161.66198    95.108164    14.560148    27.944055 
   15400    236.08204   -242.80534    204420.41   -23319.112    1713.5478    -25032.66   -326.48713    161.39334     95.10751    14.560647    27.935781 
   15600    243.01594   -430.31422    204420.41   -23128.389    1763.8759   -24892.265   -970.89857    161.74201    95.106427    14.561056    27.933218 
   15800    240.52744   -192.07766    204420.41   -23182.858    1745.8137   -24928.672   -138.11152    161.80047     95.10491    14.563157     27.92427 
   16000    235.90305   -309.33221    204420.41   -23244.301    1712.2486    -24956.55    -547.6102    164.47317    95.104174    14.563278    27.926393 
   16200    238.58446   -436.94418    204420.41    -23206.89     1731.711   -24938.601   -974.53146    165.82879    95.102053    14.560659    27.923211 
   16400    235.79459   -452.25654    204420.41   -23270.979    1711.4614    -24982.44   -1044.2068    168.42088    95.101882    14.559996    27.939188 
   16600    247.82173   -356.56673    204420.41   -23195.178    1798.7576   -24993.936   -716.69326     170.0511    95.104322    14.559448    27.927126 
   16800    240.47081   -405.22837    204420.41   -23238.719    1745.4026   -24984.122   -853.33174    171.62653    95.104255    14.557869    27.923657 
   17000     232.9797   -251.38565    204420.41   -23307.928    1691.0302   -24998.958   -318.64515     172.1851    95.101392    14.555266    27.930393 
   17200    236.54485     -465.712    204420.41   -23304.992     1716.907   -25021.899   -1100.4633    172.03561    95.102132    14.555757    27.931127 
   17400    238.90316   -236.39516    204420.41   -23361.959    1734.0242   -25095.983   -308.76485    173.38451      95.1016    14.555896     27.91414 
   17600    238.73579   -297.81865    204420.41   -23272.082    1732.8094   -25004.892   -527.98591    174.82301    95.101831    14.556824    27.911114 
   17800    238.18153   -347.12312    204420.41   -23248.463    1728.7864    -24977.25   -703.09353    174.81141    95.101649    14.558619    27.899542 
   18000    241.96029   -305.90003    204420.41   -23247.829    1756.2137   -25004.043   -569.20893    176.30649     95.10124     14.55847    27.902849 
   18200    237.71634   -470.10117    204420.41   -23262.712      1725.41   -24988.122   -1094.6482    176.50255    95.102844    14.555313     27.93587 
   18400      236.284    -357.3414    204420.41   -23204.278    1715.0137   -24919.292   -712.78509     179.1426    95.102226    14.553827    27.956664 
   18600    237.40775   -391.61937    204420.41   -23225.367    1723.1702   -24948.537   -815.81987    182.26065    95.100968    14.555677    27.960678 
   18800    237.08162   -415.28936    204420.41   -23261.611     1720.803   -24982.414   -892.18216    184.01577    95.101907    14.555784     27.95772 
   19000     240.5833   -438.30065    204420.41   -23169.318    1746.2191   -24915.537   -999.36326    185.09433    95.101761    14.553985    27.956607 
   19200    238.97068    -521.4132    204420.41   -23183.508    1734.5143   -24918.022   -1300.3233    184.75822    95.103504    14.552338    27.972243 
   19400    240.61371   -256.42622    204420.41   -23127.817    1746.4398   -24874.257   -388.97382    185.03217    95.103905    14.550471    27.956939 
   19600    247.93332   -325.55416    204420.41   -23161.823    1799.5676    -24961.39   -604.53943    186.67821    95.103264    14.550707    27.956579 
   19800    240.54682   -337.23328    204420.41   -23154.415    1745.9543   -24900.369   -662.10105    187.81513    95.104278    14.549895    27.939198 
   20000    241.55144   -323.00375    204420.41   -23143.452    1753.2462   -24896.699   -617.63803    188.34628    95.105951    14.548524    27.934563 
   20200    231.72267   -124.58408    204420.41   -23254.515    1681.9062   -24936.421    70.065432     191.8953    95.105218    14.549142    27.918015 
   20400    241.02501   -298.55399    204420.41   -23146.083    1749.4252   -24895.508   -503.46502    195.40094    95.104021    14.551179    27.933481 
   20600    236.57926   -379.01923    204420.41   -23250.836    1717.1567   -24967.993   -798.33939    198.57799    95.104671    14.552924    27.941026 
   20800    243.36179   -280.90433    204420.41   -23166.788    1766.3861   -24933.174   -495.53425    199.47584    95.104399    14.554805    27.937166 
   21000    241.19323   -382.39762    204420.41   -23199.838    1750.6462   -24950.484   -832.38539    201.57844    95.104238    14.556175    27.941943 
   21200    248.62552   -415.20482    204420.41   -23212.102    1804.5918   -25016.694   -894.21133    204.49318    95.105031    14.555762    27.939441 
   21400    237.75934   -200.51933    204420.41   -23241.388    1725.7221    -24967.11   -188.64658    208.40213    95.104602    14.554971     27.94333 
   21600    242.94217   -280.63402    204420.41   -23126.017    1763.3405   -24889.358   -447.10628    209.75464    95.106336    14.555828    27.941888 
   21800    236.02947   -210.85962    204420.41    -23230.81    1713.1662   -24943.976   -198.34881    210.09263    95.106619    14.555987    27.946309 
   22000    241.03284    -384.5116    204420.41   -23258.654    1749.4821   -25008.136   -852.79322    210.99914    95.108102    14.555339    27.938173 
   22200     233.1625   -332.76399    204420.41   -23311.931     1692.357   -25004.288   -597.19278    211.98405    95.106734    14.558162    27.927192 
   22400    245.44452   -231.58621    204420.41    -23178.66    1781.5032   -24960.163   -281.01423    213.90252    95.106119    14.557887    27.928706 
   22600    240.55585   -241.46128    204420.41   -23217.879    1746.0199   -24963.899   -351.97771    213.51494    95.106306     14.55902    27.940231 
   22800    240.32656   -456.42026    204420.41   -23215.493    1744.3556   -24959.849   -1070.2543    215.03743    95.106191    14.560083    27.948658 
   23000    239.14441   -268.52496    204420.41   -23300.011    1735.7753   -25035.786   -418.62834     216.0397    95.104086    14.560915    27.938537 
   23200    242.57012   -279.74598    204420.41   -23172.933    1760.6401   -24933.573   -466.03839    217.72242    95.103397    14.563301    27.940201 
   23400    242.28334   -346.34315    204420.41   -23182.725    1758.5585   -24941.283   -637.44769    219.72524    95.104289    14.565258    27.934866 
   23600    245.23632   -304.35522    204420.41   -23112.084    1779.9921   -24892.076    -551.4381    220.00822    95.104506    14.569586    27.944832 
   23800    245.68255    -353.8477    204420.41   -23173.214    1783.2309   -24956.445   -732.66379    220.45273    95.104379    14.571265    27.953146 
   24000    237.21992   -263.12906    204420.41   -23207.743    1721.8068   -24929.549   -368.10047    221.46298    95.103763    14.569342    27.963603 
   24200    244.07841    -379.6807    204420.41   -23200.038    1771.5876   -24971.626   -784.83927    221.28724    95.104009    14.568125    27.978762 
   24400    236.41129   -312.75851    204420.41   -23230.181    1715.9376   -24946.119   -567.45506    221.86484    95.103685    14.566696    27.982414 
   24600    234.69896   -64.651118    204420.41    -23268.44     1703.509   -24971.949    250.33613    223.31327     95.10264    14.569068    28.001491 
   24800    238.56516   -443.09445    204420.41   -23268.177     1731.571   -24999.748   -1020.2127     224.3259    95.103058    14.569389    27.994997 
   25000    238.89249    -190.4909    204420.41   -23312.511    1733.9468   -25046.458   -134.80008    225.38023    95.102103    14.568428      27.9876 
   25200    225.87242    -214.6808    204420.41   -23451.547    1639.4436   -25090.991   -201.26727    224.36464     95.09942    14.569218    27.978213 
   25400    236.22344   -370.17263    204420.41   -23287.667    1714.5741   -25002.241   -782.30376    223.78283    95.099227    14.570264    27.969682 
   25600    248.25698   -435.36034    204420.41   -23144.221    1801.9168   -24946.138   -996.02925     223.1073    95.098821    14.571067    27.966036 
   25800    244.08668   -316.96188    204420.41   -23208.031    1771.6476   -24979.678   -564.08866    224.37353    95.097981    14.570648    27.972488 
   26000    241.60303   -259.54535    204420.41   -23280.998    1753.6206   -25034.618   -397.89538    224.26022    95.097451    14.569984    27.966584 
   26200    237.46932   -254.45931    204420.41   -23290.209     1723.617   -25013.826   -367.51724    224.44313    95.096683    14.570445    27.943884 
   26400    237.03941   -172.53697    204420.41   -23330.222    1720.4966   -25050.718   -106.60198    225.43705    95.096371    14.570509    27.955879 
   26600    243.68017   -424.97451    204420.41   -23239.994    1768.6971   -25008.691   -980.77311    226.81761    95.097572    14.572678    27.954221 
   26800    238.88749   -466.25989    204420.41   -23274.962    1733.9105   -25008.872   -1117.4979     227.8921    95.096628    14.574505    27.936516 
   27000    242.83753   -309.20786    204420.41   -23207.431     1762.581   -24970.012   -602.57751    227.69626    95.095979    14.576056    27.939562 
   27200    238.74831   -215.10742    204420.41   -23224.854    1732.9003   -24957.754   -224.12969    229.04611    95.093318    14.576084    27.928196 
   27400    238.66432   -417.89712    204420.41   -23174.817    1732.2907   -24907.108   -962.48866    231.92001    95.091025    14.573739    27.910353 
   27600    240.34164   -284.42375    204420.41   -23310.612    1744.4651   -25055.078   -470.50491    231.05058    95.090613    14.573918    27.904893 
   27800    240.15041   -292.38514    204420.41   -23182.158    1743.0771   -24925.235   -513.68002    233.38987    95.091317    14.572003    27.920016 
   28000     238.4631   -367.58068    204420.41   -23297.508    1730.8301   -25028.338   -788.75567     233.6194    95.091302    14.569927    27.912455 
   28200    245.45393   -414.49925    204420.41   -23256.795    1781.5715   -25038.366    -936.6023    235.48473    95.092198    14.573593    27.912691 
   28400    239.40094   -331.26379    204420.41   -23287.255    1737.6373   -25024.893   -639.50094    238.18057    95.091939     14.57456    27.917048 
   28600    239.38233    -604.8217    204420.41   -23263.772    1737.5022   -25001.274   -1603.3401    240.75815    95.091813    14.575606    27.907665 
   28800    235.64837   -461.17273    204420.41   -23230.139    1710.4001   -24940.539   -1094.7236    241.69116    95.090355    14.576517    27.888123 
   29000    236.29264   -487.50919    204420.41   -23199.853    1715.0764    -24914.93   -1201.3439    241.90912     95.08884    14.576125    27.879302 
   29200    244.45945   -80.709638    204420.41   -23162.161    1774.3533   -24936.515    213.23815    241.55848    95.089996    14.573106    27.888857 
   29400    239.71186   -268.95196    204420.41   -23153.556     1739.894    -24893.45   -422.39023    243.65317    95.089578    14.572536    27.897193 
   29600    235.80628   -258.08807    204420.41   -23153.894    1711.5462    -24865.44   -385.47952    244.90206    95.089082    14.571871    27.869487 
   29800    239.93724   -418.76843    204420.41   -23251.141    1741.5299   -24992.671   -938.61125    246.66898    95.089481    14.568887    27.887352 
   30000    229.55467   -221.86481    204420.41   -23283.246    1666.1703   -24949.417   -259.60333    246.95236    95.089515    14.563853    27.875342 
   30200    235.78174   -168.84786    204420.41   -23187.403    1711.3681   -24898.771    -113.6595    250.25609    95.091197    14.565123    27.887996 
   30400    238.14403   -328.21375    204420.41   -23155.309    1728.5142   -24883.823   -584.53036    251.81868    95.091439     14.56508    27.902005 
   30600    237.14689    -396.3855    204420.41   -23247.863    1721.2768    -24969.14   -895.02534     252.6391    95.091713    14.563472    27.902068 
   30800    240.11123   -575.16687    204420.41   -23213.869    1742.7927   -24956.662   -1515.2136    253.83288    95.090862    14.565432    27.908947 
   31000    238.00213   -237.42139    204420.41   -23223.973    1727.4843   -24951.458   -332.28096    255.86685    95.089675    14.563818    27.911305 
   31200    243.59449   -513.85452    204420.41   -23229.729    1768.0752   -24997.804    -1265.174    257.95061    95.088085    14.563404    27.904785 
   31400     240.9777   -319.23682    204420.41   -23223.827    1749.0818   -24972.908   -611.67256    259.98206       95.088    14.562244    27.895924 
   31600     237.9796   -463.66875    204420.41   -23262.085    1727.3208   -24989.406   -1076.9879    261.07492    95.087319    14.562382    27.890263 
   31800    241.44978   -473.38328    204420.41   -23192.061    1752.5083   -24944.569   -1086.1782      260.458    95.087672     14.56137    27.883286 
   32000    237.78894   -283.57932    204420.41   -23267.253    1725.9369    -24993.19   -450.44946    260.60515    95.086945    14.560742    27.883624 
   32200     233.6437   -462.23424    204420.41   -23314.989    1695.8496   -25010.838   -1078.8197    260.69602    95.086213    14.558057      27.8812 
   32400    239.17045   -199.81959    204420.41   -23304.434    1735.9643   -25040.399   -198.06709    261.32558    95.086976    14.558184    27.891503 
   32600    244.98762   -324.46984    204420.41   -23221.524    1778.1869   -24999.711   -622.74776    262.47475    95.086124    14.559024    27.880833 
   32800    244.28875   -303.23898    204420.41    -23211.82    1773.1143   -24984.934   -566.01623    264.25356    95.086219    14.557247    27.883934 
   33000    242.43284   -390.28593    204420.41    -23170.36    1759.6436   -24930.004   -833.60441     266.0859    95.087931    14.556376    27.898238 
   33200    237.33225   -469.15301    204420.41   -23220.923    1722.6221   -24943.545   -1148.5791    268.03881    95.088667    14.559752    27.899041 
   33400    238.26522   -201.69686    204420.41   -23281.769    1729.3939   -25011.163   -185.47408    267.92945    95.089364    14.560415    27.903525 
   33600    237.91854   -289.89543    204420.41   -23263.354    1726.8776   -24990.232   -496.01824    269.18009    95.089823     14.56189    27.894462 
   33800    244.45524    -383.2102    204420.41   -23087.917    1774.3227    -24862.24   -798.15816    270.26105    95.090564    14.559763     27.88314 
   34000    234.41444   -361.94914    204420.41   -23188.135    1701.4439   -24889.579    -770.2716    272.63921    95.090616    14.560036    27.870358 
   34200    242.68912   -252.94073    204420.41   -23200.493    1761.5037   -24961.997   -371.86046    271.93341    95.089592    14.559201     27.87396 
   34400    238.74052   -374.59316    204420.41   -23227.039    1732.8437   -24959.882   -790.71024    271.97237    95.091209    14.563906    27.870244 
   34600    248.22525   -345.03047    204420.41   -23105.689    1801.6865   -24907.375   -710.26971    272.31173    95.093606    14.565171    27.857617 
   34800    241.69113   -325.28777    204420.41   -23218.293    1754.2601   -24972.553   -649.72922    273.71371    95.092407    14.564076    27.851347 
   35000    240.63956    -384.9785    204420.41   -23266.225    1746.6275   -25012.852   -769.25658    274.37099    95.091295    14.563153    27.854318 
   35200    240.82147   -427.68517    204420.41   -23167.921    1747.9478   -24915.869   -994.85325    277.29802    95.092099    14.562989    27.861881 
   35400    244.20019    -338.3864    204420.41   -23169.389    1772.4716   -24941.861    -675.2634     278.4966    95.090351    14.564696    27.866084 
   35600    243.48201   -290.90305    204420.41   -23211.668    1767.2587   -24978.927   -480.03201    280.05545     95.09119    14.565842    27.883135 
   35800     246.5963   -292.23196    204420.41   -23114.098    1789.8631   -24903.961   -513.28195    280.94622    95.090442    14.570551    27.878373 
   36000     234.6313   -296.74193    204420.41   -23242.399    1703.0179   -24945.417   -504.49672    282.39814    95.090313    14.572619    27.887914 
   36200    236.04609   -84.448932    204420.41   -23259.979    1713.2868   -24973.266    259.54486    284.66692    95.090688    14.573911    27.883039 
   36400    244.30181   -224.86174    204420.41   -23223.245    1773.2091   -24996.454   -259.78679    286.87684    95.092065    14.574428    27.864785 
   36600    238.46908   -242.15773    204420.41   -23180.082    1730.8736   -24910.955   -328.29615     286.9175    95.093692    14.574617    27.900625 
   36800    235.21487   -184.43287    204420.41   -23269.589    1707.2536   -24976.843   -100.29082    287.71898    95.093738    14.572715    27.906445 
   37000    236.98552    -394.3751    204420.41   -23221.867    1720.1055   -24941.972    -876.0569    288.30138    95.093037    14.572633    27.931158 
   37200    238.23484   -314.14142    204420.41    -23226.53    1729.1734   -24955.703   -562.94168    289.67947    95.091262    14.573027    27.920388 
   37400    237.57237   -475.61047    204420.41    -23230.34     1724.365   -24954.705   -1157.6252    291.84223    95.090432    14.572541    27.909195 
   37600    231.26043   -370.57509    204420.41   -23280.364    1678.5512   -24958.915   -793.03329    294.65006    95.090753    14.574135       27.917 
   37800    233.01973   -325.71884    204420.41   -23318.132    1691.3207   -25009.453   -614.07067    295.31569    95.091319    14.576314    27.920463 
   38000    245.16202   -173.80021    204420.41   -23211.973    1779.4527   -24991.426   -66.031018    297.90573    95.090756    14.577433    27.943775 
   38200    240.72837   -390.15323    204420.41   -23228.446    1747.2721   -24975.718   -849.08335    300.17957    95.091613    14.575346    27.941465 
   38400    237.02057   -272.85805    204420.41   -23162.172    1720.3599   -24882.532   -447.51789    302.06755    95.091474    14.571716    27.936368 
   38600    240.80442   -432.67023    204420.41   -23242.914    1747.8241   -24990.738   -1011.0449    303.50896    95.091831    14.570049    27.938006 
   38800    242.48375   -214.49325    204420.41   -23227.397    1760.0131    -24987.41   -210.96995    304.49329    95.092622    14.568544    27.943986 
   39000    244.87104   -273.56345    204420.41   -23193.274    1777.3407   -24970.615   -422.65759     305.2716    95.094137    14.566082     27.95435 
   39200    239.81715   -280.82458    204420.41    -23291.63    1740.6582   -25032.288   -452.13029    305.95087    95.096047    14.565875    27.981301 
   39400    236.85092   -424.08723    204420.41   -23252.647    1719.1285   -24971.775   -934.58479    306.80725     95.09618    14.566599    27.963424 
   39600    243.84389    -179.8204    204420.41   -23185.081    1769.8854   -24954.967   -121.10121    308.61588    95.095548    14.568437    27.975293 
   39800    234.46911   -381.59057    204420.41   -23218.789    1701.8407    -24920.63     -774.464    310.29479    95.095607     14.56759    27.983755 
   40000     246.0493    -343.8827    204420.41   -23159.575    1785.8928   -24945.468    -682.9941    309.40647     95.09452    14.567461    27.977577 
   40200    242.19121   -349.46641    204420.41   -23194.512    1757.8898   -24952.402   -708.01917     310.2677     95.09432    14.568516    27.991675 
   40400    236.32719   -320.89417    204420.41   -23267.371    1715.3271   -24982.698   -610.75559    310.83048    95.096193    14.568652    27.980289 
   40600    241.22547   -416.56415    204420.41   -23183.938    1750.8802   -24934.818   -950.42053     312.6152    95.097352     14.56857    27.977901 
   40800    234.62829    -387.4466    204420.41    -23248.38    1702.9961   -24951.376   -813.40726    314.99619    95.097646    14.571273    27.984516 
   41000     231.4214   -310.71699    204420.41   -23236.926    1679.7196   -24916.645   -595.59301    316.63103    95.097122    14.572831    27.987961 
   41200    241.62629   -252.30644    204420.41   -23173.219    1753.7895   -24927.009   -358.15883    318.93716    95.098364    14.574562    27.991065 
   41400    242.04554   -243.47482    204420.41   -23233.629    1756.8325   -24990.461   -320.66511    321.34559    95.098295     14.57624    28.003744 
   41600    242.12383   -264.70764    204420.41   -23205.936    1757.4007   -24963.337   -431.13585    321.94084    95.100685    14.577574    28.005739 
   41800    242.83834   -378.56432    204420.41   -23226.801    1762.5869   -24989.388   -787.28383    322.28434    95.101568    14.576174    27.989799 
   42000     245.4065   -294.78229    204420.41   -23278.062    1781.2272    -25059.29   -505.47297    323.27972    95.100854    14.574575    27.974813 
   42200    236.40579   -250.18715    204420.41   -23327.635    1715.8976   -25043.533   -350.54237    323.35554    95.102321     14.57339    27.977386 
   42400    240.59568   -450.33758    204420.41   -23246.837     1746.309   -24993.146   -1058.0814    324.79414    95.102943    14.570616    27.981164 
   42600    241.23931   -107.80302    204420.41   -23235.956    1750.9807   -24986.936    154.36521    323.94616    95.102524    14.568295    27.972589 
   42800     241.2709   -302.39258    204420.41   -23192.222    1751.2099   -24943.432   -554.31266    325.17549    95.103528    14.564226    27.974696 
   43000    239.03824   -381.92077    204420.41   -23259.676    1735.0047    -24994.68   -829.99998    327.94584     95.10476    14.559195    27.969177 
   43200    241.46807   -532.46047    204420.41   -23270.833     1752.641   -25023.475    -1321.651    328.22826      95.1058    14.557141    27.972637 
   43400    239.31853   -424.18519    204420.41    -23241.56    1737.0391   -24978.599   -944.51479    328.58755    95.107888    14.554529    27.980974 
   43600     239.8241   -478.64719    204420.41   -23273.212    1740.7087   -25013.921   -1109.6494    329.19746    95.107955    14.554918    27.977455 
   43800    230.11311   -211.94565    204420.41   -23286.222    1670.2236   -24956.446   -257.92736    329.94492    95.108893    14.552978    27.996524 
   44000    240.57277   -324.52865    204420.41   -23307.456    1746.1427   -25053.599    -609.0968      333.339    95.107669    14.553554    27.993032 
   44200    235.36448    -434.3793    204420.41   -23244.417    1708.3396   -24952.756   -974.80396    334.02074    95.107111    14.554515    27.976552 
   44400    245.21917   -348.08666    204420.41   -23251.641    1779.8676   -25031.509   -657.09569    336.22238    95.108748    14.552006    27.986302 
   44600    234.89369   -486.19356    204420.41   -23253.411    1704.9224   -24958.333   -1127.4964    338.75104    95.109125    14.553066    27.984697 
   44800    237.96639   -280.24067    204420.41   -23222.646    1727.2249   -24949.871    -451.3563    342.34786     95.10865    14.555715    27.979068 
   45000    243.19979   -236.42067    204420.41   -23229.272    1765.2103   -24994.482   -311.08596    342.17912    95.109695    14.558539    27.984752 
   45200    238.87504   -461.15153    204420.41   -23233.754    1733.8201   -24967.574   -1058.2581    342.98889    95.110485    14.559189    27.980287 
   45400    233.60447   -274.28398    204420.41   -23303.385    1695.5649    -24998.95   -470.37978    343.12643    95.111595    14.563033    27.976743 
   45600    244.61927   -282.58204    204420.41   -23246.397    1775.5133    -25021.91   -514.91497    345.67234    95.112983    14.565607    27.969554 
   45800    240.71514   -386.28895    204420.41    -23272.37    1747.1761   -25019.546   -802.69732    346.76429    95.113171    14.566834    27.984138 
   46000     244.5829   -651.08759    204420.41   -23185.865    1775.2493   -24961.115   -1780.5576    347.70741    95.112544    14.569209    27.990097 
   46200    240.86665   -314.47912    204420.41   -23139.301    1748.2758   -24887.577   -566.00486    347.69402    95.115942    14.569227    27.977947 
   46400    237.89602    -228.2734    204420.41    -23191.74    1726.7141   -24918.454   -262.30909    348.33729    95.115844    14.569896     27.97387 
   46600    234.53613   -314.16896    204420.41   -23166.295    1702.3271   -24868.622   -549.55961    350.65963    95.115315    14.570887    27.963374 
   46800    237.90895   -491.13089    204420.41    -23187.35     1726.808   -24914.158   -1154.3226    352.18814    95.112903    14.571541    27.965535 
   47000    244.38898   -400.81466    204420.41   -23153.284    1773.8418   -24927.125   -895.00098    355.04084    95.111125      14.5724    27.965645 
   47200     231.6982   -424.68209    204420.41   -23280.286    1681.7287   -24962.015   -997.50697    355.75288    95.111386    14.572749    27.996579 
   47400    237.32499   -481.66446    204420.41   -23191.684    1722.5695   -24914.254   -1159.0905    357.20497    95.110999     14.57046    27.987449 
   47600    241.36075   -327.06537    204420.41   -23201.197    1751.8621   -24953.059   -603.59578     358.7747    95.110267    14.566633    27.959904 
   47800    248.21299   -168.64179    204420.41   -23255.952    1801.5975    -25057.55    -83.88949    358.44253    95.109175    14.564971    27.958642 
   48000    236.71979   -703.08582    204420.41   -23256.799    1718.1768   -24974.976   -1909.4133    358.17689    95.109908    14.564769    27.938583 
   48200    237.70049   -426.38743    204420.41   -23211.563    1725.2949   -24936.858   -968.17774     359.8723    95.108958    14.564171    27.924302 
   48400     236.8618   -532.01107    204420.41   -23200.352    1719.2075    -24919.56   -1318.3985    362.37144    95.109061    14.563458    27.927921 
   48600     234.3403   -321.78257    204420.41   -23286.114    1700.9058    -24987.02   -585.42629    362.81023    95.109062    14.564282    27.914996 
   48800    241.09017   -402.64912    204420.41   -23236.275    1749.8982   -24986.173   -866.64615    361.56755    95.110202    14.561262     27.93695 
   49000    239.65415   -153.70096    204420.41   -23233.584    1739.4751   -24973.059   -46.231414    363.21929    95.110828    14.561385     27.91837 
   49200     239.6431   -389.22756    204420.41    -23150.06    1739.3949   -24889.455   -811.33544     364.4692     95.11123    14.561122    27.933701 
   49400    237.27092   -296.74938    204420.41   -23224.217     1722.177   -24946.394   -540.12811    363.72128     95.11162    14.562713    27.922545 
   49600    242.09698   -376.21934    204420.41   -23212.535    1757.2058   -24969.741   -780.45061    364.93387    95.109159    14.564017    27.904892 
   49800    242.21172   -160.61885    204420.41   -23192.881    1758.0386   -24950.919   -65.605216    365.02485    95.109216    14.565219    27.877578 
   50000    241.38957   -310.96728    204420.41   -23187.199    1752.0713   -24939.271    -561.3807     365.9423    95.109826     14.56741    27.864422 
   50200    249.65229   -316.82402    204420.41   -23135.558    1812.0443   -24947.603   -568.44201    366.08724    95.110338    14.567039    27.884876 
   50400    242.32876   -266.89873    204420.41   -23203.869    1758.8882   -24962.757   -432.19423     366.5055    95.111429    14.565005    27.892159 
   50600    244.60678   -284.82351    204420.41   -23111.413    1775.4226   -24886.836   -449.70898    367.46351    95.111752    14.563345    27.903188 
   50800    235.59756   -207.74227    204420.41   -23326.806    1710.0313   -25036.838   -240.92464    369.59031    95.111906    14.562886    27.899474 
   51000    235.15946    -187.2012    204420.41   -23241.296    1706.8515   -24948.148   -142.05883    371.53625    95.110551    14.562517    27.883343 
   51200     238.7485   -186.54049    204420.41   -23265.382    1732.9017   -24998.284   -152.52202    372.62702    95.111024    14.560975    27.887092 
   51400    239.95964   -418.89758    204420.41   -23302.342    1741.6925   -25044.035    -969.4632    373.48588    95.108975    14.559559    27.884042 
   51600    235.35157   -222.43719    204420.41   -23318.177    1708.2458   -25026.422   -272.16283    374.30233    95.107161    14.559376    27.887983 
   51800    239.08463   -445.29644    204420.41   -23267.766    1735.3414   -25003.108   -1041.3496    377.14323    95.107752    14.560749    27.905994 
   52000    233.03085   -292.16245    204420.41   -23306.353    1691.4014   -24997.754   -530.54338     378.6222    95.106533    14.560865    27.897452 
   52200    240.31046   -497.44463    204420.41   -23363.442    1744.2388   -25107.681   -1214.0694    379.58486    95.106939     14.56103    27.887359 
   52400     235.3009   -359.98932    204420.41   -23444.588     1707.878   -25152.466   -748.74936    379.56499    95.106933    14.560694    27.882307 
   52600    236.06909   -450.36848    204420.41   -23285.335    1713.4538   -24998.789   -1112.2434    381.89858     95.10777    14.559792     27.87615 
   52800    248.31882   -449.61934    204420.41   -23235.338    1802.3657   -25037.704    -1062.109    382.15966    95.108752    14.559598    27.870666 
   53000     240.1002   -365.36229    204420.41    -23206.05    1742.7127   -24948.763   -773.57683    384.24538    95.110283    14.559256     27.88516 
   53200    238.96825   -475.50865    204420.41   -23289.319    1734.4967   -25023.816    -1098.218    385.25282    95.111385    14.558418    27.874808 
   53400    232.76347   -414.63069    204420.41   -23258.881    1689.4607   -24948.341   -949.54375    386.92757    95.111015    14.558942    27.909116 
   53600    237.23197   -331.90735    204420.41   -23314.979    1721.8943   -25036.873   -622.87787    388.41425    95.109748    14.560557    27.908464 
   53800    235.53573   -242.61093    204420.41   -23308.906    1709.5825   -25018.489   -300.81835    389.07167     95.10894    14.559941    27.932164 
   54000    243.17111   -354.17706    204420.41   -23257.046    1765.0022   -25022.049    -679.2375    391.17166    95.109292    14.558483    27.946886 
   54200    241.71383   -245.76804    204420.41   -23207.842    1754.4249   -24962.267   -341.69894    392.37477    95.111382    14.558366    27.932988 
   54400    244.46495   -294.12521    204420.41   -23151.101    1774.3932   -24925.494   -494.55846    393.24315     95.11324    14.559082    27.922485 
   54600    244.77298   -317.37863    204420.41   -23192.983     1776.629   -24969.612   -601.54807    392.03126    95.113122    14.559437    27.914407 
   54800    240.37362   -379.85846    204420.41   -23214.646    1744.6972   -24959.343   -863.65825    394.52901    95.113709    14.558538    27.883972 
   55000    244.83997   -327.84656    204420.41   -23188.326    1777.1152   -24965.442   -659.17807     395.8929    95.114832    14.556432    27.879463 
   55200    232.39521   -357.36755    204420.41   -23340.194    1686.7878   -25026.981    -756.0799     396.4742    95.114205    14.554066    27.881733 
   55400    238.85827   -316.45898    204420.41   -23282.949    1733.6984   -25016.647   -586.91729    396.24466    95.115412     14.55416    27.884542 
   55600    240.37847   -324.26411    204420.41   -23263.302    1744.7324   -25008.035    -630.5514    396.44159    95.115819    14.555427    27.892457 
   55800     246.8299   -316.79245    204420.41   -23130.437    1791.5587   -24921.996   -594.62582    396.22042     95.11835    14.557114    27.872323 
   56000    241.46079   -188.25061    204420.41   -23170.043    1752.5882   -24922.631   -151.20656    396.64761     95.11786    14.560325    27.878985 
   56200    243.24589   -357.31128    204420.41   -23155.798    1765.5449   -24921.343   -699.31669    398.17086    95.117981    14.560346    27.866505 
   56400    239.92876   -326.30367    204420.41   -23230.263    1741.4683   -24971.731   -603.39818    398.81428    95.118586    14.563148    27.851167 
   56600     239.2121   -279.95956    204420.41   -23345.323    1736.2666    -25081.59   -479.49165    400.46165    95.119761    14.567004    27.848804 
   56800    243.06454   -420.96214    204420.41   -23254.393    1764.2286   -25018.621   -929.60363     402.7736    95.120687    14.568173    27.836874 
   57000    232.90776   -268.68479    204420.41   -23336.044     1690.508   -25026.552   -438.99014    404.03495    95.121517    14.571446    27.846345 
   57200    241.43825   -379.71135    204420.41   -23215.451    1752.4246   -24967.876   -775.56338    407.01964    95.122511    14.570147    27.845699 
   57400    236.64422   -339.78735    204420.41   -23229.585    1717.6282   -24947.213    -688.5151     409.1616     95.12114    14.570448    27.847881 
   57600    234.54815   -270.22629    204420.41   -23270.225    1702.4144    -24972.64   -415.44871    411.45717    95.121361    14.571371     27.84886 
   57800    243.55856   -563.81366    204420.41   -23213.561    1767.8144   -24981.376   -1446.3797    414.25585     95.12217    14.571996    27.848618 
   58000    239.57177   -291.94234    204420.41   -23254.098    1738.8772   -24992.975   -459.17293    415.42839     95.12153    14.573797    27.848184 
   58200    243.76937   -376.86712    204420.41   -23242.791    1769.3445   -25012.136   -778.44797    417.53084    95.121861    14.573214    27.841195 
   58400    243.46777   -336.83723    204420.41   -23290.395    1767.1554    -25057.55   -619.91342    419.36628    95.122788    14.571811    27.826445 
   58600    232.16694   -438.73566    204420.41   -23324.194    1685.1309   -25009.325   -1062.1633    420.22249    95.123056    14.571595    27.830323 
   58800     239.3575   -203.29718    204420.41   -23291.108     1737.322    -25028.43   -227.29572    420.57509    95.120501    14.570252    27.844304 
   59000    239.48853   -430.90018    204420.41   -23221.361     1738.273   -24959.634    -1015.408    421.76492    95.118732    14.569078    27.850833 
   59200    239.56207   -535.11185    204420.41   -23248.309    1738.8068   -24987.116   -1349.9372      422.575    95.118123      14.5704    27.866911 
   59400    241.34031   -288.55234    204420.41    -23283.31    1751.7138   -25035.024   -468.34425    423.40642    95.117584    14.571431    27.864405 
   59600    235.75926   -319.90887    204420.41    -23316.93     1711.205   -25028.135   -548.66274    424.79458    95.117917    14.572542    27.870934 
   59800    238.83515   -434.89909    204420.41   -23251.809    1733.5306    -24985.34   -968.24479    425.04633    95.119799    14.569289     27.86838 
   60000    235.96163    -424.8303    204420.41   -23242.566    1712.6738   -24955.239   -946.20587    425.01585    95.119371    14.571929    27.850237 
   60200    234.74859   -340.84607    204420.41   -23276.437    1703.8693   -24980.306   -654.90926     425.0316    95.119139     14.57643    27.823113 
   60400    241.05481    -309.5735    204420.41   -23234.955    1749.6415   -24984.596   -540.72854    424.71765     95.11931    14.580429    27.819738 
   60600    244.55342   -438.27427    204420.41   -23243.966    1775.0353   -25019.001    -987.5171    425.57119    95.121316    14.580412    27.825329 
   60800    246.04668   -197.89271    204420.41   -23154.635    1785.8739   -24940.509   -126.04142    425.03849    95.121872    14.579851    27.821691 
   61000    238.74348   -467.38749    204420.41   -23208.992    1732.8652   -24941.858   -1098.1717    428.01545    95.122633    14.580948    27.825944 
   61200    246.72174    -247.8102    204420.41    -23190.33    1790.7736   -24981.103   -311.66289    429.96804    95.121656    14.581203    27.834571 
   61400    242.63446   -363.10194    204420.41   -23212.306     1761.107   -24973.413   -731.48141    432.76075     95.12132    14.580924    27.863348 
   61600    239.82968   -387.87053    204420.41   -23227.924    1740.7492   -24968.673   -879.99136    432.06518    95.121889    14.580677    27.837722 
   61800    234.28494   -257.95146    204420.41   -23298.428     1700.504   -24998.932   -368.29958    432.59359     95.12285    14.582572    27.820716 
   62000    233.73186   -283.32865    204420.41   -23201.302    1696.4895   -24897.792   -414.96806    434.04633     95.12151    14.586922    27.811196 
   62200    238.41766   -358.92991    204420.41   -23201.944    1730.5004   -24932.444   -729.84855    436.33829     95.12232    14.586932    27.802145 
   62400    243.87616   -436.06162    204420.41   -23224.832    1770.1196   -24994.952   -1004.3891    437.31938    95.122034     14.58756    27.810555 
   62600    236.63037   -313.69516    204420.41   -23223.777    1717.5277   -24941.305   -570.04969    439.96871    95.120788    14.586312    27.808673 
   62800    238.99109   -386.17382    204420.41   -23308.067    1734.6625    -25042.73   -825.34192    441.88406    95.121253      14.5835    27.798487 
   63000    239.83196   -253.31506    204420.41   -23186.386    1740.7657   -24927.152   -377.60227    440.47846    95.121657    14.580831    27.803066 
   63200    240.86378   -272.40112    204420.41   -23208.731     1748.255   -24956.986   -415.07043    441.18947    95.121107    14.575396    27.828454 
   63400    234.66639    -361.0953    204420.41   -23273.719    1703.2726   -24976.992   -742.19284    443.08838    95.120879    14.573332    27.849152 
   63600    232.64847   -259.33803    204420.41   -23251.277     1688.626   -24939.903   -416.59345    447.75453    95.120926    14.574195    27.843875 
   63800    233.59728   -444.33802    204420.41   -23245.838    1695.5127    -24941.35   -1025.4172    449.37136    95.120302    14.577405    27.817476 
   64000    245.55555   -379.59055    204420.41   -23125.615    1782.3091   -24907.924   -830.80529    451.01737    95.120833    14.580317    27.815076 
   64200     234.6127    -190.5657    204420.41   -23131.427    1702.8829    -24834.31   -175.26737    451.39799    95.120936    14.579957    27.804236 
   64400    236.80853   -319.75832    204420.41   -23165.296    1718.8208   -24884.116   -594.13981    452.08762    95.118626    14.582955    27.813358 
   64600    240.77378   -243.84266    204420.41   -23153.076    1747.6017   -24900.678   -345.03563    454.51115    95.117857    14.580822    27.812488 
   64800    238.68288     -439.697    204420.41   -23190.374    1732.4254     -24922.8   -1019.6017    456.83632    95.116726    14.579759    27.799201 
   65000    243.05363   -188.94025    204420.41   -23154.116    1764.1495   -24918.265   -103.25978    458.11731    95.116659     14.57947    27.778373 
   65200    236.73114   -347.62929    204420.41    -23213.66    1718.2591   -24931.919   -706.83595    458.11228    95.118542    14.579107    27.773264 
   65400    232.28547   -305.56665    204420.41   -23229.564    1685.9913   -24915.555   -581.83469    460.11493    95.120278    14.578807    27.756556 
   65600    240.52765    -422.8611    204420.41   -23163.231    1745.8152   -24909.046   -955.24109     462.5247    95.121259    14.579636     27.76539 
   65800    237.07614   -331.62449    204420.41   -23190.954    1720.7632   -24911.717   -624.17713    463.80109    95.123158    14.582578    27.775445 
   66000    238.97901   -353.60958    204420.41    -23190.94    1734.5748   -24925.515   -702.52059    464.38134    95.124177    14.581774    27.780896 
   66200    244.64444   -323.52859    204420.41   -23260.449     1775.696   -25036.144    -593.6619    464.50829    95.124175    14.580937    27.783432 
   66400    238.66018   -329.94786    204420.41    -23234.69    1732.2606   -24966.951   -639.46041    468.06185    95.126206    14.581305    27.789845 
   66600    237.87694    -243.1806    204420.41   -23290.186    1726.5756   -25016.762   -316.26087    470.08751    95.127204    14.581438    27.793706 
   66800     239.5859   -235.56348    204420.41    -23271.86    1738.9798    -25010.84   -302.65511    470.30913    95.128691    14.582348    27.777716 
   67000    236.37016   -130.82327    204420.41   -23335.957     1715.639   -25051.596    55.381858    471.31525    95.129646    14.580239    27.774384 
   67200    235.85784   -575.98521    204420.41   -23301.526    1711.9205   -25013.446   -1473.2667    473.83333      95.1303    14.581731    27.768139 
   67400    245.14846   -399.70542    204420.41   -23285.356    1779.3543    -25064.71   -872.25997    475.40667    95.132753    14.583284    27.765091 
   67600    248.26464   -372.13622    204420.41   -23204.317    1801.9724   -25006.289   -776.65555    477.43054    95.132513    14.588209    27.774938 
   67800    234.63874   -344.02661    204420.41    -23213.72    1703.0719   -24916.792   -664.71718    478.37829    95.134449    14.588366    27.781115 
   68000    236.36766   -221.10361    204420.41   -23293.487    1715.6209   -25009.108   -240.12571    480.03047    95.134791    14.590772    27.780888 
   68200    234.13805   -348.14575    204420.41   -23253.685    1699.4378   -24953.123   -707.88061    483.40728     95.13397    14.589911    27.759795 
   68400    239.96617   -544.28517    204420.41   -23217.729    1741.7399   -24959.469   -1417.2974     484.3251    95.133964    14.590062    27.740959 
   68600    233.79596   -599.15548    204420.41   -23229.435    1696.9548    -24926.39   -1585.2586    486.14919    95.132718     14.58837    27.747603 
   68800    246.37174   -220.45481    204420.41   -23174.302    1788.2332   -24962.535   -282.95758    486.84145    95.132227    14.588756    27.746898 
   69000    242.83783    -239.9434    204420.41   -23201.797    1762.5831    -24964.38   -338.66308    487.79417    95.132002    14.588156    27.772073 
   69200    231.89018   -354.46236    204420.41   -23248.607    1683.1221   -24931.729   -689.72352    488.81099    95.131523    14.591119    27.788044 
   69400    232.79515   -235.43174    204420.41   -23275.131    1689.6906   -24964.822    -329.7833    487.45382    95.132355    14.595422    27.808405 
   69600    237.94947   -297.69551    204420.41    -23142.43    1727.1021   -24869.532   -548.94446    486.33274    95.132413    14.597196    27.813899 
   69800    242.62873     -267.379    204420.41   -23181.041    1761.0654   -24942.106   -404.77301    488.53298    95.131596    14.598248    27.819978 
   70000    244.03232   -150.00114    204420.41   -23232.564     1771.253   -25003.817   -28.410432    488.96617    95.130273    14.597735    27.825622 
   70200    244.31087    -377.7623    204420.41   -23134.573    1773.2749   -24907.848   -780.94092    491.92116    95.129613    14.599467    27.823839 
   70400    246.31842   -294.58067    204420.41   -23151.812    1787.8462   -24939.658   -502.80073    492.45505     95.12934    14.603224    27.827077 
   70600    238.96473   -352.42241    204420.41    -23198.04    1734.4712   -24932.512   -726.63805    492.14984    95.127537    14.604928    27.842569 
   70800    244.59502   -476.25243    204420.41   -23173.392    1775.3373   -24948.729   -1113.9831    493.17999    95.127001    14.606368     27.83819 
   71000    235.73047     -201.449    204420.41    -23209.37     1710.996   -24920.366   -157.52287    492.47116    95.127828    14.608201    27.819156 
   71200    245.63221   -375.26109    204420.41   -23203.129    1782.8655   -24985.994     -790.412    493.65855    95.125872    14.607876    27.794251 
   71400    235.64634   -233.56245    204420.41   -23204.657    1710.3854   -24915.043   -326.09253    494.38113    95.125842    14.606413    27.786246 
   71600    239.75074   -463.38976    204420.41   -23085.183    1740.1762    -24825.36   -1107.5763     497.8174    95.126173    14.604645    27.785182 
   71800    230.55207   -255.44147    204420.41    -23192.47    1673.4098   -24865.879   -360.71296    498.48463      95.1266    14.608394    27.777901 
   72000    240.82472   -514.55884    204420.41   -23216.939    1747.9714   -24964.911    -1287.621    499.43434    95.125046    14.612125    27.789032 
   72200    243.72074   -352.51834    204420.41   -23053.732    1768.9915   -24822.724   -769.27893    501.06372    95.125833    14.613662    27.788964 
   72400    239.40157   -365.21725    204420.41   -23115.873    1737.6418   -24853.515   -749.48822    500.98382    95.125406    14.615423    27.796151 
   72600    243.61529   -321.80311    204420.41    -23152.19    1768.2261   -24920.416   -610.29499    502.93514    95.125599    14.618649    27.811055 
   72800    237.41816   -355.89418    204420.41   -23205.894    1723.2457    -24929.14    -698.0585    504.79648    95.127671    14.616938    27.791319 
   73000    241.28396   -270.95527    204420.41   -23254.024    1751.3047   -25005.329   -438.31118    505.19616    95.128269    14.617516    27.791798 
   73200     241.7581   -203.03553    204420.41    -23181.17    1754.7462   -24935.916   -182.18396    506.26913    95.128582     14.62061    27.778101 
   73400    241.84308   -247.99182    204420.41   -23173.444     1755.363   -24928.807   -357.62288    509.45434    95.128914    14.624214    27.758336 
   73600    238.70035   -267.08725    204420.41   -23193.761    1732.5522   -24926.313   -419.65548    508.98459    95.129997    14.623867    27.736394 
   73800    233.21203   -443.69124    204420.41   -23284.735    1692.7165   -24977.452    -1019.494    509.93667    95.130585    14.624518    27.730047 
   74000    236.49986    -239.9881    204420.41   -23284.065    1716.5804   -25000.646   -352.53078    511.03394     95.13198    14.623995    27.727183 
   74200    247.04381   -277.56491    204420.41   -23164.287    1793.1113   -24957.398   -471.05331    514.46933     95.13235    14.625224    27.727559 
   74400    243.89333   -375.00066    204420.41   -23170.379    1770.2442   -24940.623   -798.11479    516.47618    95.134482      14.6307    27.729846 
   74600    239.52319   -416.50355    204420.41   -23214.614    1738.5246   -24953.138   -912.16331    517.90118    95.134999    14.635949    27.745084 
   74800    239.95254   -393.37269    204420.41   -23236.554     1741.641   -24978.195   -885.21479    519.25975    95.136471    14.636748    27.748639 
   75000    239.06971   -311.51746    204420.41   -23276.147    1735.2331    -25011.38   -537.14911    518.19288    95.136835     14.63572     27.75431 
   75200    249.14056    -310.8063    204420.41   -23206.449      1808.33   -25014.779   -541.62602    520.14007    95.136526    14.636197    27.737139 
   75400    232.85705   -239.79431    204420.41   -23307.261    1690.1399   -24997.401   -294.77342    520.35748    95.135865    14.639094    27.743188 
   75600    237.21912   -395.09203    204420.41   -23262.717     1721.801   -24984.519   -879.13209    521.04979    95.135534    14.641301    27.732702 
   75800    235.88211   -440.30203    204420.41   -23163.711    1712.0967   -24875.808   -1017.8661    520.83631    95.135457    14.640433    27.730676 
   76000    243.18675   -325.05465    204420.41   -23178.013    1765.1157   -24943.128   -621.90752    521.03982    95.135662    14.640078    27.733914 
   76200    234.63037    -232.0342    204420.41   -23306.578    1703.0111   -25009.589   -260.20246     521.8084    95.135888     14.63977    27.745772 
   76400    235.76048   -592.46862    204420.41   -23288.208    1711.2138   -24999.422   -1509.2677     524.6668    95.136044    14.638492    27.742587 
   76600    240.15005   -433.86609    204420.41   -23277.218    1743.0745   -25020.292   -991.81047    525.31632     95.13715    14.636467    27.747273 
   76800    234.02112   -410.46546    204420.41   -23245.601    1698.5891    -24944.19   -917.27821    526.17701    95.137234    14.632621    27.755765 
   77000    241.03078   -200.54428    204420.41   -23245.168    1749.4671   -24994.635   -187.10243    523.49061    95.138429    14.632387     27.76714 
   77200    243.13056   -296.53034    204420.41   -23211.357    1764.7079   -24976.065   -505.51163    524.89995    95.138048    14.630938    27.753277 
   77400    240.08521    -313.2695    204420.41   -23225.684    1742.6039   -24968.288   -627.79884    527.37037    95.138695    14.632315      27.7424 
   77600    236.03912    -341.9858    204420.41   -23239.309    1713.2362   -24952.545   -681.68376    527.82952    95.138428    14.635007     27.75693 
   77800     242.9514   -192.65798    204420.41   -23220.712    1763.4074   -24984.119   -167.62912     526.2893    95.137745     14.63594    27.777654 
   78000    239.46359   -364.00193    204420.41    -23222.26     1738.092   -24960.352   -747.54795    527.88471    95.138325      14.6349    27.777478 
   78200    239.88778   -334.89661    204420.41   -23216.574    1741.1709   -24957.745   -616.13345    528.35799    95.137459    14.633161    27.768369 
   78400    236.83275   -411.62409    204420.41   -23144.802    1718.9966   -24863.799   -932.49533    530.67185    95.135908    14.630474    27.759642 
   78600    247.85478   -249.50101    204420.41   -23169.219    1798.9975   -24968.217   -348.55513    532.45319    95.133993    14.628508    27.753242 
   78800    243.56978   -220.26583    204420.41   -23153.652    1767.8958   -24921.547   -244.56622    533.26788    95.132881    14.628631    27.790059 
   79000     239.2665   -306.48353    204420.41    -23146.54    1736.6614   -24883.201   -565.88451    533.15366    95.133567    14.628262    27.783151 
   79200    243.92597   -365.90354    204420.41    -23109.04    1770.4811   -24879.522   -769.11895    535.01176    95.134448    14.627523    27.757468 
   79400    239.59831   -180.98282    204420.41   -23134.075    1739.0698   -24873.145   -155.56323    536.60102    95.135667    14.628919    27.757748 
   79600    236.02794   -264.23723    204420.41    -23259.54    1713.1551   -24972.695   -431.23953    539.42612    95.136722    14.627016    27.771485 
   79800    235.48152   -302.11678    204420.41   -23239.179     1709.189   -24948.368   -595.04674    538.37226    95.134867    14.625999    27.771713 
   80000    234.73996   -321.64903    204420.41    -23274.38    1703.8066   -24978.186   -602.39006    542.70723    95.134498    14.625543    27.783659 
   80200    233.86923   -460.52564    204420.41   -23310.798    1697.4866   -25008.284   -1116.1893    541.89709    95.135705    14.626095    27.786518 
   80400    230.38875   -423.62655    204420.41   -23313.899    1672.2243   -24986.124   -992.08745    541.49272    95.134801    14.628706    27.783498 
   80600    232.37307   -187.23505    204420.41   -23265.289     1686.627   -24951.916   -152.86882    543.21109    95.133756    14.627556    27.781924 
   80800    242.84865   -344.90547    204420.41   -23239.533    1762.6616   -25002.195   -672.90482    547.44373     95.13373    14.628314    27.789757 
   81000    239.71385   -429.97011    204420.41   -23262.815    1739.9084   -25002.724   -971.15067    549.22066    95.133969    14.627909    27.801299 
   81200    235.43713   -355.17592    204420.41   -23228.833    1708.8668   -24937.699   -740.30215    551.00006    95.132804    14.629427    27.810917 
   81400    239.25797   -203.82586    204420.41    -23183.93    1736.5995   -24920.529   -195.60949    551.49429    95.132311    14.631539    27.793508 
   81600    232.61957   -336.50068    204420.41   -23275.911    1688.4162   -24964.327   -674.76184     552.3396    95.132959    14.634261    27.774877 
   81800    235.28283   -349.07775    204420.41   -23300.349    1707.7469   -25008.096   -711.70932    552.22758    95.134572    14.636453     27.78397 
   82000    238.81252   -256.34517    204420.41   -23255.325    1733.3663   -24988.691   -347.16783    553.94176    95.135708    14.637951    27.770988 
   82200    238.65611   -428.58368    204420.41   -23181.786     1732.231   -24914.017   -974.65033     556.9822    95.135869     14.63902    27.775559 
   82400    246.73037   -339.32946    204420.41   -23235.125    1790.8363   -25025.961    -688.4678    556.85515    95.137359    14.641841    27.784872 
   82600    245.72364   -389.22314    204420.41   -23175.076    1783.5291   -24958.605   -819.90972    559.14265    95.135405    14.640642     27.76501 
   82800    233.56474   -377.96264    204420.41   -23301.324    1695.2765   -24996.601   -829.77225    561.06546    95.135117    14.636605    27.768779 
   83000    242.96834   -184.62995    204420.41   -23191.881    1763.5304   -24955.412    -111.9614     562.5596    95.134632     14.63547    27.770812 
   83200    244.07292   -175.04676    204420.41   -23222.676    1771.5477   -24994.224   -114.68566    565.91329    95.135011    14.634643    27.780158 
   83400    243.68484   -395.96835    204420.41   -23175.245     1768.731   -24943.976   -831.54511    569.06313    95.134609    14.637498    27.785475 
   83600    236.10162    11.688169    204420.41   -23283.007    1713.6899   -24996.697    568.78172    568.28327    95.135417    14.639362    27.765354 
   83800    235.47937   -319.66304    204420.41   -23252.642    1709.1734   -24961.816   -583.81258    570.67397    95.135283    14.641452    27.751188 
   84000    238.68883   -257.64563    204420.41   -23226.914    1732.4686   -24959.383    -366.0975    571.97537    95.134901    14.645212    27.743779 
   84200     242.3449   -159.14889    204420.41   -23201.454    1759.0053   -24960.459    -85.66637    573.20264    95.134406    14.643791    27.733788 
   84400     232.5186   -277.60319    204420.41   -23282.028    1687.6834   -24969.712   -485.20645    574.48611    95.132213    14.643386    27.728871 
   84600     240.4093     -344.285    204420.41   -23210.655    1744.9562   -24955.611   -681.67935    574.73592    95.131517    14.645707    27.739673 
   84800    236.39797   -292.40206    204420.41   -23225.742    1715.8409   -24941.583    -503.7212    574.98154    95.129557    14.647619    27.742379 
   85000    240.32688   -112.11651    204420.41   -23167.286     1744.358   -24911.644    129.23941    575.55962    95.129133    14.651511    27.750861 
   85200     244.3477   -202.90033    204420.41   -23164.991    1773.5422   -24938.533   -229.55727    576.20563    95.127288    14.652183    27.751097 
   85400    233.91991   -364.69328    204420.41   -23231.228    1697.8545   -24929.083   -733.20791     579.5871    95.125724    14.650062    27.755074 
   85600    239.70972   -390.09102    204420.41   -23197.979    1739.8785   -24937.857   -883.09124    579.27222    95.125579    14.654026     27.75601 
   85800    238.87473   -455.12384    204420.41   -23199.498    1733.8179   -24933.316   -1092.6929    582.00257    95.125008    14.654065    27.762773 
   86000    232.22225    -401.0605    204420.41   -23138.932    1685.5324   -24824.465   -882.71052    582.02947    95.124204    14.654874    27.760694 
   86200    239.63581   -204.00819    204420.41   -23118.483     1739.342   -24857.825   -186.05459    584.28343    95.123609    14.654528    27.756196 
   86400    235.08195    -244.7651    204420.41    -23201.09    1706.2889   -24907.379   -366.68731     588.1898    95.121434    14.655597    27.767213 
   86600    241.71838   -249.79444    204420.41   -23128.695    1754.4579   -24883.153   -408.25622     588.5665    95.119123    14.653994    27.789772 
   86800     234.0031   -408.77202    204420.41   -23210.775    1698.4582   -24909.233   -915.11277    588.91365    95.118031    14.655295    27.778202 
   87000    244.23046   -280.96759    204420.41   -23163.481    1772.6912   -24936.172   -481.27186    590.36757    95.119643    14.652714    27.766826 
   87200    242.66838   -350.03963    204420.41   -23118.186    1761.3532   -24879.539   -708.95523    591.00675    95.119659    14.651879      27.7618 
   87400    231.57882   -499.82058    204420.41   -23257.064    1680.8622   -24937.926   -1226.6045    592.57699    95.120016    14.650302    27.760244 
   87600    243.59476   -299.73899    204420.41   -23150.581    1768.0772   -24918.658   -541.96101    592.33411    95.119778    14.649733    27.752094 
   87800    245.92445   -239.76969    204420.41   -23185.776    1784.9867   -24970.763   -280.06574    593.49701     95.11953    14.649178     27.75336 
   88000    237.32873   -245.92997    204420.41   -23230.092    1722.5966   -24952.688   -376.56407    597.06926    95.118602    14.648105    27.721923 
   88200    238.82188   -446.88931    204420.41    -23224.21    1733.4343   -24957.644    -1023.674    598.05721    95.119248    14.647369    27.691247 
   88400    238.26311    -217.8116    204420.41    -23157.31    1729.3786   -24886.689   -237.75763     600.3775    95.119812    14.647052    27.696535 
   88600    235.64228   -292.88877    204420.41   -23230.751    1710.3559   -24941.107    -517.8232    604.07803    95.120742    14.647375    27.695724 
   88800    239.25719   -269.85324    204420.41     -23265.7    1736.5939   -25002.294   -413.98576    608.02679    95.119327    14.649768    27.698457 
   89000    237.63707   -423.81486    204420.41   -23217.118    1724.8346   -24941.953   -989.45602    608.15704    95.117564    14.651065    27.696046 
   89200    243.43433   -184.54128    204420.41   -23229.969    1766.9127   -24996.882   -104.43407    608.20428     95.11552    14.649339    27.701398 
   89400    248.52214   -355.72683    204420.41   -23189.085    1803.8414   -24992.927   -713.32676    608.33449    95.114717    14.648552    27.710415 
   89600    230.76603   -375.58261    204420.41   -23352.458    1674.9627   -25027.421   -784.70367    609.16924    95.114538    14.649871    27.707042 
   89800     243.8178   -260.63276    204420.41   -23217.998     1769.696   -24987.694   -368.22887    612.30978    95.114624    14.648984    27.720358 
   90000     243.4196    -98.84492    204420.41   -23233.842    1766.8058   -25000.648    174.38103    612.54712    95.113409    14.648696    27.707824 
   90200    239.41596   -257.02328    204420.41   -23288.155    1737.7463   -25025.902   -357.91376    614.52882    95.113625    14.652108    27.684068 
   90400    237.39072   -459.36898    204420.41   -23247.812    1723.0466   -24970.858   -1077.3276    615.52532    95.114835    14.653327     27.68246 
   90600    236.49156   -366.67271    204420.41   -23272.991    1716.5202   -24989.511   -758.38268    613.31786    95.116311    14.653006    27.675994 
   90800    237.91032   -334.66472    204420.41   -23265.192    1726.8179    -24992.01   -679.31403    613.30401    95.116793    14.654837    27.692251 
   91000    239.82006   -513.80992    204420.41    -23320.26    1740.6793   -25060.939   -1240.4862    616.59476    95.117358     14.65208    27.695049 
   91200     236.5209   -356.12643    204420.41   -23365.197    1716.7331    -25081.93    -734.7695    620.59901    95.120125    14.652268    27.670229 
   91400    240.21787   -485.01364    204420.41   -23286.744    1743.5668   -25030.311   -1174.9846    622.17101    95.122366    14.651799    27.672739 
   91600    244.18395   -239.82846    204420.41   -23190.247    1772.3537   -24962.601   -317.80783    622.54956    95.124156    14.648738    27.672287 
   91800    242.11601    -422.1772    204420.41   -23215.597     1757.344   -24972.941   -994.19061    622.69569    95.124332    14.646206    27.683528 
   92000    238.46599   -271.10092    204420.41   -23210.696    1730.8511   -24941.548   -442.47307    622.43063    95.123113    14.645288    27.698648 
   92200     243.3152   -205.43819    204420.41    -23218.65     1766.048   -24984.698   -174.91281    624.40381    95.120417    14.646192    27.701461 
   92400    240.20374   -450.31197    204420.41   -23204.931    1743.4642   -24948.395   -1086.4124    626.33437    95.120527    14.646728    27.716911 
   92600    247.57395    -303.5258    204420.41   -23187.857    1796.9592   -24984.816   -525.85022    625.87927    95.121362    14.644956    27.713279 
   92800    239.68838   -317.03252    204420.41   -23254.917    1739.7236   -24994.641   -615.54028    628.49044    95.121516    14.644367    27.728383 
   93000    239.15368   -270.81298    204420.41    -23281.45    1735.8426   -25017.292   -400.98464    632.81436    95.119893    14.644801    27.715219 
   93200    234.81515   -386.82803    204420.41   -23227.703    1704.3524   -24932.056    -830.7604    634.17137    95.118723    14.643322    27.705096 
   93400    236.35599   -462.14752    204420.41   -23332.953    1715.5362   -25048.489   -1102.1164    632.56649    95.118951    14.643837    27.699096 
   93600    234.63587   -307.44015    204420.41   -23304.784    1703.0511   -25007.835    -575.7969     632.5066    95.121687    14.644793    27.718056 
   93800    238.68278   -536.54534    204420.41   -23320.829    1732.4246   -25053.254   -1355.4815    633.66607    95.122974    14.644856    27.734118 
   94000    236.27398   -201.76081    204420.41   -23336.967    1714.9409   -25051.907    -176.9065    633.77839    95.124252    14.647922    27.729807 
   94200    244.10426   -148.00846    204420.41   -23222.574    1771.7752   -24994.349    14.300756    632.56798     95.12458    14.648712    27.728958 
   94400    238.35448   -494.33727    204420.41   -23249.696    1730.0417   -24979.738    -1208.227    634.29571    95.125281    14.649429    27.753129 
   94600    240.98084   -237.42428    204420.41   -23242.543    1749.1046   -24991.648   -301.47367    635.71692    95.126578    14.646017     27.75508 
   94800    239.62451    -219.7141    204420.41   -23227.369      1739.26   -24966.629   -208.51599    639.01792    95.125895    14.646158    27.765531 
   95000    239.27223   -224.26914    204420.41   -23279.981     1736.703   -25016.684   -232.65193    642.76506    95.123962    14.646291    27.758525 
   95200    241.07109   -313.01653    204420.41   -23249.705    1749.7597   -24999.465   -585.72108    641.63626    95.122316     14.64571    27.762192 
   95400    241.15051   -422.79686    204420.41   -23210.251    1750.3361   -24960.587    -985.9755    641.19778    95.123664    14.648088     27.75843 
   95600    237.45898   -410.05318    204420.41   -23215.938     1723.542    -24939.48    -936.0739    640.31548    95.124553    14.649294    27.768922 
   95800    239.73399   -391.46925    204420.41   -23222.218    1740.0546   -24962.272   -853.68232    643.40649    95.124645    14.648272    27.765819 
   96000    247.50574   -537.46938    204420.41   -23201.792    1796.4641   -24998.257   -1357.9607    645.10728    95.124489    14.649165    27.777692 
   96200     237.8374   -322.00545    204420.41   -23134.299    1726.2887   -24860.588   -613.56271    647.93148    95.124575    14.649324    27.794381 
   96400    238.94438   -280.67851    204420.41   -23194.888    1734.3234   -24929.211   -473.61534    647.20718    95.125331    14.649602     27.80453 
   96600    240.80672   -335.05423    204420.41   -23216.907    1747.8408   -24964.748   -619.62467    648.39573    95.125226    14.650428    27.821298 
   96800    245.58533   -266.30057    204420.41   -23191.237    1782.5252   -24973.762    -386.9928    648.88597    95.123864    14.649613    27.810183 
   97000    235.92006   -224.34888    204420.41   -23270.419     1712.372   -24982.791   -244.19407     649.3697     95.12278    14.651328    27.821382 
   97200    239.31275   -306.79893    204420.41    -23266.63    1736.9972   -25003.627   -551.86082    650.12543    95.122177    14.651566    27.821103 
   97400    244.45113   -128.88998    204420.41     -23257.1    1774.2929   -25031.393    40.472153    648.44578    95.121963    14.648733    27.798459 
   97600    243.07614   -453.77859    204420.41   -23201.783    1764.3129   -24966.096    -1046.849    650.27397    95.121535    14.647241    27.797057 
   97800    249.03006   -336.19615    204420.41   -23219.895     1807.528   -25027.423   -608.67525    650.01866    95.122152    14.645073    27.790483 
   98000    234.75293   -479.52112    204420.41   -23244.229    1703.9007    -24948.13   -1162.6587    649.95143    95.122115    14.642657    27.794163 
   98200    235.89656   -320.93143    204420.41   -23244.427    1712.2015   -24956.628   -600.77763    647.94659    95.123133    14.641299    27.804396 
   98400    243.30198   -445.45759    204420.41   -23175.697    1765.9521    -24941.65   -1048.2846    650.87896    95.122743    14.641646    27.795681 
   98600    234.07888   -496.49641    204420.41   -23227.206    1699.0083   -24926.215   -1225.5962    653.10094    95.121806    14.642609    27.804888 
   98800    243.58614   -353.20914    204420.41   -23214.109    1768.0146   -24982.124   -692.68153    653.37276     95.12076    14.641864    27.822536 
   99000    235.99988   -294.79807    204420.41   -23302.046    1712.9514   -25014.998   -524.34843    655.37197    95.119169    14.641412    27.815578 
   99200    244.12741   -250.42221    204420.41   -23271.212    1771.9433   -25043.155   -382.91191    655.78534    95.119207     14.64027     27.80802 
   99400    247.05027   -398.60668    204420.41   -23264.814    1793.1582   -25057.972   -863.20819    653.46466    95.117151    14.638362    27.809187 
   99600    235.20037   -397.58378    204420.41   -23258.991    1707.1484   -24966.139   -859.92454    651.65564    95.118441    14.638482    27.794415 
   99800    242.64729   -114.07694    204420.41   -23282.756    1761.2001   -25043.956    126.00371    653.65286     95.11992    14.639647    27.808344 
  100000     246.1143    -239.6779    204420.41   -23311.514    1786.3646   -25097.878    -334.7892    652.63205    95.122006    14.638788     27.80308 
  100200    237.83483   -398.39208    204420.41   -23346.599      1726.27   -25072.869   -895.05213    653.73435    95.121657    14.636283    27.823922 
  100400    238.95381   -360.13752    204420.41   -23242.964    1734.3918   -24977.355   -759.49014    655.27982    95.123803    14.636066    27.803953 
  100600    237.78083   -307.83736    204420.41   -23225.288     1725.878   -24951.166   -529.41241    657.13443    95.125093    14.635995    27.797345 
  100800    235.93939   -362.33367    204420.41   -23287.704    1712.5124   -25000.216   -703.82311    656.78762     95.12252    14.637676    27.790687 
[...]
 5175800    227.46658   -17.396386    204420.41   -25736.803    1651.0144   -27387.818    522.86347    8211.2591    95.347782    15.253837     29.38998 
 5176000    220.88374   -203.74236    204420.41    -25756.14    1603.2344   -27359.374   -164.90717    8207.7279    95.348083     15.25394    29.381375 
 5176200    228.36701   -34.960239    204420.41   -25780.615      1657.55   -27438.165    454.53666     8206.947    95.347451    15.253696    29.384209 
 5176400    228.96627   -211.35796    204420.41   -25710.551    1661.8996    -27372.45   -179.64266    8217.2733    95.347902    15.253524    29.381671 
 5176600    231.20992    -6.524382    204420.41   -25644.872    1678.1846   -27323.056    542.91882    8205.9819    95.348305    15.253956    29.381809 
 5176800    230.55338    -155.6573    204420.41   -25705.378    1673.4192   -27378.797    13.161066    8213.6932    95.348517    15.254251    29.377543 
 5177000    231.43759   -64.960683    204420.41   -25681.969    1679.8371   -27361.806    321.26479    8212.4061    95.349572    15.253428    29.386589 
 5177200    235.24722   -46.288228    204420.41   -25648.218    1707.4884   -27355.706    424.90135    8205.2638    95.349307    15.253786    29.379039 
 5177400    235.85608   -50.719322    204420.41   -25616.116    1711.9077   -27328.023    353.81943    8209.7227    95.349119    15.253373    29.374422 
 5177600    232.52219   -197.87048    204420.41   -25710.099    1687.7094   -27397.808   -115.09696    8217.1517    95.348509    15.252257    29.379087 
 5177800    226.98177   -97.635266    204420.41   -25733.432    1647.4955   -27380.928    182.68936    8211.2421    95.349455    15.252484    29.379119 
 5178000    223.99501   -92.096122    204420.41   -25724.084    1625.8168   -27349.901    238.29117    8210.1935    95.349196    15.252214    29.369867 
 5178200    226.31245   -151.26079    204420.41   -25721.882    1642.6375    -27364.52    21.677174    8218.9451    95.349774    15.251505     29.38058 
 5178400    222.95242   -108.51221    204420.41   -25729.962    1618.2494   -27348.211    187.82289      8210.44     95.35056    15.250261    29.378833 
 5178600    230.05034   -65.197516    204420.41   -25701.479     1669.768   -27371.247    320.79341    8203.3042    95.350462    15.250356     29.37646 
 5178800    230.41892   -117.13007    204420.41   -25700.732    1672.4433   -27373.175    170.15432    8214.7911    95.351414    15.249943    29.383228 
 5179000    229.00686   -103.12231    204420.41    -25727.67    1662.1942   -27389.864    197.60316    8219.1428    95.351157    15.250555    29.387603 
 5179200    226.10144   -132.70999    204420.41    -25724.62    1641.1059   -27365.726    120.46725    8210.5246    95.350127    15.250322    29.379341 
 5179400     233.0489   -97.723004    204420.41     -25668.9    1691.5324   -27360.433    202.52526    8210.9778    95.351149    15.250607    29.379336 
 5179600    226.90343   -177.94788    204420.41   -25735.926    1646.9269   -27382.853   -73.118605    8214.4483    95.351054    15.250255    29.382187 
 5179800    227.02737   -125.05835    204420.41   -25723.661    1647.8265   -27371.487    114.41121    8207.0871    95.350632    15.249244    29.381799 
 5180000    220.41318   -63.288861    204420.41   -25816.475    1599.8189   -27416.293    362.06037    8207.8026    95.351067    15.249224    29.381125 
 5180200    220.12955   -136.94296    204420.41   -25790.377    1597.7602   -27388.137    79.984208    8215.7979    95.350468    15.249402    29.386164 
 5180400      226.386   -82.517662    204420.41   -25710.974    1643.1712   -27354.145    277.21667     8218.165    95.351542    15.248354    29.379781 
 5180600    225.55328   -155.56611    204420.41   -25711.899    1637.1272   -27349.026    14.302879    8211.5115    95.352613    15.249183    29.375774 
 5180800    224.62651   -108.19633    204420.41   -25742.971    1630.4004   -27373.371    154.52056    8206.9052    95.352876    15.250085    29.374045 
 5181000    224.49386   -170.29967    204420.41   -25795.737    1629.4376   -27425.175    -49.71263    8214.7649    95.352575    15.249698    29.380778 
 5181200    222.93034   -78.942148    204420.41   -25760.872    1618.0891   -27378.961    283.68146    8218.2718    95.352513    15.249234    29.388182 
 5181400    230.58174    -84.50296    204420.41   -25678.089    1673.6251   -27351.714    267.05882    8211.1294    95.353029    15.249452    29.380229 
 5181600    220.92631   -143.90171    204420.41   -25791.876    1603.5433   -27395.419    36.552337    8215.0733    95.353592    15.248968    29.380247 
 5181800    225.62612   -156.05878    204420.41   -25685.427    1637.6558   -27323.083    9.0823718    8209.1683    95.354399    15.248494    29.385441 
 5182000    227.79124   -196.54811    204420.41    -25714.64    1653.3709   -27368.011   -160.05877     8210.979    95.355104    15.248502    29.386864 
 5182200    226.77544   -31.837871    204420.41   -25677.156    1645.9979   -27323.154    474.47542    8209.0874    95.355345    15.250259    29.378117 
 5182400    225.52002   -224.61211    204420.41    -25754.47    1636.8858   -27391.356   -240.97122    8217.1907    95.356087    15.250545    29.377971 
 5182600     230.1377   -85.994295    204420.41   -25726.523    1670.4022   -27396.925    249.53811    8212.3297    95.355371    15.250054    29.382416 
 5182800    225.72515   -184.68427    204420.41   -25696.073    1638.3747   -27334.448   -122.22647    8211.1136    95.353701    15.249838    29.382604 
 5183000    230.15884   -51.205664    204420.41   -25661.892    1670.5556   -27332.447    347.25404    8209.5617    95.353026    15.248414    29.385185 
 5183200    230.39592   -61.350907    204420.41   -25688.374    1672.2764    -27360.65    319.01511    8209.1631    95.351814    15.247685    29.377633 
 5183400    220.40642   -82.971305    204420.41   -25812.502    1599.7698   -27412.272    275.26254    8217.4215     95.35104    15.248197    29.374068 
 5183600    221.61823   -149.75483    204420.41   -25789.192    1608.5655   -27397.757    27.801994    8217.7888    95.350663     15.24825    29.387914 
 5183800    223.81849      25.6593    204420.41   -25773.803    1624.5356   -27398.339    662.90475    8207.0504    95.350597    15.247562    29.385111 
 5184000    227.04286   -238.21901    204420.41   -25688.529    1647.9389   -27336.468   -268.78836    8211.0035    95.350125    15.247915    29.378533 
 5184200     227.9389   -80.545502    204420.41   -25712.633    1654.4427   -27367.075    282.68029    8206.9885    95.350224    15.248196    29.380014 
 5184400    227.33667   -70.081861    204420.41   -25692.416    1650.0715   -27342.487    301.87237    8215.3841    95.350196    15.247532    29.384089 
 5184600    223.86783   -133.37266    204420.41   -25737.901    1624.8937   -27362.795    97.201811    8219.1088    95.351293    15.247869        29.38 
 5184800    233.72736   -108.25923    204420.41   -25719.248    1696.4569   -27415.705    159.21782    8212.7596     95.35136    15.247911    29.380938 
 5185000    227.35814   -96.755894    204420.41   -25715.717    1650.2273   -27365.944     246.2189    8208.7198    95.350476    15.247591    29.379848 
 5185200    218.65891   -153.25953    204420.41   -25777.697    1587.0859   -27364.783   -11.844829    8208.3364    95.349734    15.245657    29.380647 
 5185400    228.54264   -86.784065    204420.41   -25720.112    1658.8248   -27378.937    291.43838    8210.4826     95.34974    15.245719    29.377715 
 5185600    229.53193   -105.74362    204420.41   -25710.221    1666.0053   -27376.226    190.54482    8217.8786    95.349739    15.246111    29.379742 
 5185800    233.14988   -24.046399    204420.41    -25683.04    1692.2653   -27375.306    450.93321     8213.186    95.349871    15.246144    29.380638 
 5186000    231.89519   -98.152246    204420.41   -25691.076    1683.1585   -27374.234    223.84635    8204.9067    95.350999    15.244918    29.376875 
 5186200     227.6803   -124.88593    204420.41   -25669.199    1652.5657   -27321.765    92.811911    8211.3685    95.351846    15.245195    29.381063 
 5186400     233.8104   -183.26238    204420.41   -25716.046    1697.0596   -27413.105   -91.756674    8215.0572    95.352248    15.244697    29.380137 
 5186600    225.94596   -153.52295    204420.41   -25709.433    1639.9773    -27349.41     25.39519    8212.8683    95.352402    15.245606    29.380827 
 5186800    231.32389   -138.84585    204420.41   -25715.757    1679.0118   -27394.769    69.170963    8213.5894    95.352399    15.246287    29.378175 
 5187000    224.98469   -82.351636    204420.41    -25691.77    1633.0002   -27324.771    271.74631    8212.5791    95.352673    15.246241    29.380148 
 5187200    228.12884   -57.417453    204420.41   -25732.376    1655.8213   -27388.197    368.68674    8216.3885    95.352311    15.246635    29.383268 
 5187400    227.79368    -79.15373    204420.41   -25760.824    1653.3886   -27414.212    290.41971     8217.137    95.352903     15.24728    29.388477 
 5187600    232.95855   -13.281331    204420.41   -25678.262    1690.8767   -27369.139    510.12032    8212.7549    95.353254     15.24659    29.390536 
 5187800      227.846      -287.55    204420.41   -25727.283    1653.7684   -27381.051   -455.19028    8221.1784    95.352675    15.246647    29.390584 
 5188000    230.11782   -4.0293458    204420.41   -25671.751    1670.2578   -27342.009    515.20219    8208.3703    95.352548    15.247195    29.383793 
 5188200    230.02702   -205.85319    204420.41   -25709.132    1669.5988   -27378.731   -149.31515    8219.1089    95.352294    15.247558     29.38404 
 5188400    223.36608   -161.40235    204420.41   -25706.149    1621.2519   -27327.401   -15.146178     8219.475    95.352922    15.247559    29.389769 
 5188600     227.7234    13.073964    204420.41    -25741.27    1652.8785   -27394.149    595.26007    8206.8598    95.352662    15.247621    29.378054 
 5188800    227.66262   -306.37613    204420.41   -25772.259    1652.4373   -27424.697   -497.89981    8216.9676    95.352934    15.247475    29.380068 
 5189000    230.24826   -5.8181318    204420.41   -25735.855    1671.2046    -27407.06    556.90474      8208.99     95.35241    15.246823    29.386555 
 5189200    219.29917   -146.44632    204420.41   -25840.102    1591.7331   -27431.835    55.290164    8212.9995    95.352937    15.247738    29.381241 
 5189400    222.39217   -75.632063    204420.41   -25782.417     1614.183     -27396.6    260.08546    8214.3332    95.353368    15.248768    29.379047 
 5189600    228.30248   -111.79656    204420.41   -25702.207    1657.0816   -27359.289    183.78017    8214.1611    95.354214    15.248047    29.371022 
 5189800    231.62461   -69.121072    204420.41   -25735.834    1681.1946   -27417.029     343.4974    8215.8136    95.354303    15.249392    29.383762 
 5190000    224.73136   -24.921848    204420.41   -25727.303    1631.1614   -27358.465     476.8405    8213.2819    95.354212    15.250212    29.382026 
 5190200    221.35344   -214.71194    204420.41   -25750.403    1606.6436   -27357.047   -205.61328    8215.4948    95.354351    15.251098    29.382034 
 5190400    229.27469   -28.873555    204420.41   -25649.712    1664.1381    -27313.85     455.4086    8216.6761    95.354327    15.251237    29.387136 
 5190600    223.57194   -155.85104    204420.41   -25730.389    1622.7461   -27353.135   -5.7913212    8213.8839    95.354092    15.252225    29.377341 
 5190800    233.22496   -141.98997    204420.41   -25701.032    1692.8103   -27393.842    67.495539    8215.5598    95.353647      15.2535    29.384287 
 5191000    225.93642   -56.696364    204420.41   -25726.467    1639.9081   -27366.375    328.06353     8209.218    95.353599    15.253236     29.38563 
 5191200    230.40054   -53.210037    204420.41   -25722.313    1672.3099   -27394.623    435.00097    8212.3022    95.354542    15.252714    29.377335 
 5191400    230.77758   -236.56029    204420.41   -25698.392    1675.0465   -27373.438   -275.88313    8225.0644    95.354704    15.252517     29.38382 
 5191600    225.18567    72.882013    204420.41   -25723.776    1634.4589   -27358.235    802.79047    8207.6182    95.354603    15.252589    29.376204 
 5191800    223.39417   -279.85883    204420.41   -25658.518    1621.4558   -27279.974   -408.77111    8212.5477     95.35478    15.251781     29.37825 
 5192000    230.48876   -88.627746    204420.41   -25653.535    1672.9502   -27326.486    230.67577    8207.4912    95.355519    15.251875    29.382678 
 5192200    223.64084    -147.4913    204420.41   -25716.063    1623.2461    -27339.31    74.763338    8213.6378    95.355754    15.252082    29.380231 
 5192400     222.1746   -75.767126    204420.41   -25714.474    1612.6038   -27327.078    323.85609     8215.913    95.355602    15.251712    29.391694 
 5192600    222.97296   -102.23059    204420.41    -25743.11    1618.3985   -27361.509     203.1423    8210.7647    95.355148    15.251922    29.380099 
 5192800    227.20473   -115.17036    204420.41   -25697.562    1649.1139   -27346.676    154.92905    8205.0697    95.355092     15.25182    29.379578 
 5193000    222.11974    -124.2872    204420.41   -25758.989    1612.2056   -27371.195    150.86989    8210.8601    95.354525    15.250459    29.376682 
 5193200     225.7461   -187.99304    204420.41   -25702.669    1638.5267   -27341.195   -75.436845    8212.8297     95.35497    15.249906    29.384197 
 5193400    224.86534    45.780796    204420.41   -25700.595    1632.1339   -27332.729    693.79431    8212.0436    95.355857    15.249358    29.383419 
 5193600    231.29637   -267.64317    204420.41   -25691.752    1678.8121   -27370.564   -356.43879     8215.303    95.356008    15.248538    29.392925 
 5193800    233.04593   0.90654105    204420.41   -25716.783    1691.5109   -27408.293    557.94735    8207.2024    95.356297    15.247908    29.381307 
 5194000    218.08942   -197.55869    204420.41   -25827.588    1582.9525    -27410.54   -105.94843    8215.2742    95.356222    15.247935    29.382061 
 5194200    224.34556   -57.574931    204420.41   -25763.692    1628.3612   -27392.053    338.67669    8217.5174    95.355983    15.248215    29.385616 
 5194400    228.92178   -115.60768    204420.41    -25710.54    1661.5766   -27372.116    137.40422    8213.6704    95.356392    15.247859    29.380837 
 5194600    228.69481   -141.62845    204420.41    -25678.42    1659.9293   -27338.349    61.603184    8212.0746    95.356009    15.247903    29.382019 
 5194800    228.44003   -155.74569    204420.41   -25701.943      1658.08   -27360.023    21.084725    8210.0429    95.355856    15.248485    29.382718 
 5195000    224.14132   -82.165996    204420.41   -25711.719    1626.8788   -27338.598    268.96749     8212.829    95.355391    15.248064    29.376074 
 5195200    227.62432   -150.61897    204420.41   -25701.577    1652.1593   -27353.737    20.126309     8216.773    95.355914    15.249507    29.373045 
 5195400    229.84404   -70.071855    204420.41   -25707.101    1668.2707   -27375.372    343.67114    8215.4736    95.356733    15.249258    29.379995 
 5195600    222.35033   -76.378012    204420.41   -25752.563    1613.8793   -27366.442    276.96412     8207.677    95.356393    15.248768    29.376223 
 5195800    228.40531   -188.51117    204420.41   -25642.521     1657.828   -27300.349   -98.560403    8212.3108    95.356404    15.249406    29.378672 
 5196000    227.69342   -74.907389    204420.41   -25715.362    1652.6609   -27368.023    285.46396    8211.3516    95.356319    15.248934    29.380231 
 5196200    228.69046     -63.9579    204420.41   -25719.518    1659.8976   -27379.416    363.09173    8212.8597    95.356943     15.24922    29.377283 
 5196400    225.66818   -159.61945    204420.41   -25708.402    1637.9611   -27346.363     31.53118    8216.3214    95.357353    15.249524    29.383657 
 5196600    230.67385   -74.247758    204420.41   -25695.982    1674.2937   -27370.275    267.98904    8205.8135    95.357896    15.249605    29.377259 
 5196800    226.97459    -107.9315    204420.41    -25696.07    1647.4434   -27343.514    176.61182    8212.4288    95.357941    15.249179    29.377386 
 5197000    232.49311   -188.96916    204420.41   -25646.346    1687.4984   -27333.845   -101.86641    8220.8481    95.357572    15.248518    29.386524 
 5197200    229.12131   -62.394102    204420.41   -25740.565    1663.0249    -27403.59    306.87615    8208.8739    95.357165    15.249207     29.38217 
 5197400    225.67221   -120.43676    204420.41   -25737.854    1637.9904   -27375.845    176.93108    8213.8094    95.355884    15.249389    29.375707 
 5197600    218.93466    -161.9669    204420.41   -25774.133    1589.0874   -27363.221   -25.374456    8212.0153    95.356604    15.250049     29.38542 
 5197800    217.60417   -119.62153    204420.41   -25796.227    1579.4304   -27375.657    127.89451    8210.5382    95.357575    15.251222    29.380506 
 5198000    229.09278   -64.000896    204420.41   -25676.577    1662.8178   -27339.395    294.23748    8215.5698     95.35825    15.251259    29.382546 
 5198200     233.8219   -164.76099    204420.41   -25693.808    1697.1431   -27390.951    24.772346    8218.6936    95.358858    15.251575    29.381735 
 5198400    227.68662   -76.328923    204420.41   -25751.148    1652.6115    -27403.76    265.77077    8208.2077    95.358877    15.252255    29.381312 
 5198600     230.4117   -73.213985    204420.41   -25795.046    1672.3909   -27467.437    324.62315    8207.3371    95.359427    15.252664      29.3744 
 5198800    227.33175   -255.96306    204420.41   -25716.872    1650.0358   -27366.908   -325.46353    8217.3506    95.359455     15.25275    29.389161 
 5199000    229.78433   -13.315127    204420.41    -25668.68    1667.8373   -27336.518    531.46747    8213.4577    95.358659    15.253096     29.38575 
 5199200    229.52771   -162.84165    204420.41   -25728.984    1665.9747   -27394.959   -2.5321116    8218.1194    95.358809    15.252143     29.38274 
 5199400    221.78024   -107.72857    204420.41   -25712.784    1609.7414   -27322.525    205.20925    8213.4182    95.359578    15.252657    29.385586 
 5199600    231.79742   -191.81759    204420.41   -25695.905    1682.4489   -27378.354   -112.57397    8209.1628    95.359035    15.250723    29.381623 
 5199800    229.12229   -51.962013    204420.41   -25725.705     1663.032   -27388.737    375.71388    8205.9415    95.358684    15.250914    29.375939 
 5200000    231.55735   -207.11511    204420.41   -25673.177    1680.7064   -27353.884   -160.49335    8222.7664    95.357797    15.252524     29.38183 
Loop time of 6542.11 on 160 procs for 5200000 steps with 8482 atoms

Performance: 686.751 ns/day, 0.035 hours/ns, 794.850 timesteps/s
98.0% CPU use with 160 MPI tasks x no OpenMP threads

MPI task timing breakdown:
Section |  min time  |  avg time  |  max time  |%varavg| %total
---------------------------------------------------------------
Pair    | 0.23876    | 1689.5     | 5103.1     |4423.5 | 25.82
Neigh   | 0.3137     | 89.607     | 377.06     |1107.9 |  1.37
Comm    | 8.8009     | 1756.7     | 5354.7     |4181.5 | 26.85
Output  | 80.922     | 81         | 82.933     |   1.7 |  1.24
Modify  | 369.44     | 2841.3     | 6374.4     |4648.5 | 43.43
Other   |            | 84         |            |       |  1.28

Nlocal:    53.0125 ave 164 max 0 min
Histogram: 58 14 47 1 0 0 0 5 5 30
Nghost:    544.175 ave 883 max 0 min
Histogram: 20 0 4 2 12 35 18 16 29 24
Neighs:    0 ave 0 max 0 min
Histogram: 160 0 0 0 0 0 0 0 0 0
FullNghs:  5335.77 ave 20618 max 0 min
Histogram: 95 25 0 0 0 0 0 5 14 21

Total # of neighbors = 853724
Ave neighs/atom = 100.651
Neighbor list builds = 551786
Dangerous builds = 0
write_data 		${DIR}/data.${NAME}_run
write_data 		run_15/data.${NAME}_run
write_data 		run_15/data.ibeam_cooling_15_run
Total wall time: 1:49:16
