
### Dimensions ###


### IMPORT ATOMS ###
read_data ../Box_Setup/data.Ibeam_240K
Reading data file ...
  orthogonal box = (0.0000000 0.0000000 0.0000000) to (68.908000 85.848302 27.975384)
  8 by 8 by 2 MPI processor grid
  reading atoms ...
  8493 atoms
  reading velocities ...
  8493 velocities
  read_data CPU = 0.019 seconds
group water type 2
1689 atoms in group water
group graphite type 1
6804 atoms in group graphite


# Define potential
#
pair_style          sw
pair_coeff * * MLC_e.sw C mW

# Add velocity/set timestep
#

fix		1 graphite setforce 0.0 0.0 0.0
velocity 	graphite set 0.0 0.0 0.0
velocity            water create ${START_TEMP} ${SEED} rot yes dist gaussian
velocity            water create 240 ${SEED} rot yes dist gaussian
velocity            water create 240 27209 rot yes dist gaussian
timestep            5.0

# Define output
#
compute 1 water msd
compute 2 water temp


thermo	            100
thermo_style custom step c_2 press vol etotal ke pe c_1[4] density

# Neighbor lists
#
neigh_modify        delay 0 every 1 check yes


# Set fixes
#
fix                 2 water momentum 10 linear 1 1 1 rescale
fix		3 water nvt temp ${START_TEMP} ${START_TEMP} $(100.0*dt)
fix		3 water nvt temp 240 ${START_TEMP} $(100.0*dt)
fix		3 water nvt temp 240 240 $(100.0*dt)
fix		3 water nvt temp 240 240 500

# Run 0.05 ns equilibration
#
dump                1 all custom 100 ${DIR}/eq.${NAME}.dump id type x y z vx vy vz
dump                1 all custom 100 run_10/eq.${NAME}.dump id type x y z vx vy vz
dump                1 all custom 100 run_10/eq.ibeam_cooling_10.dump id type x y z vx vy vz
run                 10000
Neighbor list info ...
  update every 1 steps, delay 0 steps, check yes
  max neighbors/atom: 2000, page size: 100000
  master list distance cutoff = 6.6747184
  ghost atom cutoff = 6.6747184
  binsize = 3.3373592, bins = 21 26 9
  1 neighbor lists, perpetual/occasional/extra = 1 0 0
  (1) pair sw, perpetual
      attributes: full, newton on
      pair build: full/bin/atomonly
      stencil: full/bin/3d
      bin: standard
Per MPI rank memory allocation (min/avg/max) = 3.603 | 4.507 | 4.728 Mbytes
Step c_2 Press Volume TotEng KinEng PotEng c_1[4] Density 
       0          240   -298.97748    165492.15   -16025.669    1207.5858   -17233.255            0    1.1252403 
     100    242.02185   -679.62582    165492.15   -16048.382    1217.7589   -17266.141   0.90844077    1.1252403 
     200    231.14141   -385.98967    165492.15   -16100.162    1163.0128   -17263.175    1.3331842    1.1252403 
     300    236.33519   -464.48627    165492.15   -16111.507    1189.1459   -17300.653    1.7935413    1.1252403 
     400    233.78353      -443.01    165492.15   -16088.556    1176.3069   -17264.863    2.2334362    1.1252403 
     500    240.87808   -352.64645    165492.15   -16052.548    1212.0039   -17264.552    2.8207377    1.1252403 
     600    238.39661   -467.31375    165492.15   -16043.322    1199.5182    -17242.84    3.3026322    1.1252403 
     700    239.89176   -599.00472    165492.15    -16063.61    1207.0411   -17270.651    3.7494315    1.1252403 
     800    242.96537   -482.73107    165492.15   -16116.212    1222.5064   -17338.718    4.1853569    1.1252403 
     900      231.118   -428.03314    165492.15   -16154.644     1162.895   -17317.539    4.5348023    1.1252403 
    1000    234.21849   -393.88633    165492.15   -16122.706    1178.4955   -17301.202    4.9651706    1.1252403 
    1100    235.12093    -345.1841    165492.15   -16080.622    1183.0362   -17263.658    5.4013679    1.1252403 
    1200    236.54288   -557.12699    165492.15    -16055.01    1190.1909   -17245.201    5.8873497    1.1252403 
    1300    241.94871   -589.55267    165492.15   -16032.701    1217.3909   -17250.091    6.1789542    1.1252403 
    1400    246.38234    -257.4345    165492.15   -16029.467    1239.6992   -17269.167    6.3809635    1.1252403 
    1500     237.0106   -506.22198    165492.15   -16085.347    1192.5443   -17277.891    6.8260596    1.1252403 
    1600     233.9735   -322.90459    165492.15   -16112.223    1177.2628   -17289.485    7.0354309    1.1252403 
    1700    232.76135   -470.74812    165492.15   -16099.336    1171.1637   -17270.499    7.2279885    1.1252403 
    1800    235.34466   -620.49675    165492.15   -16052.358    1184.1619    -17236.52    7.5461417    1.1252403 
    1900    245.77827   -558.20566    165492.15   -16017.387    1236.6597   -17254.047    7.7903754    1.1252403 
    2000    247.88232   -466.44655    165492.15   -16024.982    1247.2465   -17272.228    8.2220559    1.1252403 
    2100    233.42508   -455.72691    165492.15   -16053.926    1174.5034    -17228.43      8.82273    1.1252403 
    2200    229.58849   -452.90127    165492.15   -16074.439    1155.1991   -17229.638    9.0851791    1.1252403 
    2300    250.54871   -498.13551    165492.15   -16041.246    1260.6627   -17301.909    9.2859958    1.1252403 
    2400    252.98159   -332.96405    165492.15   -15990.224     1272.904   -17263.128    9.7569264    1.1252403 
    2500    244.46234   -582.84194    165492.15    -15997.98    1230.0385   -17228.019    10.382786    1.1252403 
    2600    239.36773   -325.83998    165492.15   -16036.057    1204.4044   -17240.461    10.914985    1.1252403 
    2700    240.23006   -480.85487    165492.15   -16058.794    1208.7434   -17267.537     11.18783    1.1252403 
    2800    239.02538    -415.1966    165492.15    -16058.31    1202.6819   -17260.991    11.658817    1.1252403 
    2900    236.43837   -623.56988    165492.15   -16056.816     1189.665   -17246.481     12.26264    1.1252403 
    3000     237.4945   -450.31267    165492.15   -16036.919    1194.9791   -17231.898    12.569775    1.1252403 
    3100    241.26164   -512.70202    165492.15   -15989.439    1213.9338   -17203.373    12.901054    1.1252403 
    3200    248.08965   -331.88803    165492.15   -15987.769    1248.2897   -17236.058    13.300991    1.1252403 
    3300    240.78985   -324.00822    165492.15   -16068.434      1211.56   -17279.994    13.560863    1.1252403 
    3400    236.40501   -405.08891    165492.15    -16094.73    1189.4972   -17284.227    14.037836    1.1252403 
    3500    236.10307   -588.25296    165492.15   -16120.079     1187.978   -17308.057    14.244687    1.1252403 
    3600    236.06233   -498.60146    165492.15   -16141.948     1187.773   -17329.721     14.65154    1.1252403 
    3700    235.08477   -525.92511    165492.15   -16123.568    1182.8542   -17306.423    14.944469    1.1252403 
    3800    248.67854   -468.08973    165492.15   -16062.607    1251.2528    -17313.86    15.378702    1.1252403 
    3900    245.07488   -393.91911    165492.15   -16054.285    1233.1205   -17287.406    15.662491    1.1252403 
    4000    232.38138   -551.59421    165492.15   -16065.628    1169.2519   -17234.879    16.429595    1.1252403 
    4100    243.30966   -268.23171    165492.15   -16058.898    1224.2387   -17283.137    16.282155    1.1252403 
    4200    244.01119   -555.54778    165492.15   -16059.943    1227.7685   -17287.712    16.698007    1.1252403 
    4300     241.8815   -609.26144    165492.15   -16103.952    1217.0527   -17321.005    17.074934    1.1252403 
    4400    241.81197   -387.60605    165492.15   -16138.541    1216.7029   -17355.244    17.341545    1.1252403 
    4500      236.508   -443.26877    165492.15   -16154.417    1190.0154   -17344.433    17.684343    1.1252403 
    4600    232.19099   -358.82383    165492.15   -16143.199    1168.2939   -17311.493    17.778887    1.1252403 
    4700    244.33642   -482.23074    165492.15   -16072.942    1229.4049   -17302.347    18.026546    1.1252403 
    4800    243.56279   -312.87455    165492.15   -16067.448    1225.5123    -17292.96    18.243383    1.1252403 
    4900    233.54514   -518.79613    165492.15   -16098.955    1175.1074   -17274.062      18.8961    1.1252403 
    5000    238.26257   -542.83203    165492.15    -16116.61    1198.8437   -17315.453     19.14167    1.1252403 
    5100    236.17786   -509.10314    165492.15   -16111.418    1188.3543   -17299.773    19.450601    1.1252403 
    5200    239.20554   -462.08483    165492.15   -16089.554    1203.5883   -17293.143    19.500796    1.1252403 
    5300    237.43356   -414.26473    165492.15   -16066.157    1194.6725   -17260.829    19.915326    1.1252403 
    5400    251.21028   -664.35081    165492.15   -16045.067    1263.9915   -17309.059    20.539082    1.1252403 
    5500    243.79617   -435.81512    165492.15   -16064.865    1226.6866   -17291.552    20.746397    1.1252403 
    5600    236.18642    -561.3283    165492.15    -16122.71    1188.3974   -17311.108    21.183585    1.1252403 
    5700    235.07884   -441.38817    165492.15    -16137.87    1182.8244   -17320.694    21.223004    1.1252403 
    5800    237.55031   -304.18094    165492.15   -16115.346    1195.2599   -17310.606    21.314626    1.1252403 
    5900    244.23176   -626.34374    165492.15    -16096.67    1228.8783   -17325.549    21.597237    1.1252403 
    6000    247.76334   -180.15152    165492.15   -16075.845    1246.6478   -17322.493    22.088977    1.1252403 
    6100    246.14006   -361.82061    165492.15   -16081.305    1238.4802   -17319.785    22.484938    1.1252403 
    6200    240.36009   -438.64991    165492.15   -16102.142    1209.3976   -17311.539    23.049691    1.1252403 
    6300    240.77363    -543.2501    165492.15   -16129.953    1211.4784   -17341.431    23.158797    1.1252403 
    6400    234.42217   -443.54886    165492.15   -16155.301    1179.5203   -17334.822    23.199511    1.1252403 
    6500    234.76647   -413.44313    165492.15    -16176.39    1181.2527   -17357.643    23.132346    1.1252403 
    6600    236.04909   -502.62336    165492.15    -16150.17    1187.7063   -17337.876    23.441348    1.1252403 
    6700    239.77153   -542.88048    165492.15   -16095.936    1206.4362   -17302.372    23.705183    1.1252403 
    6800    241.74241   -486.94734    165492.15   -16084.331    1216.3529   -17300.684    23.969943    1.1252403 
    6900    239.56984   -522.21536    165492.15    -16097.22    1205.4214   -17302.642    24.307036    1.1252403 
    7000    236.07382   -542.45589    165492.15   -16151.036    1187.8308   -17338.867    24.781522    1.1252403 
    7100    239.92302   -443.01537    165492.15   -16183.366    1207.1984   -17390.565    24.592713    1.1252403 
    7200    233.57524   -351.02603    165492.15    -16169.69    1175.2589   -17344.949    24.652942    1.1252403 
    7300      238.045   -428.91985    165492.15   -16143.652     1197.749   -17341.401    24.897015    1.1252403 
    7400    232.61355   -471.77211    165492.15   -16128.829      1170.42   -17299.249      25.4464    1.1252403 
    7500    238.79431   -373.89014    165492.15   -16123.873    1201.5192   -17325.392    25.729801    1.1252403 
    7600    242.88781   -498.66237    165492.15   -16132.357    1222.1161   -17354.473    25.990491    1.1252403 
    7700    242.23662   -638.54108    165492.15   -16152.881    1218.8395    -17371.72     26.52554    1.1252403 
    7800    236.29222   -271.85532    165492.15   -16187.826    1188.9297   -17376.755    26.984671    1.1252403 
    7900    233.10897   -683.14392    165492.15   -16245.031    1172.9128   -17417.944    27.473291    1.1252403 
    8000    239.51064   -522.49929    165492.15   -16228.611    1205.1235   -17433.734    27.402648    1.1252403 
    8100    235.80936   -354.67013    165492.15   -16186.684    1186.5001   -17373.184    27.216402    1.1252403 
    8200    236.98432   -458.94788    165492.15   -16168.116     1192.412   -17360.528    27.729543    1.1252403 
    8300    233.08115   -631.99211    165492.15    -16146.07    1172.7728   -17318.843    28.053199    1.1252403 
    8400    244.36161   -481.29558    165492.15   -16125.472    1229.5317   -17355.003    28.360431    1.1252403 
    8500    247.70487    -409.8982    165492.15   -16119.499    1246.3537   -17365.852    28.890761    1.1252403 
    8600    236.15397   -729.82106    165492.15   -16108.747    1188.2341   -17296.981    29.412681    1.1252403 
    8700    238.39703   -468.49082    165492.15   -16092.393    1199.5202   -17291.914    29.944028    1.1252403 
    8800    240.12392   -310.49312    165492.15   -16080.813    1208.2093   -17289.022    30.256615    1.1252403 
    8900    243.43441   -427.31845    165492.15    -16063.78    1224.8664   -17288.646    31.336795    1.1252403 
    9000    238.79347   -586.63914    165492.15   -16041.759     1201.515   -17243.274    31.785189    1.1252403 
    9100    245.08682   -468.32854    165492.15   -16001.506    1233.1807   -17234.687    32.476031    1.1252403 
    9200    241.18123   -386.13986    165492.15   -16019.632    1213.5292   -17233.161    33.404392    1.1252403 
    9300    237.98433    -454.1653    165492.15   -16078.959    1197.4437   -17276.403    34.348932    1.1252403 
    9400    235.02782   -465.61308    165492.15   -16084.777    1182.5677   -17267.345    35.130916    1.1252403 
    9500    239.25119   -495.47242    165492.15   -16071.695     1203.818   -17275.513     35.77577    1.1252403 
    9600    238.28443   -487.39022    165492.15   -16030.224    1198.9537   -17229.178    36.055319    1.1252403 
    9700    246.92981   -478.80684    165492.15   -15997.046    1242.4538     -17239.5    36.567208    1.1252403 
    9800     236.0989     -635.481    165492.15   -16017.143     1187.957     -17205.1    37.031611    1.1252403 
    9900    236.98483   -526.60153    165492.15   -16098.026    1192.4146    -17290.44    37.706756    1.1252403 
   10000    239.61014   -452.42276    165492.15   -16102.359    1205.6242   -17307.984    37.858606    1.1252403 
Loop time of 5.91784 on 128 procs for 10000 steps with 8493 atoms

Performance: 729.996 ns/day, 0.033 hours/ns, 1689.805 timesteps/s
96.7% CPU use with 128 MPI tasks x no OpenMP threads

MPI task timing breakdown:
Section |  min time  |  avg time  |  max time  |%varavg| %total
---------------------------------------------------------------
Pair    | 0.00071836 | 1.8257     | 4.4433     | 116.1 | 30.85
Neigh   | 0.0041795  | 0.13034    | 0.30921    |  27.7 |  2.20
Comm    | 0.20137    | 1.7177     | 4.4545     |  80.3 | 29.03
Output  | 0.14496    | 0.14503    | 0.14571    |   0.0 |  2.45
Modify  | 0.18345    | 2.0191     | 5.4837     | 133.7 | 34.12
Other   |            | 0.07998    |            |       |  1.35

Nlocal:        66.3516 ave         137 max           0 min
Histogram: 33 4 8 19 0 0 2 25 25 12
Nghost:        697.234 ave         914 max         492 min
Histogram: 18 6 12 16 13 12 17 17 4 13
Neighs:         0.00000 ave           0 max           0 min
Histogram: 128 0 0 0 0 0 0 0 0 0
FullNghs:      6961.11 ave       16496 max           0 min
Histogram: 39 25 0 0 0 0 11 30 14 9

Total # of neighbors = 891022
Ave neighs/atom = 104.91252
Neighbor list builds = 564
Dangerous builds = 0
write_data 	    ${DIR}/data.${NAME}_eq
write_data 	    run_10/data.${NAME}_eq
write_data 	    run_10/data.ibeam_cooling_10_eq
System init for write_data ...

undump              1
unfix 		3



################################################
#######         Run Simulation         #########
################################################

reset_timestep      0
timestep	    10.0
log                 ${DIR}/log.run_${NAME}
log                 run_10/log.run_${NAME}
log                 run_10/log.run_ibeam_cooling_10
