
# Set production fixes - Nose/Hoover
#
fix                 4 water temp/csvr ${START_TEMP} ${END_TEMP} 500.0 928347
fix                 4 water temp/csvr 235 ${END_TEMP} 500.0 928347
fix                 4 water temp/csvr 235 225 500.0 928347


## divide "droplet" into core and surface
#region		core_reg cylinder z 135 135 44.6 20 INF units box
#region		surface_reg cylinder z 135 135 44.6 20 INF units box side out
#group		core dynamic all region core_reg
#group		surface dynamic all region surface_reg

## compute pressure core
#compute        peratom_core core stress/atom NULL
#compute        p_core core reduce sum c_peratom_core[1] c_peratom_core[2] c_peratom_core[3]
#variable       press_core equal -(c_p_core[1]+c_p_core[2]+c_p_core[3])/(3*1249982.5)


## compute pressure surface
#compute        peratom_surf surface stress/atom NULL
#compute        p_surf surface reduce sum c_peratom_surf[1] c_peratom_surf[2] #c_peratom_surf[3]
#variable       press_surf equal -(c_p_surf[1]+c_p_surf[2]+c_p_surf[3])/(3*42395)

## compute total pressure of drop
compute        peratom water stress/atom NULL
compute        p water reduce sum c_peratom[1] c_peratom[2] c_peratom[3]
variable       press equal -(c_p[1]+c_p[2]+c_p[3])/(3*58301)


# compute order parameter
compute        3 all orientorder/atom nnn NULL cutoff 3.5

# compute center of mass of bridge
compute 	4 water com

# Run simulation
thermo_style        custom step c_2 press vol etotal ke pe v_press c_1[4] c_4[*]
thermo              200
dump		     1 water custom 400 ${DIR}/prod.${NAME}.dump id type x y z vx vy vz c_3[*] c_peratom[*]
dump		     1 water custom 400 run_6/prod.${NAME}.dump id type x y z vx vy vz c_3[*] c_peratom[*]
dump		     1 water custom 400 run_6/prod.ibeam_cooling_6.dump id type x y z vx vy vz c_3[*] c_peratom[*]
run                 ${STEPS}
run                 4000000
Neighbor list info ...
  update every 1 steps, delay 0 steps, check yes
  max neighbors/atom: 2000, page size: 100000
  master list distance cutoff = 6.67472
  ghost atom cutoff = 6.67472
  binsize = 3.33736, bins = 48 11 12
  2 neighbor lists, perpetual/occasional/extra = 1 1 0
  (1) pair sw, perpetual
      attributes: full, newton on
      pair build: full/bin/atomonly
      stencil: full/bin/3d
      bin: standard
  (2) compute orientorder/atom, occasional, copy from (1)
      attributes: full, newton on
      pair build: copy
      stencil: none
      bin: none
Per MPI rank memory allocation (min/avg/max) = 6.146 | 6.742 | 7.319 Mbytes
Step c_2 Press Volume TotEng KinEng PotEng v_press c_1[4] c_4[1] c_4[2] c_4[3] 
       0    238.33395   -296.22507    229018.04   -21236.504    1578.5715   -22815.076   -653.85147    33.175383    78.595504     15.89775    29.706595 
     200    233.95825   -499.16095    229018.04    -21290.27    1549.5897    -22839.86   -1441.3417    35.047421    78.593813    15.896394    29.697682 
     400    239.36059   -462.75616    229018.04   -21306.479    1585.3713    -22891.85   -1310.2629    35.715253    78.592549    15.895792    29.682363 
     600    226.70426   -419.58745    229018.04   -21394.926    1501.5439    -22896.47   -1138.0618    36.609443    78.592729    15.897676    29.674311 
     800    227.27645    -299.5528    229018.04   -21383.152    1505.3337   -22888.486   -671.90917    37.862671    78.593063    15.898254    29.669281 
    1000    232.54371   -222.18091    229018.04   -21268.221    1540.2207   -22808.442   -379.51177    39.450746    78.594191    15.900741    29.647481 
    1200    234.21308   -226.66455    229018.04   -21369.129    1551.2775   -22920.407   -368.34587    40.579177    78.592926    15.905274    29.655895 
    1400    238.20531   -370.29866    229018.04   -21218.721    1577.7195   -22796.441   -949.64579    40.410808    78.594701    15.905684    29.669387 
    1600    237.90809   -113.14028    229018.04    -21235.25    1575.7509   -22811.001    30.274303    41.086745    78.594745    15.905704    29.684996 
    1800    241.11044    -202.1896    229018.04   -21298.034    1596.9612   -22894.995   -292.66264    43.225364    78.597928    15.907628    29.691658 
    2000    244.37494   -287.91272    229018.04   -21182.415    1618.5832   -22800.998   -645.43445    44.556035    78.599562    15.908362    29.668671 
    2200    242.02283   -388.42932    229018.04   -21191.102    1603.0043   -22794.106   -1076.6774    45.132791    78.601297    15.910794     29.63834 
    2400    241.82202   -250.97892    229018.04   -21227.536    1601.6743    -22829.21   -486.01653    45.297486    78.601733    15.912612    29.629836 
    2600    231.48456   -347.92951    229018.04   -21249.836    1533.2056   -22783.041   -882.73594    46.781024    78.601314    15.913059    29.633478 
    2800    237.24345   -462.67192    229018.04   -21223.436    1571.3487   -22794.785   -1393.5345    48.679833    78.601249    15.911773    29.635223 
    3000    228.92109   -162.12338    229018.04    -21308.83    1516.2268   -22825.057   -179.23619    48.437523    78.601722    15.910464    29.657588 
    3200    230.33554   -369.19554    229018.04   -21292.613    1525.5952   -22818.208   -925.44635    48.900473    78.601592     15.90612    29.663484 
    3400    236.59834   -366.07396    229018.04   -21229.214    1567.0759    -22796.29   -920.85283     49.54914    78.601186    15.904771    29.632139 
    3600    234.33331   -145.37626    229018.04   -21262.533    1552.0739   -22814.606    -77.45358    50.504776    78.602565     15.90296    29.615244 
    3800    232.28876   -251.25126    229018.04   -21313.358    1538.5321    -22851.89   -469.64742    51.397911    78.601619    15.900659    29.617135 
    4000    233.92549   -162.34456    229018.04   -21333.727    1549.3727     -22883.1   -152.08377    53.256256    78.601479    15.899297    29.603367 
    4200    237.79408   -404.81547    229018.04   -21217.678    1574.9958   -22792.674   -1087.7009    54.630552    78.603335    15.898916    29.598888 
    4400    235.55588   -331.59009    229018.04   -21157.598    1560.1714    -22717.77   -809.81555    55.547371    78.605044    15.897856    29.600267 
    4600    235.58225   -135.97512    229018.04   -21229.442     1560.346   -22789.788   -20.566775     56.37932    78.603692    15.893129    29.599297 
    4800    230.43839   -471.09619    229018.04   -21184.269    1526.2764   -22710.545   -1363.5978    57.316422    78.604867    15.891224    29.576126 
    5000    230.13954   -205.83736    229018.04   -21253.038     1524.297   -22777.335   -326.30646    58.039711     78.60347    15.889174    29.582149 
    5200    231.22993    -427.4421    229018.04   -21217.323    1531.5191   -22748.842   -1171.7465    59.052114    78.606431    15.888567     29.56687 
    5400    236.05282   -265.47395    229018.04   -21216.077    1563.4628    -22779.54   -539.60236     61.45625    78.605922     15.88806    29.568873 
    5600    225.95449   -275.79439    229018.04   -21272.308    1496.5779   -22768.886   -590.42662    63.136939    78.606398    15.888771    29.581346 
    5800    243.28093    -211.4764    229018.04   -21145.089    1611.3372   -22756.426   -344.50027    65.293846    78.606134    15.886223    29.591426 
    6000    225.79748    -281.7824    229018.04   -21317.666     1495.538   -22813.204   -611.41905    67.177803    78.607037    15.885916    29.582621 
    6200    235.16848   -347.26493    229018.04   -21266.191    1557.6055   -22823.796   -860.89589    67.433534    78.606646    15.883257    29.603375 
    6400    237.80598   -304.03093    229018.04   -21216.015    1575.0746    -22791.09   -716.51053    68.752559    78.606841    15.882549    29.594029 
    6600     230.3241   -101.22506    229018.04   -21286.724    1525.5194   -22812.243    110.44089    70.021745    78.605249    15.883851    29.596593 
    6800    234.96317   -378.38873    229018.04   -21265.765    1556.2457    -22822.01   -1001.7382    71.639185    78.607152    15.885635    29.587896 
    7000    232.17489   -235.80375    229018.04   -21349.827    1537.7779   -22887.604   -435.61008    73.003834    78.608557    15.890503    29.584872 
    7200    241.95712   -390.20442    229018.04   -21260.465    1602.5691   -22863.034     -998.809    74.329696    78.607577    15.894622    29.589603 
    7400     232.7805   -202.32691    229018.04   -21339.053     1541.789   -22880.842   -315.58582    74.506515    78.604687    15.896686    29.578374 
    7600    226.55327   -241.92592    229018.04   -21346.149    1500.5438   -22846.693   -484.25182    75.182009    78.603246    15.899231    29.579593 
    7800    239.20591   -323.17048    229018.04   -21230.919    1584.3468   -22815.265   -814.25575    76.635388    78.603965    15.897396    29.579042 
    8000    235.97091   -296.55899    229018.04   -21206.637    1562.9202   -22769.557   -668.87544    77.556895    78.603885    15.893954    29.577111 
    8200    228.42371   -354.94165    229018.04   -21301.131    1512.9324   -22814.063    -895.2767    80.013468    78.604293    15.894064    29.592673 
    8400    227.43557   -296.43203    229018.04   -21294.962    1506.3876    -22801.35   -721.10744    80.321872    78.605698    15.890332    29.600998 
    8600    235.70762   -333.09298    229018.04   -21221.097    1561.1764   -22782.273   -825.46023     81.45515    78.604789    15.891073     29.62705 
    8800    226.44252   -361.25178    229018.04   -21214.678    1499.8103   -22714.488   -923.41566    82.396868    78.605361    15.888041    29.630035 
    9000    238.42828   -299.06232    229018.04   -21206.403    1579.1963   -22785.599   -703.01178    84.669963    78.604473    15.889605    29.602821 
    9200    233.19076   -466.82125    229018.04   -21253.802    1544.5063   -22798.308   -1340.4505    85.855302    78.606403     15.89105    29.581124 
    9400    228.54954   -306.39744    229018.04   -21305.586    1513.7659   -22819.352   -702.14592     87.00067    78.608505    15.891076     29.58522 
    9600    227.57821   -381.69575    229018.04   -21329.734    1507.3324   -22837.066   -1022.3443    88.443102    78.609916    15.891245    29.599761 
    9800    228.75994   -345.32092    229018.04    -21269.67    1515.1594    -22784.83   -880.44427    88.901129     78.61324    15.892341    29.609641 
   10000     241.1755   -330.85818    229018.04   -21120.909    1597.3921   -22718.301   -758.29725    90.975438    78.611972     15.89261    29.614852 
   10200    237.00578   -249.21597    229018.04   -21163.373    1569.7746   -22733.148   -462.66373    93.199206    78.613186    15.895813    29.622783 
   10400    237.23611   -194.93719    229018.04   -21192.567    1571.3001   -22763.868   -301.05068    93.758191    78.613381    15.896021    29.604959 
   10600    232.02059   -311.76331    229018.04   -21155.365    1536.7559   -22692.121     -764.431    94.494909    78.613287    15.898238    29.619194 
   10800    235.39964   -356.89318    229018.04   -21174.597    1559.1366   -22733.734   -911.67272    94.015189    78.613037    15.896265    29.642034 
   11000    233.71545   -402.34068    229018.04   -21229.327    1547.9816   -22777.309    -1107.625    95.116711    78.613275    15.896347    29.628723 
   11200    234.43065    -262.0104    229018.04   -21255.316    1552.7186   -22808.035    -522.8801     95.15786      78.6121    15.896589    29.607029 
   11400    229.70273   -402.72834    229018.04   -21241.386    1521.4039    -22762.79   -1149.8589    97.105788    78.610962     15.89898    29.602329 
   11600    238.98864   -407.11294    229018.04   -21198.189    1582.9078   -22781.096   -1075.0428    98.672682    78.611098    15.899241    29.597642 
   11800     245.1002   -202.61927    229018.04   -21201.051    1623.3868   -22824.438   -310.71229    99.133748    78.613805    15.898363    29.608131 
   12000    246.96361   -288.00819    229018.04   -21142.151    1635.7289    -22777.88    -635.2766    100.52811    78.615204    15.897092     29.62443 
   12200     230.3862   -294.05376    229018.04   -21188.841    1525.9307   -22714.772   -675.63389    101.32729    78.614092    15.895582    29.626052 
   12400    231.10923   -286.22697    229018.04    -21125.77    1530.7196   -22656.489    -626.0635    102.71138    78.610415    15.893316    29.626262 
   12600    244.13121   -117.56219    229018.04   -21109.178    1616.9689   -22726.147    26.609101    105.17483    78.609836    15.896226    29.601818 
   12800     234.7353   -175.56964    229018.04   -21213.518    1554.7364   -22768.254   -194.03621    106.28749    78.610261    15.897634    29.603255 
   13000    235.29375   -125.70052    229018.04   -21241.392    1558.4352   -22799.828   -32.935351     108.5001    78.610912     15.89843    29.627776 
   13200    233.88293   -281.35123    229018.04   -21194.989    1549.0908   -22744.079   -604.78285    109.72629    78.612212    15.898296    29.660108 
   13400    239.25987   -248.38542    229018.04   -21161.474    1584.7042   -22746.178   -483.68052    110.72852    78.613973    15.896556    29.657805 
   13600    233.52602   -370.80233    229018.04   -21178.819    1546.7269   -22725.546   -960.72019    112.16943    78.614489    15.898206     29.65718 
   13800    232.51612   -288.75316    229018.04   -21218.826    1540.0379   -22758.864   -665.36002    113.48194    78.613115    15.898448    29.684867 
   14000    231.19673   -482.58177    229018.04   -21184.811    1531.2991    -22716.11   -1407.2201    115.51149    78.611778    15.898484    29.679126 
   14200    232.37684   -281.19952    229018.04   -21260.807    1539.1155   -22799.923   -621.04175    116.91053    78.610368    15.894686    29.658457 
   14400    226.13547   -270.99248    229018.04   -21335.314    1497.7766    -22833.09   -596.89744    117.31268    78.609551    15.891642    29.637563 
   14600     233.2455   -283.71411    229018.04   -21248.827    1544.8689   -22793.696   -588.89101    119.27949    78.608807    15.890015    29.621148 
   14800    226.02587   -245.97287    229018.04   -21206.551    1497.0507   -22703.601   -488.08774    120.59772    78.605656     15.88927    29.599006 
   15000    235.78755   -178.63367    229018.04   -21194.831    1561.7058   -22756.537   -193.41688    121.82071    78.605254    15.888319    29.600569 
   15200    230.13902   -116.62672    229018.04   -21304.484    1524.2936   -22828.778    13.962144    123.33955     78.60669    15.888146    29.585827 
   15400    239.99283   -214.80867    229018.04   -21247.439    1589.5589   -22836.997   -369.59886    124.42857    78.606333    15.887653     29.58453 
   15600    230.52208   -238.41195    229018.04   -21293.777    1526.8307   -22820.608   -452.59884    124.94348    78.608391    15.888721     29.58335 
   15800    239.11691   -246.83249    229018.04   -21185.953    1583.7574    -22769.71   -462.70157    126.37249    78.608953    15.888593    29.584664 
   16000    233.10886   -273.51196    229018.04   -21223.016    1543.9639    -22766.98   -580.00994    127.58729    78.611149    15.889753    29.576507 
   16200    237.65384   -246.55224    229018.04   -21185.341     1574.067   -22759.408   -478.49125    128.88967    78.613861     15.89065    29.587311 
   16400     240.3066   -266.72723    229018.04   -21171.558    1591.6371   -22763.195   -526.73159     130.4036    78.615542    15.890623    29.575522 
   16600    235.75941    -112.6405    229018.04   -21183.464    1561.5194   -22744.984    37.767307    131.76332    78.616856    15.890852    29.555678 
   16800    233.32702   -284.25835    229018.04   -21159.147    1545.4088   -22704.556   -642.21769    133.11466    78.616021    15.890057    29.549487 
   17000    239.53319   -154.11948    229018.04   -21178.316    1586.5146   -22764.831   -130.95458    134.67836    78.615399    15.889972    29.530731 
   17200    234.14933   -224.69024    229018.04    -21215.24    1550.8553   -22766.095   -364.33612    136.14965    78.616052    15.889474    29.518666 
   17400    233.36982   -326.38002    229018.04   -21156.405    1545.6923   -22702.097   -774.68036    138.50722    78.617932    15.888811    29.532034 
   17600    246.30041   -365.68512    229018.04     -21095.2    1631.3363   -22726.536   -950.75376     140.4996    78.618526    15.886386    29.524088 
   17800    234.98068   -278.99856    229018.04   -21155.219    1556.3616   -22711.581   -609.57845    141.91919    78.618654    15.883511    29.515324 
   18000    237.14898   -264.84232    229018.04   -21188.789    1570.7231   -22759.512    -535.4729     143.0099    78.618602    15.883403    29.504736 
   18200     231.2127     -415.566    229018.04   -21198.905    1531.4049    -22730.31   -1138.7074    142.83486    78.618676    15.882652    29.506532 
   18400    239.00587   -214.05659    229018.04    -21220.65    1583.0219   -22803.672   -356.68469    142.74016     78.61877    15.881932    29.508988 
   18600    233.37675   -330.08317    229018.04    -21172.32    1545.7382   -22718.059   -799.05724    143.43742    78.619054    15.881953    29.503621 
   18800     241.1758   -141.07752    229018.04    -21225.69    1597.3941   -22823.084   -85.260257    145.26481    78.618448    15.883733    29.523827 
   19000    234.63018   -364.53339    229018.04   -21223.624    1554.0402   -22777.664    -933.0484    147.20645    78.618837    15.885551    29.533149 
   19200    231.02441   -515.53324    229018.04   -21230.604    1530.1578   -22760.762   -1551.6997    148.98085    78.615823    15.887809    29.543359 
   19400    239.21674   -341.55045    229018.04   -21187.236    1584.4186   -22771.655   -878.89871     148.9194    78.615381    15.887721    29.538061 
   19600    230.81898   -372.11956    229018.04   -21248.996    1528.7972   -22777.794   -971.01054    149.89922    78.615363    15.890448    29.542768 
   19800    235.28677   -368.37959    229018.04   -21234.182    1558.3889   -22792.571    -978.4221    150.07492    78.613311    15.886406    29.535701 
   20000    229.41941   -345.89238    229018.04   -21282.996    1519.5273   -22802.523   -872.86411    152.19649    78.613203     15.88517    29.542896 
   20200    233.23985   -421.47749    229018.04   -21266.031    1544.8315   -22810.863    -1187.388    153.24171     78.61293    15.883829    29.550252 
   20400    235.34551   -143.05689    229018.04   -21362.955     1558.778   -22921.733   -80.419245     153.7504    78.610977    15.879832    29.536434 
   20600    229.36997   -333.62524    229018.04   -21336.483    1519.1998   -22855.682   -813.90095    155.73557    78.609736    15.874987    29.505895 
   20800    235.41865   -277.79493    229018.04   -21332.473    1559.2624   -22891.735   -584.17546    155.86723    78.607497    15.873332    29.519319 
   21000    235.78573   -256.77984    229018.04   -21306.511    1561.6937   -22868.205   -505.76243    156.53515    78.608419    15.874329    29.507633 
   21200    233.73821   -180.07563    229018.04   -21250.353    1548.1323   -22798.486   -249.28338    158.46843    78.607644    15.876625    29.513842 
   21400    227.07971    30.575139    229018.04   -21317.173    1504.0307   -22821.204    607.37188     158.0375    78.604979    15.879821    29.500578 
   21600    233.89681    -283.4642    229018.04   -21180.349    1549.1827   -22729.532   -614.55033    159.17753    78.601308    15.879495    29.500354 
   21800    246.06965   -293.40159    229018.04   -21175.235    1629.8079   -22805.043   -632.12477     161.7846     78.59994    15.878627    29.490387 
   22000    232.62797   -180.95877    229018.04   -21226.833    1540.7788   -22767.612   -187.11103    163.21325    78.595977    15.876208    29.465469 
   22200    240.00505   -350.87891    229018.04   -21240.276    1589.6398   -22829.916   -859.61521     165.5686     78.59514    15.873961    29.453133 
   22400    229.85326   -330.34567    229018.04    -21297.35    1522.4009   -22819.751    -804.4282    166.91251    78.591721    15.875215    29.447308 
   22600    236.52825   -353.35524    229018.04   -21261.797    1566.6117   -22828.408   -880.39314    167.06497    78.589446    15.872304    29.452799 
   22800    234.92888   -136.63485    229018.04   -21227.943    1556.0185   -22783.961   -48.084504    169.27994    78.591808    15.871231    29.450449 
   23000     233.1168   -267.09061    229018.04   -21290.711    1544.0165   -22834.728    -554.1587    170.08668    78.591852    15.868946    29.459016 
   23200    231.19944   -340.64344    229018.04    -21305.11    1531.3171   -22836.427   -840.16534    171.00505    78.592425    15.869348    29.489643 
   23400    237.37437   -314.09183    229018.04     -21210.2    1572.2159   -22782.416   -739.59723    172.14046    78.592366     15.86924    29.484284 
   23600    234.73645   -271.41916    229018.04   -21333.314     1554.744   -22888.058   -545.56622    172.72636    78.589794    15.871468    29.505455 
   23800    227.65814    -360.6812    229018.04   -21311.437    1507.8618   -22819.299     -948.039    173.80309    78.586273    15.872844    29.512688 
   24000    237.48169   -201.25162    229018.04   -21238.686    1572.9267   -22811.612   -256.29203    175.41422    78.586658    15.878758    29.495321 
   24200    236.14046   -370.67634    229018.04   -21285.793    1564.0433   -22849.836   -1010.5488    176.80178     78.58515    15.883628    29.494095 
   24400    238.75248   -287.71603    229018.04   -21232.745    1581.3436   -22814.089   -655.63258    178.27747     78.58434    15.882633    29.512683 
   24600     238.9344    -248.5761    229018.04   -21268.033    1582.5485   -22850.582   -478.60798     179.9249    78.583836    15.882413     29.51183 
   24800    231.69024   -208.32058    229018.04   -21235.073    1534.5678   -22769.641    -288.4338    180.77327    78.583575    15.880408    29.509696 
   25000     235.7956   -307.71555    229018.04   -21229.108    1561.7591   -22790.867   -679.27799    181.90646    78.583327    15.879887    29.495231 
   25200    237.76706   -173.37606    229018.04    -21199.37    1574.8168   -22774.186   -226.83335    182.50944    78.582747    15.880542    29.505674 
   25400    231.76973   -239.36235    229018.04   -21219.986    1535.0944   -22755.081   -421.73376    184.28428    78.582549    15.881643    29.515371 
   25600    239.23681   -262.68577    229018.04   -21183.778    1584.5515   -22768.329   -515.62391    185.97932     78.58155    15.877879    29.515077 
   25800    238.36077   -370.14724    229018.04   -21246.673    1578.7492   -22825.422   -924.01122    189.44384    78.582059    15.877431    29.524092 
   26000    231.35302   -128.50855    229018.04   -21301.478    1532.3343   -22833.813   -8.3354159    191.31947    78.581524    15.875183    29.523734 
   26200    233.06523   -398.79986    229018.04    -21250.76    1543.6749   -22794.435   -1027.9441    193.32107    78.582839    15.874124    29.493568 
   26400    229.78979   -254.13487    229018.04   -21310.562    1521.9805   -22832.542   -509.84281    194.03685    78.582237     15.87382    29.475307 
   26600     236.1888   -298.29031    229018.04   -21240.545    1564.3635   -22804.909   -691.45045    195.54809    78.582453    15.871074    29.474633 
   26800     230.7041   -164.97815    229018.04   -21220.716    1528.0363   -22748.753   -93.742008    195.75997    78.583073    15.871571     29.47146 
   27000    230.66413   -150.64323    229018.04   -21223.597    1527.7716   -22751.369   -97.593602    196.62706    78.581575     15.86857     29.48822 
   27200    233.95817   -228.01876    229018.04   -21148.802    1549.5892   -22698.391   -441.18412    197.35443    78.581363    15.866475     29.47772 
   27400    239.74357   -287.90831    229018.04   -21215.417    1587.9079   -22803.325   -622.59858    200.49118    78.584257    15.867086     29.47963 
   27600    235.03854   -146.35618    229018.04   -21248.232    1556.7449   -22804.976   -55.687215    202.54912    78.584303    15.866182    29.482445 
   27800    227.25635   -436.30315    229018.04   -21354.123    1505.2006   -22859.324    -1239.417    204.69313    78.585057    15.866872    29.488904 
   28000    231.24529    -300.1242    229018.04   -21263.703    1531.6208   -22795.324    -666.4128    205.48145    78.585142    15.871282    29.512195 
   28200     236.4756    -460.0646    229018.04   -21217.922     1566.263   -22784.185   -1297.8816    205.48201    78.585533     15.87078    29.490986 
   28400    240.35545   -341.01943    229018.04   -21218.681    1591.9607   -22810.642   -856.71134    204.15858    78.585285    15.869109    29.492572 
   28600    240.42244   -375.93114    229018.04   -21275.524    1592.4044   -22867.928   -1005.8847    205.61505    78.587524    15.867027    29.494641 
   28800    237.58701   -270.21254    229018.04   -21352.374    1573.6243   -22925.999   -552.53292    206.29665      78.5894    15.868991    29.508977 
   29000    238.41153   -325.60712    229018.04   -21299.431    1579.0854   -22878.516   -787.26175    206.23169    78.590086    15.868608    29.509488 
   29200    238.82261   -147.57903    229018.04   -21333.045    1581.8081   -22914.853   -135.53032    208.44476    78.590388    15.869508     29.51102 
   29400    238.93085   -227.21889    229018.04   -21320.431     1582.525   -22902.956    -426.7792    207.54273    78.589675    15.870358    29.523215 
   29600    235.50595   -319.88534    229018.04   -21321.644    1559.8407   -22881.485   -767.98055    209.29409     78.58986    15.869338     29.52261 
   29800    233.89031   -343.81017    229018.04   -21273.802    1549.1397   -22822.942   -830.19066    208.95697    78.590408    15.868658    29.547703 
   30000    235.34601   -290.09733    229018.04   -21268.053    1558.7813   -22826.835    -657.6217    211.05998    78.589649    15.870408    29.569236 
   30200    232.80932   -185.24849    229018.04   -21296.952    1541.9799   -22838.932   -250.21705    212.80466    78.588988    15.871679    29.590489 
   30400    229.36704   -260.09032    229018.04   -21323.537    1519.1805   -22842.717    -525.2402    213.81128     78.58957    15.874265    29.617704 
   30600    227.29429   -314.91956    229018.04    -21370.45    1505.4519   -22875.902   -739.69506    215.95944    78.589078    15.876087    29.628097 
   30800     233.5592   -280.31323    229018.04   -21258.496    1546.9466   -22805.442   -598.32344     217.3796    78.587357    15.874879    29.627577 
   31000    237.69173   -363.74628    229018.04   -21255.195    1574.3179   -22829.513   -965.70079    217.48605    78.587539    15.875416    29.631318 
   31200    236.86851   -438.40488    229018.04   -21224.127    1568.8654   -22792.992   -1233.2175    219.69344    78.588892    15.874679    29.636609 
   31400    241.54439   -192.89038    229018.04   -21229.246    1599.8355   -22829.082   -269.79799    220.75839    78.589962    15.872329    29.648632 
   31600    237.90911   -230.81528    229018.04   -21180.614    1575.7577   -22756.372   -424.15832    223.35071    78.589474    15.871725    29.652629 
   31800    234.56487   -301.31721    229018.04   -21251.976    1553.6076   -22805.583   -688.98528    224.22713    78.588881      15.8695    29.624487 
   32000    235.06636   -279.11145    229018.04   -21244.851    1556.9291    -22801.78   -643.60548    225.22212    78.587754    15.870098    29.618055 
   32200    221.86212   -447.41936    229018.04   -21317.134    1469.4727   -22786.607   -1233.5915    226.46505    78.586426    15.871796    29.630217 
   32400    234.26512   -373.04837    229018.04    -21300.04    1551.6222   -22851.662   -960.76915    226.35935    78.585781    15.877518    29.631342 
   32600    235.43497   -296.62938    229018.04   -21279.878    1559.3706   -22839.249   -679.12086    227.26085    78.585905    15.878119     29.63166 
   32800     228.4959   -314.93024    229018.04     -21256.9    1513.4106   -22770.311   -759.06581    227.27516    78.586288    15.880685     29.62721 
   33000    237.46636   -276.31411    229018.04   -21238.915    1572.8252    -22811.74   -617.40831    229.27734    78.586535    15.876937    29.634893 
   33200    234.35486   -297.78973    229018.04    -21258.29    1552.2166   -22810.507   -708.97534    231.80232    78.587355    15.875617    29.649463 
   33400    237.91679   -303.92826    229018.04     -21242.7    1575.8085   -22818.508   -685.73166    233.05219     78.58823     15.87537    29.640627 
   33600    231.99799   -353.28706    229018.04   -21305.226    1536.6062   -22841.832   -906.06188    234.56407    78.588443    15.874814    29.631877 
   33800    237.87425   -255.21657    229018.04   -21242.648    1575.5268   -22818.175   -540.83476      235.024    78.590164    15.874295    29.648161 
   34000    232.38032   -255.51489    229018.04   -21306.177    1539.1385   -22845.315   -511.21664    234.42462    78.589791    15.872668     29.66673 
   34200    230.27843   -271.38332    229018.04   -21280.961    1525.2169   -22806.178     -566.934    235.21271    78.589866    15.873649    29.676766 
   34400    233.13044    -285.2007    229018.04   -21304.485    1544.1068   -22848.592    -666.3313    236.20166    78.589425    15.873232    29.670316 
   34600    233.86663   -370.77293    229018.04   -21272.279    1548.9829   -22821.262   -959.34866    237.96641    78.587978    15.871807    29.689312 
   34800    240.06652   -379.81288    229018.04   -21254.374     1590.047   -22844.421   -1036.2231    239.24878    78.586748    15.872872     29.69291 
   35000    231.92829   -254.22283    229018.04   -21199.391    1536.1446   -22735.535   -510.93997    239.18963    78.584687    15.873787    29.687567 
   35200    239.05911   -219.22737    229018.04   -21199.035    1583.3745    -22782.41   -338.22702    239.78603     78.58461    15.876724    29.680109 
   35400    236.03266   -354.31017    229018.04   -21119.667    1563.3293   -22682.996   -911.68295    240.96489    78.584164    15.876736    29.665289 
   35600    230.60837   -469.59481    229018.04   -21234.092    1527.4022   -22761.494   -1389.6481    244.28895    78.583497    15.877667    29.682672 
   35800    233.93762   -174.31097    229018.04   -21179.083     1549.453   -22728.536   -253.31304    245.18953    78.582455    15.878725    29.700755 
   36000    227.52511   -292.15628    229018.04   -21290.622    1506.9807   -22797.603   -668.29966    245.51746    78.582278    15.879766    29.700649 
   36200    230.33378     -345.346    229018.04   -21285.709    1525.5835   -22811.293   -896.46879    247.69605     78.58402    15.879918    29.683937 
   36400    235.73977   -229.77103    229018.04   -21244.246    1561.3894   -22805.636   -446.55185    249.21461    78.584658    15.880765    29.695516 
   36600     227.7598   -390.04944    229018.04   -21271.607    1508.5351   -22780.142   -1066.0738    246.82383    78.585352    15.881547    29.694181 
   36800    228.39171   -216.69585    229018.04   -21272.592    1512.7205   -22785.313   -374.39583    247.90551    78.583771     15.88167     29.71042 
   37000    234.53799   -415.21365    229018.04   -21236.676    1553.4295   -22790.106   -1140.6289    248.32781    78.581899    15.881841    29.680726 
   37200    228.46398   -217.34754    229018.04   -21304.437    1513.1992   -22817.636   -385.87039    249.77206    78.581418    15.880858    29.694896 
   37400    239.88746   -376.82006    229018.04   -21261.131     1588.861   -22849.991   -979.12006    251.50282    78.581161    15.878602    29.713435 
   37600     232.9518   -316.05012    229018.04   -21164.045    1542.9236   -22706.968    -778.6086    254.62695    78.581456    15.875938    29.714468 
   37800    233.51014   -282.23713    229018.04    -21267.59    1546.6217   -22814.212   -621.68927    253.47226    78.578311    15.874978    29.728609 
   38000    229.45473   -187.48673    229018.04   -21205.419    1519.7613    -22725.18   -222.62748    254.01598     78.57757    15.874707    29.711592 
   38200    238.02274   -339.93236    229018.04   -21206.379    1576.5103   -22782.889   -864.51096    255.56015    78.577752    15.877366    29.704035 
   38400    228.90384   -414.03636    229018.04   -21231.675    1516.1126   -22747.788   -1139.8825    256.03354    78.577707    15.877111    29.692411 
   38600    233.16382   -308.06265    229018.04   -21232.806    1544.3279   -22777.134   -720.96048    258.64997    78.574093    15.877231    29.708051 
   38800    234.27521   -309.44338    229018.04   -21207.231     1551.689    -22758.92   -742.47278     259.3372    78.572605    15.876681    29.706944 
   39000    239.47833   -313.26442    229018.04   -21153.082    1586.1512   -22739.233   -744.27052    260.07345    78.573036    15.876135     29.68575 
   39200    231.74328   -315.21907    229018.04   -21275.458    1534.9191   -22810.378   -754.55135    265.48148    78.572642    15.874973     29.68088 
   39400    230.44211   -318.30471    229018.04   -21257.135     1526.301   -22783.436   -727.10725    268.48414    78.573545    15.874902    29.668407 
   39600     225.8066   -360.14603    229018.04   -21241.376    1495.5984   -22736.975   -913.20301    270.53825    78.574038    15.873804    29.669023 
   39800    242.29293   -274.46619    229018.04   -21089.927    1604.7933    -22694.72   -575.61283    270.94885    78.574133    15.875577    29.671725 
   40000    234.09951   -193.76569    229018.04   -21238.509    1550.5253   -22789.034   -256.45978    272.15141    78.575515    15.877642    29.703322 
   40200    227.83365   -285.48487    229018.04   -21329.589    1509.0243   -22838.613    -628.6619    273.15994    78.574983    15.879348    29.726511 
   40400    240.39809    -308.4256    229018.04   -21190.508    1592.2431   -22782.751   -707.11095    274.43541    78.575217    15.880832    29.715126 
   40600     234.0465   -386.72111    229018.04   -21323.208    1550.1742   -22873.382   -1020.9264    273.80191    78.574706     15.87964    29.725063 
   40800    232.92943   -191.11044    229018.04   -21299.068    1542.7754   -22841.844   -299.07006    275.77774    78.576894    15.879522    29.738621 
   41000    237.82557   -247.71158    229018.04   -21227.004    1575.2043   -22802.208    -508.0787    276.18736    78.579418    15.879047    29.743148 
   41200    240.84172   -176.43137    229018.04   -21196.658    1595.1814   -22791.839   -233.72186    278.03475    78.581138    15.877975    29.727189 
   41400    229.63061   -162.93263    229018.04   -21229.724    1520.9262   -22750.651   -148.14383    279.40689    78.581108    15.877802    29.742668 
   41600    241.87113   -250.42132    229018.04    -21152.26    1601.9995   -22754.259   -513.77413    278.87646    78.581484    15.878431    29.725859 
   41800    236.24498   -390.75257    229018.04   -21224.014    1564.7356   -22788.749   -1056.1236     278.9981    78.582402    15.875528    29.719116 
   42000    235.22025   -353.98587    229018.04   -21236.764    1557.9484   -22794.712   -896.77137    280.11924    78.583613    15.875109    29.736864 
   42200    237.10439   -442.21952    229018.04     -21256.7    1570.4277   -22827.128   -1241.7831    281.65193    78.584399    15.874874    29.719182 
   42400    241.76709   -217.55025    229018.04   -21263.406    1601.3104   -22864.716   -355.29669    282.21673    78.583839    15.874357    29.720754 
   42600    227.10159   -235.84403    229018.04   -21318.191    1504.1756   -22822.367   -450.87458    283.44889    78.583482     15.87151    29.711935 
   42800    235.28875   -295.25986    229018.04   -21221.462    1558.4021   -22779.864   -681.83036    284.52667    78.583596    15.869542     29.70156 
   43000    244.36051   -171.54222    229018.04   -21188.281    1618.4876   -22806.769   -193.07806    286.95746    78.583093    15.869879    29.683764 
   43200    240.03239   -303.76235    229018.04   -21223.826    1589.8209   -22813.647   -724.63245    289.56282    78.583584    15.870059    29.644364 
   43400    231.32925   -354.46439    229018.04   -21281.323    1532.1769     -22813.5    -903.4201    291.40278    78.582446    15.868207    29.632523 
   43600    236.66638   -244.88438    229018.04   -21294.989    1567.5266   -22862.516   -506.78049     290.7536     78.58226    15.865148    29.618789 
   43800    235.27913    -244.5121    229018.04    -21235.63    1558.3384   -22793.968   -474.40615    291.58384    78.581943    15.864928    29.612975 
   44000    232.10158   -186.31059    229018.04   -21315.865    1537.2923   -22853.157   -215.30758    292.12358    78.583807    15.864745     29.60675 
   44200    238.43251   -209.24468    229018.04   -21270.546    1579.2244   -22849.771   -303.19237    292.20953    78.584709    15.863799    29.597601 
   44400    245.11335   -335.95461    229018.04   -21231.392    1623.4739   -22854.866   -851.16292    294.65421    78.586693    15.860949    29.596468 
   44600    236.99483   -153.50564    229018.04   -21227.581     1569.702   -22797.283   -101.01947    296.60464    78.587237    15.857705    29.583954 
   44800    234.53261   -336.14649    229018.04   -21268.201    1553.3939   -22821.595   -841.05085    298.15884    78.587102    15.858079    29.570171 
   45000    231.20567   -348.59197    229018.04   -21299.673    1531.3583   -22831.032   -857.50848    300.38758    78.588409    15.858348     29.58255 
   45200    244.73553   -436.46494    229018.04   -21182.637    1620.9715   -22803.608   -1184.9556      301.373    78.589622    15.857225    29.596771 
   45400    245.50357   -229.06802    229018.04   -21160.453    1626.0585   -22786.512    -388.5885    302.52359    78.592731     15.85615    29.604654 
   45600    240.22591    -430.4725    229018.04   -21159.933    1591.1027   -22751.036   -1180.1417    302.58896    78.594516    15.855661    29.624144 
   45800    236.30286   -233.74264    229018.04   -21245.457    1565.1189   -22810.576   -398.32598    302.16515    78.595014    15.853384    29.636852 
   46000    237.60248    -378.1664    229018.04   -21234.147    1573.7268   -22807.874   -982.30622    303.16511    78.595252    15.850766    29.628229 
   46200     239.7365   -243.11008    229018.04   -21190.371    1587.8611   -22778.232   -465.77726    303.49647    78.593353    15.849124    29.621912 
   46400    233.49426   -339.70764    229018.04    -21163.89    1546.5165   -22710.406    -833.2897    306.80585    78.593424    15.848464    29.639262 
   46600    237.63811    -342.4578    229018.04   -21212.636    1573.9627   -22786.599   -831.29839    306.19577    78.594485    15.848177    29.654588 
   46800     239.2786   -303.57628    229018.04   -21166.306    1584.8283   -22751.135   -716.48188    305.85832    78.594943    15.848373    29.663608 
   47000    237.64843   -255.01496    229018.04   -21130.267    1574.0311   -22704.298   -512.83725    307.87512    78.595265    15.845631    29.660976 
   47200    238.96811   -349.65793    229018.04   -21202.643    1582.7718   -22785.414   -838.60033    308.23473    78.594992    15.842901    29.659388 
   47400    233.13587   -297.46456    229018.04   -21212.865    1544.1428   -22757.008   -652.97696    309.79965    78.596201    15.844234    29.652465 
   47600    240.68739   -257.95844    229018.04   -21152.353    1594.1592   -22746.513   -539.20284    312.49832    78.598315    15.846943    29.628484 
   47800    229.80009   -239.64547    229018.04   -21142.337    1522.0487   -22664.385   -457.73287    313.99799    78.599694    15.848665    29.607285 
   48000    232.42659   -176.09051    229018.04   -21168.571     1539.445   -22708.016   -218.12085    314.39108     78.59613    15.849763    29.594959 
   48200     239.8561   -284.83479    229018.04   -21203.955    1588.6533   -22792.608   -611.88019     315.8545    78.595842    15.849363    29.581391 
   48400    237.68738   -254.89339    229018.04   -21227.433    1574.2891   -22801.723   -518.40294    315.12404     78.59587    15.848676     29.57889 
   48600    235.25556    -370.9925    229018.04   -21222.703    1558.1823   -22780.885   -925.81555    316.22832    78.595079    15.848442     29.57679 
   48800    234.21003   -208.98228    229018.04   -21199.221    1551.2573   -22750.478   -345.26766    317.25229    78.594057    15.849876    29.582294 
   49000    233.20536   -285.18963    229018.04    -21230.09     1544.603   -22774.693   -627.14192    319.20857    78.593485     15.84869    29.580135 
   49200     232.8621   -321.70624    229018.04   -21251.064    1542.3295   -22793.393   -779.14609    320.77392    78.592274    15.849621    29.571859 
   49400    233.59747   -278.17377    229018.04   -21228.314    1547.2002   -22775.514     -620.432    321.24458    78.592307    15.852023    29.573174 
   49600     232.7262   -108.92169    229018.04   -21220.602    1541.4294   -22762.031     79.68438    320.23988    78.593377    15.854461    29.564084 
   49800    237.37473    -82.62661    229018.04   -21281.455    1572.2183   -22853.673    162.15363    320.44758    78.595315    15.855707    29.570404 
   50000    234.06204   -267.38869    229018.04   -21250.993    1550.2771    -22801.27   -539.70018    321.51224    78.594681     15.85502    29.567599 
   50200    235.19994   -194.79035    229018.04   -21237.625    1557.8138   -22795.439   -235.92945    323.20264    78.594479    15.855824    29.586357 
   50400    238.50716   -232.53898    229018.04   -21218.268    1579.7187   -22797.987   -419.33034    322.38441    78.594195    15.856367    29.607611 
   50600    231.52423     -284.147    229018.04    -21234.26    1533.4683   -22767.728   -631.65813    323.98221    78.596713    15.855829     29.58064 
   50800     232.5823   -451.16606    229018.04   -21267.767    1540.4763   -22808.243   -1309.0261    324.09249    78.596585    15.857763    29.583604 
   51000    228.43047   -300.13399    229018.04   -21220.959    1512.9772   -22733.936   -688.67113    325.78295    78.597564    15.859404    29.587023 
   51200    231.39527   -400.95607    229018.04   -21220.926    1532.6141    -22753.54   -1092.1208    326.40523    78.596032    15.862026    29.574126 
   51400    234.65208   -298.27395    229018.04   -21266.691    1554.1852   -22820.877   -682.89954    327.37846    78.597886    15.866712    29.573939 
   51600     234.6269   -297.61104    229018.04   -21251.764    1554.0184   -22805.783   -667.69243    328.06686    78.598595     15.86608    29.554547 
   51800     245.1961   -225.70514    229018.04   -21247.435     1624.022   -22871.457   -353.16403    327.69388    78.601802     15.86364    29.573512 
   52000     240.6401   -261.35598    229018.04   -21257.078     1593.846   -22850.924   -538.07554    328.20127    78.602054    15.859902    29.558911 
   52200    235.42022    -258.1953    229018.04   -21265.189    1559.2728   -22824.462    -532.2787    328.04236    78.602222    15.859106    29.539881 
   52400    230.92913   -286.20535    229018.04   -21283.951    1529.5267   -22813.478   -635.40271    329.55969    78.602267    15.856744    29.525263 
   52600    232.23656   -235.15566    229018.04   -21251.748    1538.1863   -22789.935   -430.28439    330.64311    78.602924    15.856925    29.517519 
   52800    229.21244   -209.99062    229018.04   -21372.879    1518.1565   -22891.036   -346.62891     329.9993    78.604844    15.860852    29.534931 
   53000    234.46984   -298.31058    229018.04   -21372.223    1552.9782   -22925.201   -690.50249    331.50827    78.603717    15.861833    29.565444 
   53200    231.69086   -373.08458    229018.04   -21334.835     1534.572   -22869.407   -964.99874    332.73186    78.602555    15.861084    29.545282 
   53400    235.35834   -208.28112    229018.04   -21297.742     1558.863   -22856.605   -367.07523    332.64781    78.599882    15.859882     29.56162 
   53600    237.98638   -211.68513    229018.04   -21269.866    1576.2695   -22846.136   -311.25205    334.43224     78.59941     15.86211    29.576941 
   53800    238.32466   -243.13392    229018.04   -21271.715      1578.51   -22850.225   -493.34062    337.37268    78.598839    15.862058    29.568145 
   54000    239.96853   -261.25125    229018.04   -21153.398    1589.3979   -22742.796   -544.66974    339.72982    78.602119    15.861238    29.564351 
   54200    233.27592   -342.68845    229018.04   -21251.199    1545.0704    -22796.27    -876.3457    339.71741    78.604383    15.858052    29.559323 
   54400    227.86726   -412.08768    229018.04   -21294.513    1509.2469    -22803.76   -1094.2894    340.79182    78.606862    15.856213    29.550982 
   54600    236.53937   -223.38547    229018.04   -21226.821    1566.6854   -22793.506    -409.8018    341.94684    78.606357    15.853905     29.53278 
   54800      241.172    -342.2385    229018.04   -21219.194     1597.369   -22816.563   -856.01996    344.50971    78.607879    15.856171    29.524478 
   55000    231.85338   -383.77929    229018.04   -21235.484    1535.6484   -22771.133   -1028.0947    346.45425    78.609897    15.857849    29.547717 
   55200    233.70242   -272.56343    229018.04   -21193.711    1547.8953   -22741.606   -597.91441    347.92047    78.610787     15.85954    29.542546 
   55400    239.94955   -292.05053    229018.04    -21203.08    1589.2722   -22792.352   -636.89227    347.83913    78.612928     15.86227    29.551286 
   55600    237.61887   -321.33917    229018.04    -21202.29    1573.8353   -22776.125   -768.21424    348.71369    78.613247    15.863616    29.547349 
   55800    231.80345   -366.28683    229018.04   -21238.769    1535.3177   -22774.087   -956.40684    351.40519    78.614541    15.860893    29.537485 
   56000    230.99274    -240.4512    229018.04   -21250.545    1529.9481   -22780.494   -445.31443    352.04955    78.615385    15.859082    29.533955 
   56200     235.8812   -244.69465    229018.04   -21181.487    1562.3261   -22743.813   -442.35717    354.06731    78.616556    15.859302    29.520972 
   56400    236.60724   -153.73054    229018.04   -21200.164    1567.1349   -22767.298   -131.20956    353.59644    78.615178    15.858092    29.512042 
   56600    230.91262   -266.82545    229018.04   -21320.104    1529.4174   -22849.521   -527.82464     354.9224    78.614268    15.855503    29.491536 
   56800    230.77016   -142.02035    229018.04   -21334.317    1528.4739   -22862.791   -57.914148    354.54227    78.614882    15.855017     29.49657 
   57000     235.0917   -328.62943    229018.04   -21386.182    1557.0969   -22943.279   -814.65278    353.70823    78.615408    15.854506    29.516563 
   57200    233.56652    -373.0742    229018.04   -21396.324    1546.9951   -22943.319   -985.90386    355.61815    78.616419    15.853495    29.504864 
   57400    230.18688   -186.26991    229018.04   -21411.075    1524.6106   -22935.686   -236.85303    355.05755     78.61947    15.854224    29.502917 
   57600    235.56443   -234.90645    229018.04   -21314.472     1560.228     -22874.7    -429.5882    356.53197    78.619995    15.853335    29.504156 
   57800    237.43811   -344.79358    229018.04   -21304.075    1572.6381   -22876.713   -861.93477    357.83871    78.617903    15.851231    29.484925 
   58000    236.44644   -461.31855    229018.04   -21256.641    1566.0699   -22822.711   -1332.2491    358.51892    78.617194    15.848607     29.47319 
   58200    237.85451   -235.45361    229018.04   -21237.129     1575.396   -22812.525   -442.09806    356.19852     78.61729    15.846648    29.442924 
   58400    236.02704   -292.22837    229018.04   -21346.247     1563.292   -22909.539   -662.50665    357.13307    78.616765    15.846625    29.431234 
   58600    231.97472   -416.93795    229018.04   -21271.544    1536.4521   -22807.996   -1114.8434    358.48787    78.619675     15.84672    29.430759 
   58800    225.35294   -267.88452    229018.04   -21299.467    1492.5937   -22792.061   -518.45025    359.81003    78.620274    15.847307    29.430405 
   59000    234.09618    -169.4287    229018.04   -21280.535    1550.5033   -22831.038   -171.98264    360.41931    78.619573    15.845723    29.419912 
   59200    227.50699   -315.78023    229018.04   -21297.299    1506.8607    -22804.16   -761.44213    362.88658    78.619298    15.842487    29.423781 
   59400    236.94735   -240.22365    229018.04   -21282.023    1569.3876    -22851.41   -436.58812    362.98768    78.620688    15.840329    29.428761 
   59600    247.21974   -328.45635    229018.04   -21213.727    1637.4253   -22851.153   -801.67558    362.63791    78.620268     15.84039     29.44158 
   59800    243.63259   -163.62426    229018.04   -21198.293    1613.6663   -22811.959   -147.22042    363.49837     78.62004    15.843001    29.456117 
   60000    225.70516   -323.07982    229018.04   -21279.041    1494.9265   -22773.967   -775.68042    364.18024    78.617315    15.844759     29.46243 
   60200    244.68991   -256.13547    229018.04   -21224.985    1620.6694   -22845.654   -501.61522    367.56067    78.615134    15.845018    29.462674 
   60400    235.22658   -189.65302    229018.04   -21330.862    1557.9903   -22888.852   -238.95297    368.90133    78.615787    15.843654    29.452943 
   60600    229.43041   -387.09109    229018.04    -21352.89    1519.6002    -22872.49   -1040.2011    368.56482    78.616976    15.841799    29.442136 
   60800    229.02036   -290.93241    229018.04   -21387.045    1516.8842   -22903.929   -622.41037    369.14021    78.615602    15.842933     29.43527 
   61000    226.35518   -163.93459    229018.04   -21360.266    1499.2318   -22859.498   -185.23304    371.71683    78.616919    15.843183    29.468387 
   61200    224.32063   -373.63336    229018.04   -21424.977    1485.7563   -22910.733   -994.31538    373.48954    78.618533    15.843999    29.480478 
   61400    232.79293   -196.83875    229018.04   -21340.256    1541.8714   -22882.127   -303.93646    374.15508    78.618246    15.846771    29.491877 
   61600    238.88345   -338.14859    229018.04   -21293.356    1582.2111   -22875.567   -836.95377    375.29597    78.617725    15.847767    29.515996 
   61800    238.35178   -376.34248    229018.04    -21242.01    1578.6896   -22820.699   -982.62446    376.46889    78.617917    15.849632    29.518647 
   62000    231.85193   -414.16823    229018.04   -21329.158    1535.6388   -22864.797   -1182.8604    378.52769    78.618324    15.851491    29.514763 
   62200    239.24432   -99.577255    229018.04   -21257.427    1584.6012   -22842.028    90.947132    380.47103     78.61903    15.849426    29.524579 
   62400    239.83011    -290.5268    229018.04   -21221.733    1588.4812   -22810.214   -674.73034    378.40324     78.61786    15.848578    29.527854 
   62600    231.38621   -193.37614    229018.04   -21236.258    1532.5542   -22768.812   -245.22266    377.91283    78.617854    15.850033    29.531786 
   62800    232.27976    -279.7108    229018.04   -21223.046    1538.4724   -22761.518   -601.57382     378.7342    78.617656    15.851907    29.529148 
   63000     239.9154   -141.99604    229018.04   -21231.591     1589.046   -22820.637   -58.099429    379.77223    78.619507    15.854738    29.492958 
   63200    227.20133   -246.98905    229018.04   -21335.125    1504.8362   -22839.961   -525.03682    381.50479    78.621149    15.856914    29.499912 
   63400    231.39783    -231.5057    229018.04    -21223.03    1532.6311   -22755.661   -415.63741    379.47453    78.620035     15.85975    29.490232 
   63600     235.4609     -265.758    229018.04   -21210.147    1559.5423    -22769.69   -552.21161    380.11197    78.618219    15.860528    29.478223 
   63800    235.50085    -194.7507    229018.04    -21156.06    1559.8069   -22715.867    -301.0286    380.20851     78.61675    15.862359    29.452703 
   64000    235.09722   -285.08323    229018.04   -21223.674    1557.1335   -22780.808   -615.12375    382.34235    78.617694    15.864769     29.43981 
   64200    238.83437   -311.05485    229018.04   -21237.926     1581.886   -22819.812   -738.17944    383.19458    78.617824    15.867221     29.44154 
   64400    236.86883   -373.79623    229018.04   -21239.221    1568.8675   -22808.088    -919.2522    383.65689    78.615684     15.86982    29.446163 
   64600     229.5156   -308.27994    229018.04   -21253.526    1520.1644   -22773.691   -689.49098    386.70413     78.61493     15.86722    29.448738 
   64800    234.71267   -374.65912    229018.04   -21194.875    1554.5865   -22749.462   -990.89539    387.39284     78.61411    15.866967    29.454318 
   65000    233.36042   -364.92508    229018.04   -21270.663    1545.6301   -22816.293   -918.62516     388.2924    78.613814    15.867388    29.462922 
   65200    236.27493   -87.847391    229018.04   -21281.748    1564.9339   -22846.682    181.88195    388.12161    78.612456     15.86687    29.444904 
   65400     240.4543   -360.56944    229018.04   -21210.643    1592.6154   -22803.258   -919.68207    389.92106    78.613491    15.868641    29.438502 
   65600    239.17205   -191.14812    229018.04   -21211.368    1584.1226   -22795.491   -259.82772    390.44159    78.614894    15.866411    29.429661 
   65800    236.46196    -406.9414    229018.04   -21284.455    1566.1727   -22850.628    -1089.869    392.19441    78.615134    15.866682    29.417754 
   66000    231.13158    -436.0595    229018.04   -21313.101    1530.8677   -22843.968   -1192.9131    393.46748    78.615666    15.866995    29.420442 
   66200    237.21197   -182.55609    229018.04   -21260.017    1571.1403   -22831.158   -207.13317    394.78597    78.615933    15.871348    29.420854 
   66400     237.1339   -248.04125    229018.04   -21329.653    1570.6232   -22900.277   -483.61166    396.82248    78.616706    15.872514    29.421219 
   66600    231.05621   -265.79526    229018.04   -21320.599    1530.3685   -22850.968   -476.40236     396.2828    78.616704       15.875    29.419413 
   66800    227.91782   -261.68911    229018.04   -21372.494    1509.5818   -22882.075   -508.53188    397.76881    78.614491    15.877772     29.43772 
   67000    227.23925    -297.3142    229018.04   -21320.267    1505.0873   -22825.355   -692.14206    399.75669    78.614768    15.874562    29.451393 
   67200    233.36869   -328.69794    229018.04   -21366.269    1545.6849   -22911.954   -765.55241    401.65462    78.614691    15.869587     29.44767 
   67400    240.38268     -250.682    229018.04   -21321.778     1592.141   -22913.919   -506.76913    402.84824    78.616193    15.868659     29.46008 
   67600    232.18164   -205.67211    229018.04   -21343.328    1537.8226   -22881.151   -270.67928    402.00068    78.616752    15.869413    29.462251 
   67800    231.81892   -235.21912    229018.04   -21340.907    1535.4201   -22876.327   -463.52259    401.50404    78.616091    15.870401     29.49549 
   68000    238.39944   -169.02003    229018.04   -21320.477    1579.0053   -22899.483   -150.68886    402.08444    78.616002    15.869725    29.511426 
   68200    235.95683    -406.5409    229018.04   -21357.533     1562.827    -22920.36   -1061.0531    402.85208    78.617674    15.866408     29.52979 
   68400    239.62801   -226.79713    229018.04   -21235.307    1587.1425    -22822.45   -384.10347    402.80786     78.61631    15.866356    29.531744 
   68600    240.81358   -386.42173    229018.04   -21225.397     1594.995   -22820.392   -1026.2589    404.79747    78.615323    15.865688    29.515934 
   68800     240.0078   -201.89232    229018.04   -21209.278     1589.658   -22798.936   -275.28558    405.24014    78.615235      15.8646    29.506435 
   69000     238.4149   -313.13679    229018.04    -21239.74    1579.1077   -22818.848   -751.14913    404.91044    78.613229    15.864589    29.542832 
   69200     233.8408   -173.26085    229018.04   -21297.467    1548.8118   -22846.278   -158.05055    405.49642    78.610804    15.862915     29.51962 
   69400    234.29813   -286.88522    229018.04    -21283.77    1551.8409   -22835.611   -645.12752    406.70439    78.609258     15.86051    29.516222 
   69600    240.82952   -173.87518    229018.04   -21278.738    1595.1006   -22873.839   -159.60727     406.4007    78.607902    15.857902    29.518833 
   69800    235.91158   -339.49691    229018.04   -21271.998    1562.5273   -22834.526   -856.76533     406.9827    78.609644    15.856153    29.522948 
   70000    226.31722   -436.74973    229018.04   -21302.712    1498.9804   -22801.692   -1257.2129    409.92643    78.610905    15.855592    29.528319 
   70200    231.60062   -152.37531    229018.04    -21283.48    1533.9743   -22817.454   -130.24972    409.81837    78.611971    15.852697    29.500667 
   70400    228.13217   -466.34561    229018.04   -21277.415    1511.0015   -22788.416   -1345.3325     412.5119    78.613782    15.852601    29.496338 
   70600    236.36614   -301.67917    229018.04   -21254.448     1565.538   -22819.986   -656.22649    414.37134    78.613683    15.851211    29.507373 
   70800     233.4432   -451.84202    229018.04   -21287.218    1546.1783   -22833.397   -1252.3791    415.58938    78.612001    15.854394    29.508644 
   71000     236.4191   -325.89619    229018.04    -21236.39    1565.8888   -22802.279   -762.84428    417.33545    78.613911    15.855351    29.509467 
   71200     238.8872   -129.10311    229018.04   -21151.225    1582.2359   -22733.461    9.8335519    417.59007     78.61629    15.855351    29.526601 
   71400    238.99008   -331.23984    229018.04   -21221.698    1582.9173   -22804.615   -823.47257    418.91018    78.618385    15.852169    29.522006 
   71600    235.91244   -219.82418    229018.04   -21228.385     1562.533   -22790.917   -389.78581    420.43417    78.619478    15.850723    29.517138 
   71800    239.03898   -360.29223    229018.04   -21234.905    1583.2412   -22818.146   -934.30981    422.45745    78.621574    15.848408    29.522275 
   72000    234.20123   -412.31649    229018.04   -21255.743     1551.199   -22806.942   -1141.1142    424.11594    78.622526    15.847526    29.531623 
   72200     239.6174   -262.59677    229018.04   -21244.219    1587.0723   -22831.291    -511.9521    425.78631     78.62208    15.844812    29.536317 
   72400    235.46597   -222.33283    229018.04   -21172.385    1559.5758   -22731.961   -375.22241    428.04101    78.621932    15.846029    29.527362 
   72600    238.17738   -561.41799    229018.04   -21197.693    1577.5345   -22775.228   -1670.4352    429.06543    78.623737    15.843252    29.539087 
   72800    237.26842   -249.92449    229018.04   -21211.638    1571.5142   -22783.152   -490.76926    427.83986     78.62346    15.844563    29.516687 
   73000    234.68692   -95.581124    229018.04   -21247.616    1554.4159   -22802.032    121.23919    429.61029    78.623434    15.843942     29.52591 
   73200    238.94364   -389.13152    229018.04   -21150.905    1582.6097   -22733.514   -1031.3626     431.7422    78.623813    15.845685    29.515105 
   73400    238.57403   -313.86638    229018.04   -21162.548    1580.1617    -22742.71   -765.29476    433.34836    78.625424    15.847394    29.504055 
   73600    233.34036   -179.42388    229018.04     -21235.1    1545.4972   -22780.597   -162.48106    434.25047    78.623185     15.84881     29.51014 
   73800    234.61611   -205.60801    229018.04   -21220.121    1553.9469   -22774.068   -322.11601    435.74893    78.623592    15.849372    29.509949 
   74000    239.31543   -254.77502    229018.04   -21117.301    1585.0722   -22702.373   -484.80747    436.90492    78.624958    15.849551    29.517642 
   74200    237.11076   -354.66568    229018.04   -21199.714    1570.4699   -22770.184   -927.32496    437.34972    78.625809    15.849409    29.504802 
   74400     235.0374   -456.21034    229018.04   -21243.595    1556.7373   -22800.332   -1296.4394    436.37999    78.625304    15.849683    29.509205 
   74600    237.10124   -219.83452    229018.04     -21291.9    1570.4069   -22862.306   -343.71111    437.38637    78.624668    15.850705    29.490052 
   74800    234.01755   -270.70704    229018.04    -21248.75    1549.9825   -22798.732   -584.96032    439.36177    78.626945    15.848264    29.479926 
   75000    235.66645   -273.60063    229018.04   -21254.661    1560.9037   -22815.565   -549.30978    439.51974    78.625865    15.849243    29.473327 
   75200    230.74041   -380.62084    229018.04   -21201.496    1528.2768   -22729.773   -1005.8726    439.54594    78.624719    15.849624    29.474072 
   75400    241.79712   -487.70943    229018.04   -21153.037    1601.5093   -22754.546   -1416.6622    440.39448    78.625233     15.85074    29.468407 
   75600     234.8361     -216.566    229018.04   -21196.175     1555.404   -22751.579   -350.48964    439.89257     78.62262    15.850319     29.47748 
   75800    230.94932   -419.87977    229018.04   -21239.907    1529.6604   -22769.568   -1144.7965    442.30487    78.621863    15.849697    29.474973 
   76000    236.21515   -305.97476    229018.04   -21231.323     1564.538   -22795.861   -707.61857    440.88697    78.621381    15.850128    29.477185 
   76200    231.11133   -399.92122    229018.04   -21283.314    1530.7335   -22814.047   -1061.3944    444.69146      78.6188    15.850568    29.485687 
   76400    226.78851   -202.69172    229018.04   -21324.755    1502.1019   -22826.857   -310.37194      446.038    78.620133    15.850515     29.49865 
   76600    232.69206   -479.63197    229018.04   -21281.643    1541.2033   -22822.847   -1418.6528     445.8401     78.61713    15.851733     29.48908 
   76800    238.70372   -443.25308    229018.04   -21180.238    1581.0206   -22761.259   -1262.5726    447.80581    78.616516    15.853081    29.502006 
   77000    231.16852   -272.48608    229018.04   -21268.391    1531.1123   -22799.503   -592.66448    447.37705    78.616806    15.854927    29.500766 
   77200    229.05561   -312.99849    229018.04   -21267.635    1517.1178   -22784.753    -745.0866    448.61505    78.615621    15.856077    29.489255 
   77400    229.96083   -253.69377    229018.04   -21262.233    1523.1133   -22785.346   -460.55323    450.38446    78.616248    15.856463    29.509839 
   77600    232.33382   -258.44526    229018.04   -21208.844    1538.8305   -22747.675   -567.25396    453.04797     78.61698    15.855639    29.511497 
   77800    232.54722   -359.59568    229018.04   -21218.447    1540.2439   -22758.691   -934.50141    452.68159    78.617632     15.85761    29.492629 
   78000    232.04573   -332.35157    229018.04   -21248.575    1536.9224   -22785.497   -853.94416    453.57903    78.617952    15.858407    29.505991 
   78200    230.98879   -233.91609    229018.04   -21162.025    1529.9219   -22691.947   -453.13981    455.92297    78.618678    15.860989    29.530546 
   78400    239.10905   -299.26804    229018.04   -21160.643    1583.7053   -22744.348   -710.60941    457.30128    78.619728    15.860239    29.524434 
   78600    231.67475   -346.31106    229018.04   -21220.784    1534.4653   -22755.249   -884.45742    456.87674    78.620783    15.860349    29.553797 
   78800    237.12218   -291.49354    229018.04   -21234.267    1570.5456   -22804.812   -630.12716      457.623    78.622421    15.861289    29.550428 
   79000    237.14141   -364.27419    229018.04   -21215.907    1570.6729    -22786.58   -917.42946    459.84501    78.623122    15.860524    29.549444 
   79200    237.63293   -351.75997    229018.04   -21234.536    1573.9284   -22808.464   -869.33139    462.51791    78.624832    15.859569    29.560126 
   79400    228.51501    -148.1829    229018.04   -21319.578    1513.5372   -22833.116   -107.12116    463.86876    78.627541    15.858848    29.559297 
   79600    229.15422   -379.85495    229018.04   -21311.279    1517.7709    -22829.05   -961.10673     467.0957    78.629614    15.859704    29.583362 
   79800    236.11064   -415.59311    229018.04   -21273.732    1563.8458   -22837.578   -1107.3169    468.72983    78.631226    15.862429     29.57667 
   80000    230.67242   -257.68925    229018.04   -21331.794    1527.8265    -22859.62   -479.78973     469.4787    78.631223    15.864447    29.554573 
   80200    231.29662   -149.94542    229018.04   -21325.792    1531.9607   -22857.753   -111.20626    468.19402    78.630811    15.865729    29.556172 
   80400    227.37557   -294.61235    229018.04   -21381.591    1505.9902   -22887.581    -607.8357    468.57764    78.630145    15.864954    29.569725 
   80600    239.20999   -245.29955    229018.04   -21193.466    1584.3738   -22777.839    -459.9034    468.11293     78.62995    15.864393    29.572224 
   80800    228.63895   -185.69509    229018.04   -21293.048    1514.3581   -22807.406   -268.20319     467.8145    78.631595    15.863726    29.587342 
   81000    238.04743   -209.75354    229018.04    -21216.32    1576.6738   -22792.994   -315.59791    469.09622    78.632665    15.862851    29.594196 
   81200     233.8613   -280.68609    229018.04   -21226.586    1548.9476   -22775.534   -610.53786    470.87044     78.63206    15.862961    29.582067 
   81400     227.1736   -392.44929    229018.04   -21294.064    1504.6525   -22798.716   -1055.6473     471.0972    78.630063    15.860048    29.592384 
   81600    240.00976   -438.82899    229018.04   -21202.679     1589.671    -22792.35   -1195.2869    470.22762    78.630697    15.859246     29.58512 
   81800    239.74067   -310.90658    229018.04   -21210.268    1587.8888   -22798.157   -702.06324    473.64008    78.630265    15.862777    29.567787 
   82000     244.6587   -296.02348    229018.04   -21163.901    1620.4626   -22784.364     -681.229    474.45972     78.63052    15.862072    29.549913 
   82200    235.78917    -289.1658    229018.04   -21306.614    1561.7165   -22868.331   -659.04515    476.24135    78.629814    15.863488    29.533005 
   82400    234.21389   -202.46816    229018.04   -21310.475    1551.2829   -22861.758    -289.4042    477.03809    78.629149    15.865673      29.5295 
   82600    240.05167   -253.80148    229018.04    -21240.25    1589.9486   -22830.199   -502.70567    476.05704    78.630023     15.86813    29.520811 
   82800    239.44077   -222.04862    229018.04   -21248.044    1585.9024   -22833.946   -375.79747    476.76479    78.629664    15.867026    29.517568 
   83000    239.28966   -196.08761    229018.04   -21313.182    1584.9016   -22898.084   -255.35709    476.68277     78.62851    15.869763    29.521102 
   83200    231.87746   -316.65683    229018.04   -21329.643    1535.8079   -22865.451   -729.48398    478.82902    78.627478    15.871188    29.503283 
   83400    232.85184   -194.32283    229018.04   -21330.169    1542.2615   -22872.431   -287.13436    480.31259     78.62546    15.869215    29.496097 
   83600    232.43767    -218.2618    229018.04   -21307.654    1539.5183   -22847.172   -366.83172    481.09124    78.624395    15.869137    29.482906 
   83800    235.89286   -537.74289    229018.04   -21343.916    1562.4033   -22906.319   -1617.3984    479.72057    78.623537     15.86894    29.487912 
   84000    226.18354   -372.28712    229018.04   -21330.655     1498.095    -22828.75   -985.59553    480.88628    78.622435    15.869213    29.489463 
   84200    228.96385   -299.66502    229018.04   -21338.251      1516.51   -22854.761   -659.20712    479.27074    78.622582    15.872229    29.499504 
   84400     237.8118   -299.24831    229018.04   -21278.267    1575.1131    -22853.38   -651.99673    479.96253    78.621535    15.873988    29.494863 
   84600    233.77216   -381.19524    229018.04   -21291.315    1548.3571   -22839.672   -996.57811      480.461    78.621598    15.874157    29.485681 
   84800    226.56467   -256.32556    229018.04   -21366.899    1500.6194   -22867.518   -484.07616    481.13846    78.621739    15.875291    29.482209 
   85000    234.88279   -223.92645    229018.04   -21269.617    1555.7132   -22825.331   -396.31648    482.57292    78.621102    15.874302    29.469149 
   85200     240.7637   -334.19749    229018.04   -21210.603    1594.6646   -22805.268   -828.62974    485.54331    78.619202    15.873803    29.460368 
   85400    233.24009   -176.88872    229018.04   -21244.244    1544.8331   -22789.077   -178.65565    486.33105    78.619167    15.873347    29.448579 
   85600    240.75163   -395.61313    229018.04   -21200.934    1594.5847   -22795.519   -1039.4876    487.86809    78.619459    15.873173    29.442346 
   85800    238.49019   -333.96336    229018.04   -21230.685    1579.6064   -22810.291   -804.87517    487.61745    78.619814    15.871989    29.454732 
   86000    240.01511   -374.97837    229018.04    -21219.89    1589.7065   -22809.596   -981.86876    488.82991    78.618214    15.871937    29.444444 
   86200    238.94487   -353.87091    229018.04   -21276.307    1582.6179   -22858.925   -873.38528     490.9303    78.619012    15.870569    29.427926 
   86400    233.31804   -141.74757    229018.04   -21265.001    1545.3493   -22810.351    -73.19109     491.2908    78.619643    15.872062    29.445208 
   86600    239.83571   -287.06832    229018.04   -21200.608    1588.5182   -22789.126   -631.25912    493.27413    78.620846    15.872617    29.423607 
   86800    236.31941   -414.10243    229018.04   -21252.455    1565.2285   -22817.684   -1101.0742    493.16168    78.621522    15.872134     29.43205 
   87000    230.83555   -525.19626    229018.04    -21256.03    1528.9069   -22784.937   -1553.9972    495.23143    78.622272    15.871382    29.444933 
   87200    236.04456   -206.08652    229018.04   -21241.668     1563.408   -22805.076   -312.12512    496.17532    78.622103    15.871306    29.455542 
   87400    235.70473   -325.22572    229018.04   -21218.697    1561.1573   -22779.854   -760.35204    497.45268    78.621518    15.874112     29.46244 
   87600    243.61519   -307.22225    229018.04   -21176.478    1613.5511   -22790.029   -679.59843    496.96442    78.621191     15.87816     29.46114 
   87800    229.19719    -317.3663    229018.04   -21352.104    1518.0555   -22870.159   -734.81354    498.54767    78.621263    15.878059    29.450139 
   88000    242.94186   -377.08509    229018.04   -21191.069    1609.0914    -22800.16   -975.89034    497.01125    78.623052    15.877405    29.472668 
   88200    238.86566   -356.41388    229018.04   -21161.819    1582.0933   -22743.913   -907.01006    499.89222    78.622962    15.877072    29.462239 
   88400    236.43376   -196.23736    229018.04   -21189.123    1565.9859   -22755.109   -247.14436    501.64785    78.621777    15.876899    29.462885 
   88600    226.55113   -398.84154    229018.04    -21274.13    1500.5297   -22774.659   -1038.2202    501.16316    78.620904    15.874974    29.452731 
   88800    232.30038   -228.97178    229018.04   -21279.949     1538.609   -22818.558   -404.97163    500.90636    78.620994     15.87677    29.431618 
   89000    224.87409   -403.51948    229018.04   -21330.739    1489.4221   -22820.161   -1099.2711    501.72422    78.621288    15.881305    29.431006 
   89200    227.40352   -225.47415    229018.04   -21251.498    1506.1754   -22757.673   -400.24492    501.37828    78.620981    15.880339    29.437741 
   89400    241.34624   -265.86011    229018.04   -21180.852     1598.523   -22779.375   -544.99855    503.74749    78.620926    15.881386     29.43672 
   89600    231.68421   -329.91909    229018.04   -21288.209    1534.5279   -22822.737   -820.18682    504.64093    78.620115     15.88136    29.421893 
   89800    231.71264    -330.2625    229018.04   -21222.912    1534.7162   -22757.628   -809.56763    505.31851    78.620842    15.881232    29.432385 
   90000    235.57005   -272.27606    229018.04   -21162.031    1560.2652   -22722.296   -570.83993    507.56515     78.61843    15.882439    29.443962 
   90200    237.22746   -183.97866    229018.04   -21212.234    1571.2428   -22783.477   -220.64125    506.91565     78.61679    15.882523    29.446953 
   90400    229.14108   -300.68133    229018.04   -21283.987    1517.6838   -22801.671   -679.43443    509.55241    78.614679    15.880647    29.459601 
   90600    227.16735   -344.40557    229018.04   -21267.747    1504.6111   -22772.359   -900.16854    512.29132    78.612871    15.878547    29.465417 
   90800    241.54744   -202.06594    229018.04   -21145.741    1599.8556   -22745.597   -303.57484    513.93076    78.612433    15.883287    29.457557 
   91000    233.88215   -243.84119    229018.04   -21261.286    1549.0857   -22810.371   -506.12068    515.15479     78.61253    15.885913    29.439299 
   91200    226.42233   -411.64706    229018.04   -21277.673    1499.6766    -22777.35   -1130.6994    515.92024     78.61295    15.886587    29.430248 
   91400    235.29501   -390.47968    229018.04   -21234.305    1558.4436   -22792.749   -1049.3242    518.20948    78.612943    15.886721    29.449206 
   91600     242.5138   -175.15127    229018.04   -21218.764    1606.2562   -22825.021   -192.65883    518.93071    78.613586     15.88748    29.442341 
   91800    234.51991   -193.11377    229018.04   -21221.058    1553.3098   -22774.368   -261.48789    521.80465    78.613269    15.888426    29.438178 
   92000    237.61267   -238.49913    229018.04   -21256.683    1573.7942   -22830.478   -444.51624    521.53261    78.612739     15.88816     29.43302 
   92200    236.58337   -270.12513    229018.04   -21272.051    1566.9768   -22839.027   -576.79635     523.0441    78.612424    15.887622    29.445307 
   92400    238.54816   -226.13802    229018.04   -21253.524    1579.9904   -22833.515   -416.29837     523.5868    78.613407    15.887464    29.466208 
   92600    232.55343    -261.7287    229018.04   -21278.922     1540.285   -22819.207    -535.3191     525.8162    78.614231    15.886529    29.482267 
   92800    230.21726   -251.30266    229018.04   -21396.355    1524.8118   -22921.166   -515.50283    526.77175    78.614239    15.886387    29.470377 
   93000    230.69152   -216.73413    229018.04   -21432.066    1527.9529   -22960.019     -405.086    529.45072    78.616201    15.887367    29.456708 
   93200    233.38605   -231.07223    229018.04   -21338.514    1545.7998   -22884.314   -463.32484    532.61876    78.618183     15.88768    29.461277 
   93400    228.26161   -358.95755    229018.04   -21397.323    1511.8588   -22909.181   -896.09227    530.61221    78.618831    15.887868    29.440636 
   93600    232.14507   -359.38996    229018.04   -21347.386    1537.5804   -22884.966   -910.33593    530.79664    78.621067    15.889663    29.453696 
   93800    236.29662   -345.91198    229018.04   -21240.072    1565.0775   -22805.149   -861.07445    533.43367    78.621096    15.889194    29.463564 
   94000    234.35268   -263.77556    229018.04   -21258.952    1552.2022   -22811.154   -526.73579    532.85799     78.62102    15.889345    29.473224 
   94200     230.8324   -301.09802    229018.04   -21241.046    1528.8861   -22769.932    -703.4517    532.58822    78.623143    15.890409    29.469444 
   94400     240.5761   -304.61337    229018.04   -21135.593    1593.4221   -22729.015   -706.73901    533.27853    78.621756    15.889917    29.470696 
   94600    237.07015   -353.79235    229018.04   -21203.683    1570.2009   -22773.884    -943.8248    533.20911    78.619661    15.888395    29.470111 
   94800     240.4466   -315.11402    229018.04   -21113.195    1592.5644   -22705.759   -764.40489    533.40668    78.618397    15.887863    29.474244 
   95000    237.23161   -268.44369    229018.04   -21130.523    1571.2704   -22701.793   -580.43324    533.92598    78.617922    15.886405    29.466664 
   95200    235.80458    -268.2845    229018.04   -21246.604    1561.8186   -22808.423   -580.36772    537.59509    78.617848    15.886201    29.469221 
   95400    233.33964   -208.20755    229018.04   -21243.285    1545.4924   -22788.777   -307.32807     539.7938    78.617977    15.888327    29.460044 
   95600    234.24614   -187.92248    229018.04   -21260.074    1551.4965    -22811.57   -250.96754    541.25339    78.619106    15.887869    29.460411 
   95800    232.95242   -271.62011    229018.04   -21188.851    1542.9278   -22731.778   -583.52045    541.94311    78.618494    15.887457    29.481675 
   96000    227.47981   -275.02782    229018.04   -21237.521    1506.6807   -22744.202   -580.37469    541.84742    78.616574    15.885462    29.468541 
   96200    227.53056   -334.88522    229018.04   -21254.304    1507.0168   -22761.321   -854.25945    542.08964    78.614647    15.883641    29.477534 
   96400    240.25131   -277.67608    229018.04   -21175.534    1591.2709   -22766.804   -609.74226    543.50266    78.614456    15.883676    29.494083 
   96600    223.18569   -283.27022    229018.04   -21268.305    1478.2392   -22746.544   -614.62134    543.65391    78.613207    15.885407    29.490261 
   96800    230.26703   -195.96338    229018.04   -21263.196    1525.1414   -22788.337   -285.83463    544.60165    78.610831    15.886628    29.496911 
   97000    228.43963   -168.95326    229018.04   -21237.451    1513.0379   -22750.489   -184.23918    544.46147    78.608528    15.886377    29.491288 
   97200    240.11976   -339.73627    229018.04   -21165.676    1590.3996   -22756.076   -848.67769    548.09545    78.607246    15.887373    29.504559 
   97400     239.3143   -298.10335    229018.04    -21142.87    1585.0647   -22727.934   -701.82325    547.24711    78.607157    15.889089    29.496906 
   97600    242.22904   -189.75925    229018.04   -21165.662    1604.3701   -22770.032   -249.43944      547.761    78.608142    15.888589    29.504331 
   97800    223.77959   -304.98172    229018.04   -21219.827    1482.1728       -22702   -739.37133    548.32502    78.609525    15.885617    29.488626 
   98000    228.93842   -327.24876    229018.04   -21314.574    1516.3415   -22830.916   -786.17815    551.82937    78.608913    15.885212    29.503475 
   98200    230.51919    -176.4794    229018.04   -21261.301    1526.8115   -22788.113   -231.36162    552.64854     78.60654    15.887665    29.500769 
   98400    235.44989   -365.37509    229018.04    -21206.18    1559.4694   -22765.649   -959.64869    557.14219    78.606337    15.891605    29.507684 
   98600     234.1201   -327.07923    229018.04   -21181.027    1550.6617   -22731.688   -783.44386    556.47844    78.605828    15.893348    29.503101 
   98800    245.19912   -329.16625    229018.04   -21095.756    1624.0421   -22719.798    -799.3751    557.17387    78.604376    15.893795    29.503538 
   99000    241.71874   -381.93643    229018.04   -21082.779    1600.9902   -22683.769    -1014.634    561.11949    78.605236    15.894348    29.506451 
   99200    236.10951   -157.72931    229018.04   -21138.109    1563.8383   -22701.947   -157.07786    561.27559    78.604782    15.893013    29.507033 
   99400    234.76623   -166.90148    229018.04   -21229.779    1554.9412   -22784.721   -158.25478    564.69469    78.604457    15.893323    29.517609 
   99600    230.08338   -298.08572    229018.04   -21170.312     1523.925   -22694.237   -684.17413    568.06923    78.603651    15.892914      29.5118 
   99800    236.68862   -264.46834    229018.04   -21129.127    1567.6739   -22696.801   -561.24883    568.75837    78.603064    15.892354    29.509377 
  100000    230.53182   -360.49449    229018.04   -21150.748    1526.8952   -22677.644   -901.92796     572.9418    78.606014    15.889353    29.515187 
  100200    239.47813   -278.22236    229018.04   -21094.033    1586.1499   -22680.183   -611.39369    573.15007    78.606289    15.886661    29.518154 
  100400    239.05953   -264.60873    229018.04   -21110.862    1583.3773   -22694.239   -549.14901     575.5772    78.607636    15.883472    29.530268 
  100600    234.99972   -393.24472    229018.04   -21172.582    1556.4877    -22729.07   -1061.6452    574.08398    78.610321    15.882568    29.505277 
  100800    235.10053   -107.90878    229018.04   -21142.739    1557.1554   -22699.895    63.201591    573.76779    78.609899    15.882655     29.50071 
[...]
 3975800    227.53384   -297.86843    229018.04   -23330.188    1507.0385   -24837.227   -677.51027    4016.7106    78.952967    16.514674    29.687788 
 3976000    221.30477   -294.48222    229018.04   -23352.918    1465.7811   -24818.699   -681.18068    4015.6069    78.953905    16.514561    29.681493 
 3976200    221.82593   -137.70246    229018.04     -23321.6     1469.233   -24790.833   -62.208472     4014.446    78.952329    16.515294    29.694107 
 3976400    221.59031   -239.47189    229018.04   -23323.308    1467.6724   -24790.981   -476.92626    4016.2689    78.952612    16.515395    29.700538 
 3976600    229.89246   -371.00077    229018.04   -23251.127    1522.6605   -24773.787   -985.82826    4015.8075    78.953263    16.515571    29.700607 
 3976800    224.59972   -148.98795    229018.04   -23256.524    1487.6048   -24744.129   -139.41022    4014.0458     78.95271    16.517052    29.706591 
 3977000     223.0218   -287.81346    229018.04   -23303.855    1477.1537   -24781.009   -620.81627    4016.5382    78.953049    16.516903     29.69672 
 3977200    231.68925   -277.70307    229018.04   -23261.291    1534.5613   -24795.852   -584.45565    4016.5172    78.953071    16.518311    29.697446 
 3977400    224.98245   -183.38508    229018.04   -23298.894    1490.1398   -24789.034   -276.61359    4013.7492    78.955368    16.517752    29.696733 
 3977600    224.26783    -309.3184    229018.04   -23370.043    1485.4066    -24855.45     -708.728    4016.3265    78.955527    16.518008    29.701842 
 3977800    222.99356   -276.79117    229018.04   -23340.244    1476.9666   -24817.211    -598.3175    4015.6538     78.95713    16.517508    29.690958 
 3978000    224.70515   -221.05453    229018.04   -23333.901    1488.3031   -24822.204   -404.47963    4013.2421    78.955508    16.519285    29.698574 
 3978200    224.62272   -341.35779    229018.04    -23274.97    1487.7571   -24762.727   -850.04607    4018.0774    78.956908    16.520404    29.689828 
 3978400     222.1754   -210.76244    229018.04   -23331.081    1471.5476   -24802.628   -357.28534     4013.754    78.956412    16.520268    29.693817 
 3978600    220.61028   -233.63917    229018.04   -23373.119    1461.1813     -24834.3   -463.32391    4014.3041    78.958819    16.521971    29.688844 
 3978800    221.96101   -344.41528    229018.04   -23322.419    1470.1277   -24792.546   -846.43324    4017.0293     78.95907    16.522084    29.684277 
 3979000    234.04701   -237.91157    229018.04   -23207.498    1550.1776   -24757.675   -468.21138     4013.503    78.959024    16.522396    29.678421 
 3979200    225.92423   -224.76945    229018.04   -23261.976    1496.3775   -24758.353   -413.53519    4013.9296    78.960077    16.522075    29.685193 
 3979400     224.8118   -355.46144    229018.04   -23331.276    1489.0095   -24820.285   -940.16448     4016.428    78.961017     16.52223    29.684838 
 3979600    222.35465   -176.55109    229018.04   -23317.756    1472.7349   -24790.491   -230.44201    4013.5412    78.962272    16.522245    29.693178 
 3979800     227.2938   -298.31661    229018.04   -23250.905    1505.4486   -24756.354   -757.30995    4017.1801    78.963359    16.522118    29.685311 
 3980000    217.61308   -340.12965    229018.04   -23356.128    1441.3298   -24797.458    -870.0393    4017.2547     78.96522    16.521286    29.687205 
 3980200    220.75175   -318.07056    229018.04   -23350.004    1462.1183   -24812.122   -736.85427    4016.3284    78.964908    16.521849    29.681369 
 3980400    221.93689   -226.98277    229018.04   -23328.323    1469.9679    -24798.29   -463.43776    4015.3026    78.965161    16.521265    29.691356 
 3980600    222.67705   -254.91752    229018.04   -23349.272    1474.8702   -24824.142   -514.03183    4017.3631    78.967067    16.519999    29.694451 
 3980800     225.5006   -291.09497    229018.04    -23362.73    1493.5716   -24856.302   -674.82422    4015.3751    78.969545    16.521232    29.682454 
 3981000    221.98808   -281.72714    229018.04   -23280.498     1470.307   -24750.805   -600.36297    4016.6566    78.970875    16.520555    29.683043 
 3981200    221.62806   -240.61503    229018.04   -23329.671    1467.9224   -24797.593   -447.38768    4016.1058    78.970764     16.52153    29.692209 
 3981400    225.73247   -269.45663    229018.04   -23311.491    1495.1074   -24806.598   -573.67618    4016.2059    78.971769    16.524382    29.692625 
 3981600    232.94076   -295.93628    229018.04   -23275.968    1542.8505   -24818.818   -676.23018    4016.5542    78.974038    16.527105    29.674635 
 3981800    224.41212   -218.42671    229018.04   -23343.785    1486.3622   -24830.147   -377.12571    4016.9696    78.975408    16.529433    29.671822 
 3982000    226.32317   -231.14613    229018.04   -23313.275    1499.0198   -24812.295   -469.90092    4016.0586    78.976707     16.53162    29.674881 
 3982200    224.25719    -362.6047    229018.04   -23283.445    1485.3361   -24768.781   -940.45948    4017.5978    78.976662    16.532573    29.678266 
 3982400    228.75364   -264.46577    229018.04   -23289.751    1515.1177   -24804.869   -574.21462    4015.4579    78.978012     16.53418    29.684558 
 3982600     225.0007   -316.68852    229018.04   -23284.002    1490.2606   -24774.263   -726.10024    4018.1896     78.97823    16.534585    29.697152 
 3982800    225.00721    -320.2983    229018.04   -23282.268    1490.3037   -24772.572   -780.14979    4020.0874    78.979185     16.53525    29.699851 
 3983000    219.86399   -195.71254    229018.04   -23350.262    1456.2383     -24806.5    -328.3775    4014.9584    78.980065    16.536843    29.676893 
 3983200    222.06882   -362.19902    229018.04   -23315.382    1470.8417   -24786.223   -933.22667     4018.799    78.980635    16.537372    29.677539 
 3983400     219.5728   -329.65721    229018.04   -23319.986    1454.3097   -24774.296   -814.68246    4018.3869    78.983421    16.539039    29.674721 
 3983600    228.92177   -230.72627    229018.04   -23262.626    1516.2313   -24778.857   -498.98936    4016.4245    78.984494    16.542443    29.688159 
 3983800    219.58621   -335.34861    229018.04   -23381.545    1454.3985   -24835.944   -852.45188    4017.5413    78.985044    16.544433     29.69723 
 3984000    231.26595   -340.55261    229018.04   -23311.761    1531.7576   -24843.519   -854.58988    4018.8396    78.985903    16.545807    29.685085 
 3984200    217.63596     -181.706    229018.04   -23364.012    1441.4813   -24805.493   -228.23929    4016.6188    78.986124    16.547664    29.688631 
 3984400     218.3485   -309.96606    229018.04   -23355.966    1446.2007   -24802.167   -731.45123    4019.0041    78.987113    16.550309    29.686965 
 3984600    225.81679   -320.61645    229018.04   -23317.159    1495.6659   -24812.825   -793.13438    4017.8008    78.986628    16.551809    29.675832 
 3984800    229.02007   -187.00103    229018.04   -23339.449    1516.8823   -24856.331   -257.71147    4015.3554    78.988035    16.552815    29.682676 
 3985000      225.172   -246.91428    229018.04    -23295.83    1491.3952   -24787.225   -464.40479    4018.0488    78.987726    16.553214    29.685807 
 3985200    221.77715   -278.94796    229018.04   -23298.145    1468.9099   -24767.055   -597.17422    4019.6998    78.989595      16.5542    29.681256 
 3985400    226.50409   -260.91112    229018.04   -23306.389    1500.2181   -24806.607   -576.77424    4018.0543    78.993746    16.555195    29.667733 
 3985600    233.64949   -307.70098    229018.04   -23271.058    1547.5447   -24818.603   -729.35646    4016.7942    78.995435    16.555858    29.668528 
 3985800    225.54411   -280.02259    229018.04   -23344.184    1493.8598   -24838.044   -639.33511    4019.4832    78.995651    16.554497    29.667773 
 3986000    224.42749   -210.44316    229018.04   -23285.078     1486.464   -24771.542   -390.03516    4017.8372    78.996415    16.554082    29.675118 
 3986200     229.7706   -304.92693    229018.04   -23295.386    1521.8534    -24817.24   -712.80496    4018.2475    78.996328    16.554402    29.678084 
 3986400    222.62713   -355.12094    229018.04   -23376.908    1474.5396   -24851.447   -951.61257     4018.817    78.997729    16.552418    29.691476 
 3986600    222.19144     -272.262    229018.04   -23366.277    1471.6539    -24837.93   -582.62105    4017.0773    78.998077    16.551643    29.685824 
 3986800    223.89713   -279.72667    229018.04   -23274.805    1482.9513   -24757.756   -646.02373    4019.2233    78.998319    16.551227    29.682939 
 3987000     236.2473   -303.30805    229018.04   -23271.824    1564.7509   -24836.575   -682.98962    4019.2171    78.999091    16.552295    29.678341 
 3987200    221.25543   -225.29878    229018.04   -23295.997    1465.4543   -24761.451   -406.69774    4017.3995    79.001283    16.553022     29.67575 
 3987400    224.58739   -337.20585    229018.04   -23293.624    1487.5231   -24781.147   -842.58774    4018.8228    79.003384    16.553132    29.663601 
 3987600      218.381   -281.82356    229018.04   -23352.592     1446.416   -24799.008   -626.19876    4016.3854    79.003629    16.552922    29.667811 
 3987800    225.47003   -288.56818    229018.04   -23332.198    1493.3691   -24825.567   -666.68346    4018.4052    79.002815    16.552169     29.68743 
 3988000    231.05663   -357.56503    229018.04   -23304.156    1530.3712   -24834.528    -922.0193    4019.1099    79.003471    16.550632    29.672764 
 3988200    227.41439   -318.07539    229018.04   -23287.103    1506.2474    -24793.35   -771.62287    4018.4203    79.003765    16.550448    29.671284 
 3988400    226.36661   -267.14032    229018.04   -23263.874    1499.3075   -24763.181   -555.21429    4016.8038    79.002884    16.551668    29.687643 
 3988600    231.60442   -289.43923    229018.04   -23282.152    1533.9994   -24816.152   -643.07235    4017.7898    79.004325    16.552614    29.683467 
 3988800    221.65328   -320.90089    229018.04    -23364.63    1468.0895    -24832.72   -775.14392    4018.1417    79.005174    16.553831    29.673195 
 3989000    222.19618   -289.49408    229018.04   -23335.606    1471.6853   -24807.291    -631.6663    4016.6822    79.006046    16.556031    29.664443 
 3989200    229.02357   -332.62822    229018.04   -23266.505    1516.9055    -24783.41   -779.12097    4017.5162    79.005645    16.555546    29.670399 
 3989400    227.01261   -377.86106    229018.04   -23281.234    1503.5862    -24784.82   -1016.7988    4018.0579    79.006242     16.55497    29.676668 
 3989600    222.63245   -266.00799    229018.04   -23338.251    1474.5749   -24812.826    -556.2047    4015.2242    79.006507     16.55607    29.683426 
 3989800    226.83192   -352.22052    229018.04   -23294.398    1502.3894   -24796.787   -922.09906    4019.8409    79.007384    16.556959    29.683065 
 3990000    227.95665    -416.3218    229018.04   -23267.281    1509.8389    -24777.12   -1180.2298    4019.1451    79.007468    16.556688    29.675603 
 3990200    229.89863   -271.87647    229018.04    -23308.06    1522.7014   -24830.762   -575.92754    4016.9503    79.009685    16.559198    29.668017 
 3990400    225.85833   -209.42599    229018.04    -23282.99     1495.941   -24778.931   -334.07843    4017.2652    79.011212    16.559611    29.669744 
 3990600    223.66399   -387.87343    229018.04    -23312.15    1481.4071   -24793.557   -1069.2444    4019.4149    79.013339    16.559799    29.664414 
 3990800    229.86816   -243.43156    229018.04   -23230.766    1522.4996   -24753.265   -455.34722     4018.873    79.014796    16.561817    29.665952 
 3991000    227.95583   -238.14515    229018.04    -23235.82    1509.8335   -24745.653   -496.51031    4017.9693    79.017403    16.561318    29.664638 
 3991200    228.29348   -409.54756    229018.04   -23283.191    1512.0699   -24795.261   -1099.3963    4022.1319    79.017395    16.560117    29.668303 
 3991400    224.57899   -275.28863    229018.04   -23328.455    1487.4675   -24815.923   -633.92399    4015.5909    79.017788    16.560358    29.664634 
 3991600    223.29378   -305.15882    229018.04   -23294.638    1478.9551   -24773.593   -719.79186    4018.0627    79.019012    16.559251    29.663206 
 3991800    228.83058   -340.73065    229018.04   -23245.718    1515.6273   -24761.346   -874.20033    4020.2163     79.02058    16.556541    29.672365 
 3992000    223.95384   -168.52163    229018.04   -23282.166    1483.3269   -24765.493   -190.16066    4015.8548    79.020308    16.555717    29.679722 
 3992200    224.27725   -218.95211    229018.04   -23307.984     1485.469   -24793.453    -371.6798    4017.9209    79.020785     16.55566    29.689155 
 3992400    216.03267   -371.40199    229018.04   -23321.697    1430.8621   -24752.559   -984.91285    4018.7974    79.019707    16.555383    29.675819 
 3992600    225.51178   -236.88552    229018.04     -23258.5    1493.6457   -24752.146   -457.51706    4016.0571    79.020565    16.554937    29.660454 
 3992800    232.07133   -354.55675    229018.04   -23237.145    1537.0919   -24774.237    -919.4049     4018.523    79.021804    16.555935     29.66166 
 3993000    227.00757   -307.25952    229018.04   -23229.498    1503.5529   -24733.051   -727.00199    4017.7459    79.022283    16.555709    29.658235 
 3993200    228.65935   -278.01987    229018.04   -23238.623    1514.4932   -24753.116    -607.3815    4019.2846    79.022447    16.556182    29.669974 
 3993400    230.46301   -243.96659    229018.04   -23265.988    1526.4395   -24792.427   -476.89537     4018.216    79.022089    16.557424     29.66378 
 3993600    223.20861   -311.09889    229018.04   -23309.629     1478.391    -24788.02   -762.90077    4019.1684    79.021371    16.557474     29.67124 
 3993800    226.14085   -199.00498    229018.04    -23354.16    1497.8123   -24851.972   -305.23955     4017.394    79.020947    16.557344    29.665396 
 3994000    221.73084    -319.7409    229018.04   -23358.121    1468.6032   -24826.724   -786.63803    4018.8254    79.020379    16.556526    29.676221 
 3994200    225.84945   -236.27999    229018.04   -23280.952    1495.8822   -24776.834   -433.04253    4017.4128    79.018885     16.55664    29.681593 
 3994400    226.62149   -321.02863    229018.04   -23301.473    1500.9957   -24802.469   -816.73737    4018.1966    79.017578    16.554781    29.700107 
 3994600    226.11363   -313.63685    229018.04   -23280.179    1497.6319   -24777.811   -756.92893    4017.4708    79.016778    16.552136    29.689695 
 3994800    223.48514   -324.66328    229018.04   -23296.565    1480.2225   -24776.787   -790.24395    4017.8504     79.01621    16.552717    29.686638 
 3995000     222.6866   -255.89771    229018.04   -23333.676    1474.9335    -24808.61   -524.25244    4016.5824    79.014952    16.552196    29.677689 
 3995200    222.66865    -349.3351    229018.04   -23360.761    1474.8146   -24835.576    -910.0632    4017.9262    79.013692    16.551491    29.683477 
 3995400    226.60202   -194.53947    229018.04   -23312.303    1500.8667   -24813.169   -264.07751     4017.026    79.013554    16.551058    29.678222 
 3995600    229.61371    -258.7232    229018.04   -23291.838    1520.8143   -24812.652   -536.64969    4016.2739    79.012231    16.549723    29.673962 
 3995800     219.5641   -310.99451    229018.04   -23357.918    1454.2521    -24812.17   -745.99285    4018.2732    79.011224    16.549427    29.678253 
 3996000    224.32723    -213.5519    229018.04   -23312.043       1485.8   -24797.843   -369.33656    4017.2824    79.011838    16.548485    29.668745 
 3996200    221.62544   -220.05674    229018.04   -23286.005    1467.9051    -24753.91   -425.76321    4018.1661    79.014531    16.547564    29.664227 
 3996400    218.64757   -345.72079    229018.04    -23326.27    1448.1816   -24774.452   -877.50411    4019.9218    79.013761    16.545924    29.657118 
 3996600    216.26679   -276.82631    229018.04   -23348.018    1432.4128   -24780.431   -629.59066    4017.6757    79.013568    16.547262    29.670068 
 3996800    221.25842   -317.23377    229018.04   -23290.232    1465.4741   -24755.706   -771.19266    4017.6924    79.014082    16.548506    29.680536 
 3997000    222.49588   -388.19365    229018.04   -23259.586    1473.6703   -24733.256   -1033.9204    4019.3616    79.013517    16.549139    29.657778 
 3997200    220.10127   -317.40147    229018.04   -23323.837      1457.81   -24781.647   -776.46352    4016.9846    79.013773     16.55122    29.660395 
 3997400    222.66646    -330.6654    229018.04   -23310.192    1474.8001   -24784.992   -835.41562    4016.4092    79.014581    16.552056    29.658718 
 3997600    221.16998    -320.8624    229018.04   -23304.996    1464.8884   -24769.884     -814.016    4018.4867    79.016367    16.550024    29.670997 
 3997800    227.98284   -263.76343    229018.04   -23279.722    1510.0124   -24789.735   -524.87509    4016.4862    79.017961    16.549714    29.678037 
 3998000    227.10927    -200.8837    229018.04   -23293.541    1504.2264   -24797.768   -317.17724    4016.2522    79.018728     16.54799     29.67376 
 3998200    225.91051   -276.21121    229018.04   -23244.724    1496.2866   -24741.011   -623.68236    4018.0557     79.02158    16.547678    29.664929 
 3998400    227.62608   -274.02356    229018.04   -23306.241    1507.6494   -24813.891   -616.06198    4017.0042    79.021529    16.546384    29.659245 
 3998600    227.92264   -286.81217    229018.04   -23302.558    1509.6137   -24812.171   -638.68523    4018.7621    79.021893    16.545504    29.666761 
 3998800    220.24571   -330.66842    229018.04   -23306.855    1458.7666   -24765.622   -833.73114    4018.2181    79.022905    16.544742    29.671558 
 3999000     222.2719   -286.17574    229018.04   -23317.991    1472.1868   -24790.178   -654.12293    4017.1626     79.02271    16.541875    29.683446 
 3999200    228.69085   -269.37865    229018.04   -23297.764    1514.7018   -24812.466   -591.19715    4017.0942    79.023419    16.541458    29.683299 
 3999400    221.42302   -317.77255    229018.04   -23290.806    1466.5644    -24757.37   -768.55693     4018.059    79.024408    16.539512     29.68766 
 3999600    223.91553   -215.50673    229018.04   -23309.806    1483.0731   -24792.879   -387.32037    4016.9478    79.025029    16.538335    29.685721 
 3999800    221.81388   -263.58979    229018.04   -23299.278    1469.1532   -24768.431   -544.82979    4017.2877    79.024363    16.538101    29.681262 
 4000000    224.63009   -360.29352    229018.04   -23286.619    1487.8059   -24774.425   -952.00805    4019.1634    79.025383    16.537861    29.687833 
Loop time of 12654.7 on 60 procs for 4000000 steps with 8943 atoms

Performance: 273.100 ns/day, 0.088 hours/ns, 316.088 timesteps/s
97.1% CPU use with 60 MPI tasks x no OpenMP threads

MPI task timing breakdown:
Section |  min time  |  avg time  |  max time  |%varavg| %total
---------------------------------------------------------------
Pair    | 0.30146    | 2949.2     | 10757      |6965.3 | 23.30
Neigh   | 2.1306     | 184.56     | 563.43     |1440.3 |  1.46
Comm    | 87.688     | 3763.7     | 10038      |6386.7 | 29.74
Output  | 118.31     | 118.47     | 120.1      |   2.0 |  0.94
Modify  | 225        | 5259.9     | 12348      |7279.7 | 41.56
Other   |            | 378.9      |            |       |  2.99

Nlocal:    149.05 ave 374 max 0 min
Histogram: 24 0 4 12 0 0 0 0 2 18
Nghost:    817.817 ave 1257 max 360 min
Histogram: 8 4 0 0 20 8 4 3 5 8
Neighs:    0 ave 0 max 0 min
Histogram: 60 0 0 0 0 0 0 0 0 0
FullNghs:  14957.7 ave 45055 max 0 min
Histogram: 28 12 0 0 0 0 0 2 10 8

Total # of neighbors = 897460
Ave neighs/atom = 100.353
Neighbor list builds = 412323
Dangerous builds = 0
write_data 		${DIR}/data.${NAME}_run
write_data 		run_6/data.${NAME}_run
write_data 		run_6/data.ibeam_cooling_6_run
Total wall time: 3:31:25
