
### Dimensions ###


### IMPORT ATOMS ###
read_data ../Box_Setup/data.Ibeam_240K
  orthogonal box = (0 0 0) to (157.504 36.4877 39.8503)
  10 by 2 by 3 MPI processor grid
  reading atoms ...
  8943 atoms
  reading velocities ...
  8943 velocities
group water type 2
2223 atoms in group water
group graphite type 1
6720 atoms in group graphite


# Define potential
#
pair_style          sw
pair_coeff * * MLC_e.sw C mW

# Add velocity/set timestep
#

fix		1 graphite setforce 0.0 0.0 0.0
velocity 	graphite set 0.0 0.0 0.0
velocity            water create ${START_TEMP} ${SEED} rot yes dist gaussian
velocity            water create 235 ${SEED} rot yes dist gaussian
velocity            water create 235 19293 rot yes dist gaussian
timestep            5.0

# Define output
#
compute 1 water msd
compute 2 water temp


thermo	            100
thermo_style custom step c_2 press vol etotal ke pe c_1[4] density

# Neighbor lists
#
neigh_modify        delay 0 every 1 check yes


# Set fixes
#
fix                 2 water momentum 10 linear 1 1 1 rescale
fix                 3 all nve
fix                 4 water temp/csvr ${START_TEMP} ${START_TEMP} 500.0 928347
fix                 4 water temp/csvr 235 ${START_TEMP} 500.0 928347
fix                 4 water temp/csvr 235 235 500.0 928347

# Run 0.05 ns equilibration
#
dump                1 all custom 100 ${DIR}/eq.${NAME}.dump id type x y z vx vy vz
dump                1 all custom 100 run_6/eq.${NAME}.dump id type x y z vx vy vz
dump                1 all custom 100 run_6/eq.ibeam_cooling_6.dump id type x y z vx vy vz
run                 10000
Neighbor list info ...
  update every 1 steps, delay 0 steps, check yes
  max neighbors/atom: 2000, page size: 100000
  master list distance cutoff = 6.67472
  ghost atom cutoff = 6.67472
  binsize = 3.33736, bins = 48 11 12
  1 neighbor lists, perpetual/occasional/extra = 1 0 0
  (1) pair sw, perpetual
      attributes: full, newton on
      pair build: full/bin/atomonly
      stencil: full/bin/3d
      bin: standard
Per MPI rank memory allocation (min/avg/max) = 3.374 | 4.219 | 4.781 Mbytes
Step c_2 Press Volume TotEng KinEng PotEng c_1[4] Density 
       0          235    -169.9624    229018.04   -21244.698    1556.4896   -22801.188            0   0.87555383 
     100    237.88287   -204.85853    229018.04   -21226.662    1575.5839   -22802.246   0.83883433   0.87555383 
     200    235.09641   -370.66177    229018.04   -21288.024    1557.1282   -22845.152    1.1938411   0.87555383 
     300    236.38809   -337.60316    229018.04    -21284.02    1565.6834   -22849.704    1.5975038   0.87555383 
     400    236.33046   -293.95999    229018.04   -21295.246    1565.3017   -22860.548    1.9733591   0.87555383 
     500      231.093   -251.33936    229018.04   -21291.023    1530.6121   -22821.635    2.3035494   0.87555383 
     600    226.57323   -350.56647    229018.04   -21397.096     1500.676   -22897.772     2.665681   0.87555383 
     700    229.77726   -316.40675    229018.04   -21368.736    1521.8975   -22890.634     3.055321   0.87555383 
     800    227.33063   -349.07703    229018.04   -21410.862    1505.6926   -22916.555    3.3632508   0.87555383 
     900    232.03706   -563.29678    229018.04   -21374.826    1536.8649   -22911.691    3.4653682   0.87555383 
    1000    238.12668   -332.27089    229018.04   -21322.239    1577.1987   -22899.438    3.7710931   0.87555383 
    1100    232.95069   -295.61903    229018.04   -21333.925    1542.9163   -22876.841    4.2466059   0.87555383 
    1200    230.11757   -153.11624    229018.04   -21384.235    1524.1515   -22908.386    4.5756829   0.87555383 
    1300    233.19905   -201.29287    229018.04   -21336.478    1544.5613   -22881.039     4.759231   0.87555383 
    1400    239.48482   -96.322672    229018.04   -21277.369    1586.1942   -22863.563    4.8954451   0.87555383 
    1500    236.65474   -398.69095    229018.04   -21273.827    1567.4495   -22841.277         5.24   0.87555383 
    1600    239.03314   -259.03535    229018.04   -21261.018    1583.2025    -22844.22    5.5269618   0.87555383 
    1700    242.22926   -297.37062    229018.04   -21284.769    1604.3715   -22889.141    5.5657532   0.87555383 
    1800    236.52274   -262.29423    229018.04   -21300.059    1566.5752   -22866.635    5.7478023   0.87555383 
    1900    236.57921   -114.14482    229018.04   -21231.529    1566.9493   -22798.478    6.0284655   0.87555383 
    2000    242.53264   -322.54346    229018.04   -21212.613    1606.3809   -22818.994    6.5031255   0.87555383 
    2100    239.64526   -439.42111    229018.04   -21245.117    1587.2568   -22832.374    6.9341987   0.87555383 
    2200    242.86284   -295.59039    229018.04   -21245.178     1608.568   -22853.746    7.2543421   0.87555383 
    2300    238.71417   -213.61085    229018.04    -21310.99    1581.0898    -22892.08     7.339333   0.87555383 
    2400    244.77902   -147.28308    229018.04   -21323.518    1621.2595   -22944.778    7.6891699   0.87555383 
    2500    241.68999   -302.20849    229018.04   -21310.822    1600.7998   -22911.622     8.087917   0.87555383 
    2600     240.9947   -351.25844    229018.04   -21351.536    1596.1946   -22947.731    8.3822945   0.87555383 
    2700    240.07303   -327.25094    229018.04   -21331.115    1590.0901   -22921.205    8.6271767   0.87555383 
    2800    239.11347    -229.4831    229018.04   -21340.787    1583.7346   -22924.522    8.9413111   0.87555383 
    2900    231.80087   -226.59457    229018.04   -21395.333    1535.3006   -22930.633     9.133894   0.87555383 
    3000     226.7404   -253.57436    229018.04   -21430.121    1501.7833   -22931.904    9.4484373   0.87555383 
    3100    227.59277   -312.45401    229018.04   -21424.274    1507.4288   -22931.703    9.5725035   0.87555383 
    3200    227.73741   -273.82321    229018.04   -21439.329    1508.3868   -22947.716    9.7891176   0.87555383 
    3300    235.25631   -422.99487    229018.04   -21403.554    1558.1872   -22961.741    10.069004   0.87555383 
    3400    231.48105   -297.46315    229018.04   -21401.048    1533.1823    -22934.23    10.362986   0.87555383 
    3500    233.74757   -383.61027    229018.04   -21413.391    1548.1943   -22961.586    10.575318   0.87555383 
    3600    239.13633   -402.74762    229018.04   -21414.944     1583.886    -22998.83    10.819266   0.87555383 
    3700    232.54564   -281.96329    229018.04   -21436.142    1540.2335   -22976.376    11.241037   0.87555383 
    3800    224.20199   -439.15244    229018.04   -21424.292    1484.9705   -22909.263    11.762535   0.87555383 
    3900      239.124   -350.10669    229018.04   -21421.535    1583.8043   -23005.339    12.105061   0.87555383 
    4000    232.94533   -264.62948    229018.04   -21442.022    1542.8807   -22984.903    12.544126   0.87555383 
    4100    232.41396   -377.29322    229018.04    -21410.18    1539.3613   -22949.541    12.764019   0.87555383 
    4200    234.81042   -335.82068    229018.04    -21384.04    1555.2339   -22939.274    12.961559   0.87555383 
    4300    242.60086   -268.19192    229018.04   -21289.372    1606.8328   -22896.205    13.198183   0.87555383 
    4400    234.11336   -204.71875    229018.04   -21290.469     1550.617   -22841.086    13.628399   0.87555383 
    4500    231.55333   -347.49946    229018.04   -21339.175    1533.6611   -22872.836     14.14505   0.87555383 
    4600    238.03347   -435.99206    229018.04    -21358.63    1576.5813   -22935.211    14.314596   0.87555383 
    4700    230.06754   -356.46424    229018.04   -21389.936    1523.8201   -22913.757    14.309679   0.87555383 
    4800    242.05324   -202.21282    229018.04   -21341.794    1603.2057       -22945    14.629323   0.87555383 
    4900    227.15134   -371.05925    229018.04   -21350.624    1504.5051   -22855.129     14.95527   0.87555383 
    5000    230.01894   -302.66806    229018.04   -21370.373    1523.4982   -22893.871    15.344955   0.87555383 
    5100    232.85855   -487.67154    229018.04   -21368.898     1542.306   -22911.204    15.638942   0.87555383 
    5200    234.72605   -321.76585    229018.04   -21341.508    1554.6751   -22896.183    15.598124   0.87555383 
    5300    234.73525   -528.81223    229018.04   -21386.712    1554.7361   -22941.448    15.694951   0.87555383 
    5400    230.90059   -174.95993    229018.04     -21357.6    1529.3377   -22886.938    15.899411   0.87555383 
    5500    230.49749   -319.49648    229018.04    -21391.49    1526.6678   -22918.158    16.271388   0.87555383 
    5600    228.27365      -164.51    229018.04   -21398.876    1511.9385   -22910.815    16.441143   0.87555383 
    5700    233.86325   -319.48399    229018.04   -21370.685    1548.9605   -22919.645    16.713149   0.87555383 
    5800    233.76088   -263.08314    229018.04   -21280.263    1548.2825   -22828.546    17.128529   0.87555383 
    5900    233.68784   -416.57347    229018.04   -21298.794    1547.7987   -22846.593     17.52055   0.87555383 
    6000     227.1317   -344.38819    229018.04   -21374.545     1504.375    -22878.92    17.851528   0.87555383 
    6100     227.7741    -365.7722    229018.04   -21356.466    1508.6299   -22865.096    18.127367   0.87555383 
    6200    234.95998    -245.6263    229018.04   -21323.864    1556.2245   -22880.089    18.483113   0.87555383 
    6300    234.65022   -392.53787    229018.04   -21273.539    1554.1728   -22827.712    18.563378   0.87555383 
    6400     240.8818   -354.01346    229018.04   -21262.381    1595.4468   -22857.828    18.769626   0.87555383 
    6500    235.26744   -250.23805    229018.04   -21281.654    1558.2609   -22839.915    19.163604   0.87555383 
    6600    236.06334   -319.17858    229018.04   -21327.407    1563.5325    -22890.94    19.516167   0.87555383 
    6700    233.15917   -269.05596    229018.04    -21373.43    1544.2971   -22917.727    19.852806   0.87555383 
    6800     229.7441   -215.61029    229018.04   -21339.323    1521.6779   -22861.001    20.183647   0.87555383 
    6900    225.62533   -369.69369    229018.04   -21364.734    1494.3978   -22859.132    20.832347   0.87555383 
    7000    230.25012   -231.62763    229018.04   -21379.451    1525.0294   -22904.481    21.232963   0.87555383 
    7100    237.18962   -162.12919    229018.04   -21294.139    1570.9922   -22865.132    21.798485   0.87555383 
    7200     230.1696   -417.93014    229018.04   -21293.928    1524.4961   -22818.424    22.173096   0.87555383 
    7300    231.98399   -323.04182    229018.04   -21358.553    1536.5135   -22895.066    22.737933   0.87555383 
    7400    234.57491   -234.31718    229018.04   -21360.601     1553.674   -22914.276    22.806527   0.87555383 
    7500    226.95645   -386.09436    229018.04    -21395.43    1503.2143   -22898.645    22.714953   0.87555383 
    7600    230.75086   -334.81988    229018.04   -21407.248     1528.346   -22935.594    22.890237   0.87555383 
    7700    232.14067   -297.75592    229018.04   -21366.304    1537.5512   -22903.855    23.030414   0.87555383 
    7800    235.69057   -324.75863    229018.04   -21307.976    1561.0635   -22869.039    23.005399   0.87555383 
    7900    235.66107    -320.9417    229018.04   -21279.389    1560.8681   -22840.257    23.415476   0.87555383 
    8000    235.57986   -203.46845    229018.04   -21274.882    1560.3302   -22835.212    24.027736   0.87555383 
    8100    232.37354   -434.72883    229018.04   -21298.714    1539.0936   -22837.808    24.287301   0.87555383 
    8200    236.44811   -308.59823    229018.04    -21335.47    1566.0809   -22901.551    24.823753   0.87555383 
    8300    237.19424   -447.47211    229018.04   -21348.898    1571.0228   -22919.921    25.492158   0.87555383 
    8400    232.25985   -358.54144    229018.04   -21340.642    1538.3406   -22878.983    26.114382   0.87555383 
    8500    228.89699   -249.98826    229018.04   -21334.673    1516.0672    -22850.74    26.546833   0.87555383 
    8600    230.40701   -204.39282    229018.04   -21297.365    1526.0686   -22823.433    27.022183   0.87555383 
    8700    228.79405   -391.06675    229018.04   -21361.075    1515.3854    -22876.46    27.888152   0.87555383 
    8800    238.89414   -318.01515    229018.04   -21300.252    1582.2819   -22882.534    28.577835   0.87555383 
    8900     231.8158   -353.19908    229018.04   -21337.965    1535.3995   -22873.365    28.995041   0.87555383 
    9000    232.63228   -340.76225    229018.04   -21301.787    1540.8073   -22842.595    29.104625   0.87555383 
    9100    233.35733   -423.35735    229018.04   -21286.378    1545.6096   -22831.988      29.8277   0.87555383 
    9200    234.27995   -269.30371    229018.04   -21313.672    1551.7204   -22865.393    30.205925   0.87555383 
    9300    227.61333   -192.61436    229018.04   -21343.881     1507.565   -22851.446    30.674929   0.87555383 
    9400     235.7881    -232.8065    229018.04   -21382.909    1561.7095   -22944.619    31.043027   0.87555383 
    9500    228.87416   -288.88282    229018.04    -21337.83     1515.916   -22853.746     31.47021   0.87555383 
    9600    226.21442   -349.74805    229018.04   -21401.373    1498.2995   -22899.672    31.868332   0.87555383 
    9700    237.95997   -88.266171    229018.04   -21353.244    1576.0945   -22929.338    31.971291   0.87555383 
    9800    232.03281   -440.61602    229018.04   -21347.478    1536.8368   -22884.314     32.35314   0.87555383 
    9900    241.76237   -267.12635    229018.04   -21313.302    1601.2792   -22914.581    32.773905   0.87555383 
   10000    238.33395   -296.22507    229018.04   -21236.504    1578.5715   -22815.076    33.175383   0.87555383 
Loop time of 30.2409 on 60 procs for 10000 steps with 8943 atoms

Performance: 142.853 ns/day, 0.168 hours/ns, 330.678 timesteps/s
98.1% CPU use with 60 MPI tasks x no OpenMP threads

MPI task timing breakdown:
Section |  min time  |  avg time  |  max time  |%varavg| %total
---------------------------------------------------------------
Pair    | 0.00066566 | 8.2131     | 27.172     | 355.2 | 27.16
Neigh   | 0.0028672  | 0.25258    | 0.73391    |  53.0 |  0.84
Comm    | 0.20019    | 8.9132     | 27.502     | 331.6 | 29.47
Output  | 0.16058    | 0.16086    | 0.1676     |   0.2 |  0.53
Modify  | 0.38118    | 12.565     | 29.73      | 370.6 | 41.55
Other   |            | 0.136      |            |       |  0.45

Nlocal:    149.05 ave 376 max 0 min
Histogram: 24 0 5 11 0 0 0 0 5 15
Nghost:    818.167 ave 1298 max 360 min
Histogram: 10 2 0 4 20 4 4 4 4 8
Neighs:    0 ave 0 max 0 min
Histogram: 60 0 0 0 0 0 0 0 0 0
FullNghs:  15036.9 ave 45126 max 0 min
Histogram: 28 12 0 0 0 0 0 2 10 8

Total # of neighbors = 902214
Ave neighs/atom = 100.885
Neighbor list builds = 560
Dangerous builds = 0
write_data 	    ${DIR}/data.${NAME}_eq
write_data 	    run_6/data.${NAME}_eq
write_data 	    run_6/data.ibeam_cooling_6_eq

undump              1
unfix               4



################################################
#######         Run Simulation         #########
################################################

reset_timestep      0
timestep	    10.0
log                 ${DIR}/log.run_${NAME}
log                 run_6/log.run_${NAME}
log                 run_6/log.run_ibeam_cooling_6
