LAMMPS data file via write_data, version 16 Mar 2018, timestep = 5200000

8482 atoms
2 atom types

0.0000000000000000e+00 1.8998919999999998e+02 xlo xhi
0.0000000000000000e+00 2.6999900000000000e+01 ylo yhi
0.0000000000000000e+00 3.9850446357588666e+01 zlo zhi

Masses

1 12.01
2 18.015

Atoms # atomic

1 1 0.0000000000000000e+00 2.8417180249513345e+00 1.6770000000000000e+00 0 0 0
3 1 0.0000000000000000e+00 0.0000000000000000e+00 1.6770000000000000e+00 0 0 0
5 1 1.2304999999999999e+00 7.1042950623783474e-01 1.6770000000000000e+00 0 0 0
12 1 1.2304999999999999e+00 2.1312885187134998e+00 1.6770000000000000e+00 0 0 0
14 1 2.4609999999999999e+00 2.8417180249513345e+00 1.6770000000000000e+00 0 0 0
16 1 2.4609999999999999e+00 0.0000000000000000e+00 1.6770000000000000e+00 0 0 0
18 1 3.6915000000000000e+00 7.1042950623783474e-01 1.6770000000000000e+00 0 0 0
33 1 3.6914999999999996e+00 2.1312885187134998e+00 1.6770000000000000e+00 0 0 0
35 1 4.9219999999999997e+00 2.8417180249513341e+00 1.6770000000000000e+00 0 0 0
37 1 4.9219999999999997e+00 0.0000000000000000e+00 1.6770000000000000e+00 0 0 0
39 1 6.1524999999999999e+00 7.1042950623783430e-01 1.6770000000000000e+00 0 0 0
62 1 6.1524999999999999e+00 2.1312885187134993e+00 1.6770000000000000e+00 0 0 0
64 1 7.3829999999999991e+00 2.8417180249513345e+00 1.6770000000000000e+00 0 0 0
66 1 7.3829999999999991e+00 0.0000000000000000e+00 1.6770000000000000e+00 0 0 0
68 1 8.6134999999999984e+00 7.1042950623783430e-01 1.6770000000000000e+00 0 0 0
99 1 8.6134999999999984e+00 2.1312885187135002e+00 1.6770000000000000e+00 0 0 0
8 1 0.0000000000000000e+00 4.2625770374269996e+00 1.6770000000000000e+00 0 0 0
10 1 1.2305000000000001e+00 4.9730065436648339e+00 1.6770000000000000e+00 0 0 0
25 1 1.2304999999999999e+00 6.3938655561404989e+00 1.6770000000000000e+00 0 0 0
29 1 2.4609999999999999e+00 4.2625770374269996e+00 1.6770000000000000e+00 0 0 0
31 1 3.6914999999999996e+00 4.9730065436648339e+00 1.6770000000000000e+00 0 0 0
54 1 3.6914999999999996e+00 6.3938655561404989e+00 1.6770000000000000e+00 0 0 0
58 1 4.9219999999999997e+00 4.2625770374269987e+00 1.6770000000000000e+00 0 0 0
60 1 6.1524999999999999e+00 4.9730065436648339e+00 1.6770000000000000e+00 0 0 0
91 1 6.1524999999999999e+00 6.3938655561404989e+00 1.6770000000000000e+00 0 0 0
95 1 7.3829999999999991e+00 4.2625770374269996e+00 1.6770000000000000e+00 0 0 0
97 1 8.6135000000000002e+00 4.9730065436648339e+00 1.6770000000000000e+00 0 0 0
136 1 8.6135000000000002e+00 6.3938655561404998e+00 1.6770000000000000e+00 0 0 0
6 1 0.0000000000000000e+00 7.1042950623783341e+00 1.6770000000000000e+00 0 0 0
21 1 0.0000000000000000e+00 8.5251540748539991e+00 1.6770000000000000e+00 0 0 0
23 1 1.2304999999999997e+00 9.2355835810918343e+00 1.6770000000000000e+00 0 0 0
27 1 2.4609999999999999e+00 7.1042950623783341e+00 1.6770000000000000e+00 0 0 0
50 1 2.4609999999999994e+00 8.5251540748539991e+00 1.6770000000000000e+00 0 0 0
52 1 3.6915000000000000e+00 9.2355835810918343e+00 1.6770000000000000e+00 0 0 0
56 1 4.9219999999999997e+00 7.1042950623783341e+00 1.6770000000000000e+00 0 0 0
87 1 4.9219999999999997e+00 8.5251540748539991e+00 1.6770000000000000e+00 0 0 0
89 1 6.1524999999999999e+00 9.2355835810918343e+00 1.6770000000000000e+00 0 0 0
93 1 7.3830000000000000e+00 7.1042950623783341e+00 1.6770000000000000e+00 0 0 0
132 1 7.3830000000000000e+00 8.5251540748539991e+00 1.6770000000000000e+00 0 0 0
134 1 8.6134999999999984e+00 9.2355835810918343e+00 1.6770000000000000e+00 0 0 0
19 1 0.0000000000000000e+00 1.1366872099805333e+01 1.6770000000000000e+00 0 0 0
42 1 0.0000000000000000e+00 1.2787731112280998e+01 1.6770000000000000e+00 0 0 0
44 1 1.2305000000000001e+00 1.3498160618518833e+01 1.6770000000000000e+00 0 0 0
46 1 1.2304999999999997e+00 1.0656442593567498e+01 1.6770000000000000e+00 0 0 0
48 1 2.4609999999999999e+00 1.1366872099805335e+01 1.6770000000000000e+00 0 0 0
79 1 2.4609999999999999e+00 1.2787731112280998e+01 1.6770000000000000e+00 0 0 0
81 1 3.6915000000000000e+00 1.3498160618518833e+01 1.6770000000000000e+00 0 0 0
83 1 3.6914999999999996e+00 1.0656442593567499e+01 1.6770000000000000e+00 0 0 0
85 1 4.9219999999999997e+00 1.1366872099805333e+01 1.6770000000000000e+00 0 0 0
124 1 4.9219999999999997e+00 1.2787731112281000e+01 1.6770000000000000e+00 0 0 0
126 1 6.1524999999999990e+00 1.3498160618518833e+01 1.6770000000000000e+00 0 0 0
128 1 6.1524999999999999e+00 1.0656442593567499e+01 1.6770000000000000e+00 0 0 0
130 1 7.3829999999999991e+00 1.1366872099805335e+01 1.6770000000000000e+00 0 0 0
176 1 7.3829999999999991e+00 1.2787731112280998e+01 1.6770000000000000e+00 0 0 0
178 1 8.6135000000000002e+00 1.3498160618518835e+01 1.6770000000000000e+00 0 0 0
180 1 8.6134999999999984e+00 1.0656442593567498e+01 1.6770000000000000e+00 0 0 0
2 1 0.0000000000000000e+00 1.4208590124756650e+00 5.0310000000000006e+00 0 0 0
4 1 0.0000000000000000e+00 0.0000000000000000e+00 5.0310000000000006e+00 0 0 0
13 1 1.2304999999999999e+00 2.1312885187134998e+00 5.0310000000000006e+00 0 0 0
15 1 2.4609999999999999e+00 1.4208590124756650e+00 5.0310000000000006e+00 0 0 0
17 1 2.4609999999999999e+00 0.0000000000000000e+00 5.0310000000000006e+00 0 0 0
34 1 3.6914999999999996e+00 2.1312885187134998e+00 5.0310000000000006e+00 0 0 0
340 1 0.0000000000000000e+00 2.8417180249513345e+00 8.3849999999999998e+00 0 0 0
341 1 0.0000000000000000e+00 0.0000000000000000e+00 8.3849999999999998e+00 0 0 0
342 1 1.2304999999999999e+00 7.1042950623783474e-01 8.3849999999999998e+00 0 0 0
346 1 1.2304999999999999e+00 2.1312885187134998e+00 8.3849999999999998e+00 0 0 0
347 1 2.4609999999999999e+00 2.8417180249513345e+00 8.3849999999999998e+00 0 0 0
348 1 2.4609999999999999e+00 0.0000000000000000e+00 8.3849999999999998e+00 0 0 0
349 1 3.6915000000000000e+00 7.1042950623783474e-01 8.3849999999999998e+00 0 0 0
357 1 3.6914999999999996e+00 2.1312885187134998e+00 8.3849999999999998e+00 0 0 0
36 1 4.9219999999999997e+00 1.4208590124756650e+00 5.0310000000000006e+00 0 0 0
38 1 4.9219999999999997e+00 0.0000000000000000e+00 5.0310000000000006e+00 0 0 0
63 1 6.1524999999999999e+00 2.1312885187134993e+00 5.0310000000000006e+00 0 0 0
65 1 7.3829999999999991e+00 1.4208590124756659e+00 5.0310000000000006e+00 0 0 0
67 1 7.3829999999999991e+00 0.0000000000000000e+00 5.0310000000000006e+00 0 0 0
100 1 8.6134999999999984e+00 2.1312885187135002e+00 5.0310000000000006e+00 0 0 0
358 1 4.9219999999999997e+00 2.8417180249513341e+00 8.3849999999999998e+00 0 0 0
359 1 4.9219999999999997e+00 0.0000000000000000e+00 8.3849999999999998e+00 0 0 0
360 1 6.1524999999999999e+00 7.1042950623783430e-01 8.3849999999999998e+00 0 0 0
372 1 6.1524999999999999e+00 2.1312885187134993e+00 8.3849999999999998e+00 0 0 0
373 1 7.3829999999999991e+00 2.8417180249513345e+00 8.3849999999999998e+00 0 0 0
374 1 7.3829999999999991e+00 0.0000000000000000e+00 8.3849999999999998e+00 0 0 0
375 1 8.6134999999999984e+00 7.1042950623783430e-01 8.3849999999999998e+00 0 0 0
391 1 8.6134999999999984e+00 2.1312885187135002e+00 8.3849999999999998e+00 0 0 0
7 1 0.0000000000000000e+00 5.6834360499026646e+00 5.0310000000000006e+00 0 0 0
9 1 0.0000000000000000e+00 4.2625770374269996e+00 5.0310000000000006e+00 0 0 0
11 1 1.2304999999999999e+00 3.5521475311891648e+00 5.0310000000000006e+00 0 0 0
26 1 1.2304999999999999e+00 6.3938655561404989e+00 5.0310000000000006e+00 0 0 0
28 1 2.4609999999999999e+00 5.6834360499026646e+00 5.0310000000000006e+00 0 0 0
30 1 2.4609999999999999e+00 4.2625770374269996e+00 5.0310000000000006e+00 0 0 0
32 1 3.6914999999999996e+00 3.5521475311891648e+00 5.0310000000000006e+00 0 0 0
55 1 3.6914999999999996e+00 6.3938655561404989e+00 5.0310000000000006e+00 0 0 0
344 1 0.0000000000000000e+00 4.2625770374269996e+00 8.3849999999999998e+00 0 0 0
345 1 1.2305000000000001e+00 4.9730065436648339e+00 8.3849999999999998e+00 0 0 0
353 1 1.2304999999999999e+00 6.3938655561404989e+00 8.3849999999999998e+00 0 0 0
355 1 2.4609999999999999e+00 4.2625770374269996e+00 8.3849999999999998e+00 0 0 0
356 1 3.6914999999999996e+00 4.9730065436648339e+00 8.3849999999999998e+00 0 0 0
368 1 3.6914999999999996e+00 6.3938655561404989e+00 8.3849999999999998e+00 0 0 0
57 1 4.9219999999999997e+00 5.6834360499026655e+00 5.0310000000000006e+00 0 0 0
59 1 4.9219999999999997e+00 4.2625770374269987e+00 5.0310000000000006e+00 0 0 0
61 1 6.1524999999999999e+00 3.5521475311891653e+00 5.0310000000000006e+00 0 0 0
92 1 6.1524999999999999e+00 6.3938655561404989e+00 5.0310000000000006e+00 0 0 0
94 1 7.3829999999999991e+00 5.6834360499026655e+00 5.0310000000000006e+00 0 0 0
96 1 7.3829999999999991e+00 4.2625770374269996e+00 5.0310000000000006e+00 0 0 0
98 1 8.6134999999999984e+00 3.5521475311891662e+00 5.0310000000000006e+00 0 0 0
137 1 8.6135000000000002e+00 6.3938655561404998e+00 5.0310000000000006e+00 0 0 0
370 1 4.9219999999999997e+00 4.2625770374269987e+00 8.3849999999999998e+00 0 0 0
371 1 6.1524999999999999e+00 4.9730065436648339e+00 8.3849999999999998e+00 0 0 0
387 1 6.1524999999999999e+00 6.3938655561404989e+00 8.3849999999999998e+00 0 0 0
389 1 7.3829999999999991e+00 4.2625770374269996e+00 8.3849999999999998e+00 0 0 0
390 1 8.6135000000000002e+00 4.9730065436648339e+00 8.3849999999999998e+00 0 0 0
410 1 8.6135000000000002e+00 6.3938655561404998e+00 8.3849999999999998e+00 0 0 0
20 1 0.0000000000000000e+00 9.9460130873296642e+00 5.0310000000000006e+00 0 0 0
22 1 0.0000000000000000e+00 8.5251540748539991e+00 5.0310000000000006e+00 0 0 0
24 1 1.2304999999999997e+00 7.8147245686161639e+00 5.0310000000000006e+00 0 0 0
49 1 2.4609999999999994e+00 9.9460130873296642e+00 5.0310000000000006e+00 0 0 0
51 1 2.4609999999999994e+00 8.5251540748539991e+00 5.0310000000000006e+00 0 0 0
53 1 3.6914999999999996e+00 7.8147245686161648e+00 5.0310000000000006e+00 0 0 0
343 1 0.0000000000000000e+00 7.1042950623783341e+00 8.3849999999999998e+00 0 0 0
351 1 0.0000000000000000e+00 8.5251540748539991e+00 8.3849999999999998e+00 0 0 0
352 1 1.2304999999999997e+00 9.2355835810918343e+00 8.3849999999999998e+00 0 0 0
354 1 2.4609999999999999e+00 7.1042950623783341e+00 8.3849999999999998e+00 0 0 0
366 1 2.4609999999999994e+00 8.5251540748539991e+00 8.3849999999999998e+00 0 0 0
367 1 3.6915000000000000e+00 9.2355835810918343e+00 8.3849999999999998e+00 0 0 0
86 1 4.9219999999999997e+00 9.9460130873296659e+00 5.0310000000000006e+00 0 0 0
88 1 4.9219999999999997e+00 8.5251540748539991e+00 5.0310000000000006e+00 0 0 0
90 1 6.1524999999999999e+00 7.8147245686161657e+00 5.0310000000000006e+00 0 0 0
131 1 7.3830000000000000e+00 9.9460130873296642e+00 5.0310000000000006e+00 0 0 0
133 1 7.3830000000000000e+00 8.5251540748539991e+00 5.0310000000000006e+00 0 0 0
135 1 8.6135000000000002e+00 7.8147245686161639e+00 5.0310000000000006e+00 0 0 0
369 1 4.9219999999999997e+00 7.1042950623783341e+00 8.3849999999999998e+00 0 0 0
385 1 4.9219999999999997e+00 8.5251540748539991e+00 8.3849999999999998e+00 0 0 0
386 1 6.1524999999999999e+00 9.2355835810918343e+00 8.3849999999999998e+00 0 0 0
388 1 7.3830000000000000e+00 7.1042950623783341e+00 8.3849999999999998e+00 0 0 0
408 1 7.3830000000000000e+00 8.5251540748539991e+00 8.3849999999999998e+00 0 0 0
409 1 8.6134999999999984e+00 9.2355835810918343e+00 8.3849999999999998e+00 0 0 0
43 1 0.0000000000000000e+00 1.2787731112280998e+01 5.0310000000000006e+00 0 0 0
45 1 1.2304999999999997e+00 1.2077301606043164e+01 5.0310000000000006e+00 0 0 0
47 1 1.2304999999999997e+00 1.0656442593567498e+01 5.0310000000000006e+00 0 0 0
80 1 2.4609999999999999e+00 1.2787731112280998e+01 5.0310000000000006e+00 0 0 0
82 1 3.6914999999999996e+00 1.2077301606043164e+01 5.0310000000000006e+00 0 0 0
84 1 3.6914999999999996e+00 1.0656442593567499e+01 5.0310000000000006e+00 0 0 0
350 1 0.0000000000000000e+00 1.1366872099805333e+01 8.3849999999999998e+00 0 0 0
362 1 0.0000000000000000e+00 1.2787731112280998e+01 8.3849999999999998e+00 0 0 0
363 1 1.2305000000000001e+00 1.3498160618518833e+01 8.3849999999999998e+00 0 0 0
364 1 1.2304999999999997e+00 1.0656442593567498e+01 8.3849999999999998e+00 0 0 0
365 1 2.4609999999999999e+00 1.1366872099805335e+01 8.3849999999999998e+00 0 0 0
381 1 2.4609999999999999e+00 1.2787731112280998e+01 8.3849999999999998e+00 0 0 0
382 1 3.6915000000000000e+00 1.3498160618518833e+01 8.3849999999999998e+00 0 0 0
383 1 3.6914999999999996e+00 1.0656442593567499e+01 8.3849999999999998e+00 0 0 0
125 1 4.9219999999999997e+00 1.2787731112281000e+01 5.0310000000000006e+00 0 0 0
127 1 6.1524999999999999e+00 1.2077301606043164e+01 5.0310000000000006e+00 0 0 0
129 1 6.1524999999999999e+00 1.0656442593567499e+01 5.0310000000000006e+00 0 0 0
177 1 7.3829999999999991e+00 1.2787731112280998e+01 5.0310000000000006e+00 0 0 0
179 1 8.6135000000000002e+00 1.2077301606043164e+01 5.0310000000000006e+00 0 0 0
181 1 8.6134999999999984e+00 1.0656442593567498e+01 5.0310000000000006e+00 0 0 0
384 1 4.9219999999999997e+00 1.1366872099805333e+01 8.3849999999999998e+00 0 0 0
404 1 4.9219999999999997e+00 1.2787731112281000e+01 8.3849999999999998e+00 0 0 0
405 1 6.1524999999999990e+00 1.3498160618518833e+01 8.3849999999999998e+00 0 0 0
406 1 6.1524999999999999e+00 1.0656442593567499e+01 8.3849999999999998e+00 0 0 0
407 1 7.3829999999999991e+00 1.1366872099805335e+01 8.3849999999999998e+00 0 0 0
430 1 7.3829999999999991e+00 1.2787731112280998e+01 8.3849999999999998e+00 0 0 0
431 1 8.6135000000000002e+00 1.3498160618518835e+01 8.3849999999999998e+00 0 0 0
432 1 8.6134999999999984e+00 1.0656442593567498e+01 8.3849999999999998e+00 0 0 0
40 1 0.0000000000000000e+00 1.5629449137232333e+01 1.6770000000000000e+00 0 0 0
75 1 1.2305000000000001e+00 1.4919019630994498e+01 1.6770000000000000e+00 0 0 0
77 1 2.4610000000000003e+00 1.5629449137232331e+01 1.6770000000000000e+00 0 0 0
120 1 3.6915000000000000e+00 1.4919019630994498e+01 1.6770000000000000e+00 0 0 0
122 1 4.9219999999999988e+00 1.5629449137232333e+01 1.6770000000000000e+00 0 0 0
172 1 6.1524999999999990e+00 1.4919019630994498e+01 1.6770000000000000e+00 0 0 0
174 1 7.3829999999999991e+00 1.5629449137232333e+01 1.6770000000000000e+00 0 0 0
223 1 8.6135000000000002e+00 1.4919019630994498e+01 1.6770000000000000e+00 0 0 0
69 1 0.0000000000000000e+00 1.9892026174659332e+01 1.6770000000000000e+00 0 0 0
71 1 0.0000000000000000e+00 1.7050308149707998e+01 1.6770000000000000e+00 0 0 0
73 1 1.2305000000000001e+00 1.7760737655945832e+01 1.6770000000000000e+00 0 0 0
112 1 1.2305000000000001e+00 1.9181596668421498e+01 1.6770000000000000e+00 0 0 0
114 1 2.4609999999999994e+00 1.9892026174659332e+01 1.6770000000000000e+00 0 0 0
116 1 2.4610000000000003e+00 1.7050308149707998e+01 1.6770000000000000e+00 0 0 0
118 1 3.6914999999999996e+00 1.7760737655945832e+01 1.6770000000000000e+00 0 0 0
164 1 3.6914999999999996e+00 1.9181596668421498e+01 1.6770000000000000e+00 0 0 0
166 1 4.9219999999999997e+00 1.9892026174659332e+01 1.6770000000000000e+00 0 0 0
168 1 4.9219999999999988e+00 1.7050308149707998e+01 1.6770000000000000e+00 0 0 0
170 1 6.1524999999999999e+00 1.7760737655945832e+01 1.6770000000000000e+00 0 0 0
215 1 6.1524999999999999e+00 1.9181596668421498e+01 1.6770000000000000e+00 0 0 0
217 1 7.3829999999999991e+00 1.9892026174659332e+01 1.6770000000000000e+00 0 0 0
219 1 7.3830000000000000e+00 1.7050308149707998e+01 1.6770000000000000e+00 0 0 0
221 1 8.6134999999999984e+00 1.7760737655945832e+01 1.6770000000000000e+00 0 0 0
258 1 8.6135000000000002e+00 1.9181596668421498e+01 1.6770000000000000e+00 0 0 0
108 1 0.0000000000000000e+00 2.1312885187134999e+01 1.6770000000000000e+00 0 0 0
110 1 1.2304999999999993e+00 2.2023314693372832e+01 1.6770000000000000e+00 0 0 0
156 1 1.2304999999999993e+00 2.3444173705848499e+01 1.6770000000000000e+00 0 0 0
160 1 2.4609999999999994e+00 2.1312885187134995e+01 1.6770000000000000e+00 0 0 0
162 1 3.6914999999999996e+00 2.2023314693372832e+01 1.6770000000000000e+00 0 0 0
207 1 3.6915000000000004e+00 2.3444173705848499e+01 1.6770000000000000e+00 0 0 0
211 1 4.9220000000000006e+00 2.1312885187134995e+01 1.6770000000000000e+00 0 0 0
213 1 6.1524999999999990e+00 2.2023314693372832e+01 1.6770000000000000e+00 0 0 0
250 1 6.1524999999999999e+00 2.3444173705848499e+01 1.6770000000000000e+00 0 0 0
254 1 7.3829999999999991e+00 2.1312885187134999e+01 1.6770000000000000e+00 0 0 0
256 1 8.6135000000000002e+00 2.2023314693372836e+01 1.6770000000000000e+00 0 0 0
285 1 8.6134999999999984e+00 2.3444173705848499e+01 1.6770000000000000e+00 0 0 0
106 1 0.0000000000000000e+00 2.4154603212086332e+01 1.6770000000000000e+00 0 0 0
152 1 0.0000000000000000e+00 2.5575462224561996e+01 1.6770000000000000e+00 0 0 0
154 1 1.2305000000000001e+00 2.6285891730799833e+01 1.6770000000000000e+00 0 0 0
158 1 2.4609999999999994e+00 2.4154603212086332e+01 1.6770000000000000e+00 0 0 0
203 1 2.4610000000000003e+00 2.5575462224561996e+01 1.6770000000000000e+00 0 0 0
205 1 3.6914999999999987e+00 2.6285891730799833e+01 1.6770000000000000e+00 0 0 0
209 1 4.9219999999999988e+00 2.4154603212086332e+01 1.6770000000000000e+00 0 0 0
246 1 4.9219999999999997e+00 2.5575462224561996e+01 1.6770000000000000e+00 0 0 0
248 1 6.1524999999999999e+00 2.6285891730799836e+01 1.6770000000000000e+00 0 0 0
252 1 7.3830000000000000e+00 2.4154603212086336e+01 1.6770000000000000e+00 0 0 0
281 1 7.3829999999999991e+00 2.5575462224561996e+01 1.6770000000000000e+00 0 0 0
283 1 8.6135000000000019e+00 2.6285891730799836e+01 1.6770000000000000e+00 0 0 0
41 1 0.0000000000000000e+00 1.4208590124756665e+01 5.0310000000000006e+00 0 0 0
74 1 1.2305000000000001e+00 1.6339878643470165e+01 5.0310000000000006e+00 0 0 0
76 1 1.2305000000000001e+00 1.4919019630994498e+01 5.0310000000000006e+00 0 0 0
78 1 2.4609999999999999e+00 1.4208590124756665e+01 5.0310000000000006e+00 0 0 0
119 1 3.6915000000000000e+00 1.6339878643470165e+01 5.0310000000000006e+00 0 0 0
121 1 3.6915000000000000e+00 1.4919019630994498e+01 5.0310000000000006e+00 0 0 0
361 1 0.0000000000000000e+00 1.5629449137232333e+01 8.3849999999999998e+00 0 0 0
379 1 1.2305000000000001e+00 1.4919019630994498e+01 8.3849999999999998e+00 0 0 0
380 1 2.4610000000000003e+00 1.5629449137232331e+01 8.3849999999999998e+00 0 0 0
402 1 3.6915000000000000e+00 1.4919019630994498e+01 8.3849999999999998e+00 0 0 0
123 1 4.9219999999999997e+00 1.4208590124756663e+01 5.0310000000000006e+00 0 0 0
171 1 6.1524999999999999e+00 1.6339878643470165e+01 5.0310000000000006e+00 0 0 0
173 1 6.1524999999999990e+00 1.4919019630994498e+01 5.0310000000000006e+00 0 0 0
175 1 7.3830000000000000e+00 1.4208590124756665e+01 5.0310000000000006e+00 0 0 0
222 1 8.6134999999999984e+00 1.6339878643470165e+01 5.0310000000000006e+00 0 0 0
224 1 8.6135000000000002e+00 1.4919019630994498e+01 5.0310000000000006e+00 0 0 0
403 1 4.9219999999999988e+00 1.5629449137232333e+01 8.3849999999999998e+00 0 0 0
428 1 6.1524999999999990e+00 1.4919019630994498e+01 8.3849999999999998e+00 0 0 0
429 1 7.3829999999999991e+00 1.5629449137232333e+01 8.3849999999999998e+00 0 0 0
453 1 8.6135000000000002e+00 1.4919019630994498e+01 8.3849999999999998e+00 0 0 0
70 1 0.0000000000000000e+00 1.8471167162183665e+01 5.0310000000000006e+00 0 0 0
72 1 0.0000000000000000e+00 1.7050308149707998e+01 5.0310000000000006e+00 0 0 0
113 1 1.2305000000000001e+00 1.9181596668421498e+01 5.0310000000000006e+00 0 0 0
115 1 2.4610000000000003e+00 1.8471167162183662e+01 5.0310000000000006e+00 0 0 0
117 1 2.4610000000000003e+00 1.7050308149707998e+01 5.0310000000000006e+00 0 0 0
165 1 3.6914999999999996e+00 1.9181596668421498e+01 5.0310000000000006e+00 0 0 0
376 1 0.0000000000000000e+00 1.9892026174659332e+01 8.3849999999999998e+00 0 0 0
377 1 0.0000000000000000e+00 1.7050308149707998e+01 8.3849999999999998e+00 0 0 0
378 1 1.2305000000000001e+00 1.7760737655945832e+01 8.3849999999999998e+00 0 0 0
398 1 1.2305000000000001e+00 1.9181596668421498e+01 8.3849999999999998e+00 0 0 0
399 1 2.4609999999999994e+00 1.9892026174659332e+01 8.3849999999999998e+00 0 0 0
400 1 2.4610000000000003e+00 1.7050308149707998e+01 8.3849999999999998e+00 0 0 0
401 1 3.6914999999999996e+00 1.7760737655945832e+01 8.3849999999999998e+00 0 0 0
424 1 3.6914999999999996e+00 1.9181596668421498e+01 8.3849999999999998e+00 0 0 0
167 1 4.9220000000000006e+00 1.8471167162183662e+01 5.0310000000000006e+00 0 0 0
169 1 4.9219999999999988e+00 1.7050308149707998e+01 5.0310000000000006e+00 0 0 0
216 1 6.1524999999999999e+00 1.9181596668421498e+01 5.0310000000000006e+00 0 0 0
218 1 7.3829999999999991e+00 1.8471167162183665e+01 5.0310000000000006e+00 0 0 0
220 1 7.3830000000000000e+00 1.7050308149707998e+01 5.0310000000000006e+00 0 0 0
259 1 8.6135000000000002e+00 1.9181596668421498e+01 5.0310000000000006e+00 0 0 0
425 1 4.9219999999999997e+00 1.9892026174659332e+01 8.3849999999999998e+00 0 0 0
426 1 4.9219999999999988e+00 1.7050308149707998e+01 8.3849999999999998e+00 0 0 0
427 1 6.1524999999999999e+00 1.7760737655945832e+01 8.3849999999999998e+00 0 0 0
449 1 6.1524999999999999e+00 1.9181596668421498e+01 8.3849999999999998e+00 0 0 0
450 1 7.3829999999999991e+00 1.9892026174659332e+01 8.3849999999999998e+00 0 0 0
451 1 7.3830000000000000e+00 1.7050308149707998e+01 8.3849999999999998e+00 0 0 0
452 1 8.6134999999999984e+00 1.7760737655945832e+01 8.3849999999999998e+00 0 0 0
470 1 8.6135000000000002e+00 1.9181596668421498e+01 8.3849999999999998e+00 0 0 0
107 1 0.0000000000000000e+00 2.2733744199610662e+01 5.0310000000000006e+00 0 0 0
109 1 0.0000000000000000e+00 2.1312885187134999e+01 5.0310000000000006e+00 0 0 0
111 1 1.2305000000000001e+00 2.0602455680897165e+01 5.0310000000000006e+00 0 0 0
157 1 1.2304999999999993e+00 2.3444173705848499e+01 5.0310000000000006e+00 0 0 0
159 1 2.4610000000000003e+00 2.2733744199610662e+01 5.0310000000000006e+00 0 0 0
161 1 2.4609999999999994e+00 2.1312885187134995e+01 5.0310000000000006e+00 0 0 0
163 1 3.6915000000000004e+00 2.0602455680897165e+01 5.0310000000000006e+00 0 0 0
208 1 3.6915000000000004e+00 2.3444173705848499e+01 5.0310000000000006e+00 0 0 0
396 1 0.0000000000000000e+00 2.1312885187134999e+01 8.3849999999999998e+00 0 0 0
397 1 1.2304999999999993e+00 2.2023314693372832e+01 8.3849999999999998e+00 0 0 0
420 1 1.2304999999999993e+00 2.3444173705848499e+01 8.3849999999999998e+00 0 0 0
422 1 2.4609999999999994e+00 2.1312885187134995e+01 8.3849999999999998e+00 0 0 0
423 1 3.6914999999999996e+00 2.2023314693372832e+01 8.3849999999999998e+00 0 0 0
445 1 3.6915000000000004e+00 2.3444173705848499e+01 8.3849999999999998e+00 0 0 0
210 1 4.9219999999999997e+00 2.2733744199610662e+01 5.0310000000000006e+00 0 0 0
212 1 4.9220000000000006e+00 2.1312885187134995e+01 5.0310000000000006e+00 0 0 0
214 1 6.1524999999999999e+00 2.0602455680897165e+01 5.0310000000000006e+00 0 0 0
251 1 6.1524999999999999e+00 2.3444173705848499e+01 5.0310000000000006e+00 0 0 0
253 1 7.3829999999999991e+00 2.2733744199610662e+01 5.0310000000000006e+00 0 0 0
255 1 7.3829999999999991e+00 2.1312885187134999e+01 5.0310000000000006e+00 0 0 0
257 1 8.6134999999999984e+00 2.0602455680897162e+01 5.0310000000000006e+00 0 0 0
286 1 8.6134999999999984e+00 2.3444173705848499e+01 5.0310000000000006e+00 0 0 0
447 1 4.9220000000000006e+00 2.1312885187134995e+01 8.3849999999999998e+00 0 0 0
448 1 6.1524999999999990e+00 2.2023314693372832e+01 8.3849999999999998e+00 0 0 0
466 1 6.1524999999999999e+00 2.3444173705848499e+01 8.3849999999999998e+00 0 0 0
468 1 7.3829999999999991e+00 2.1312885187134999e+01 8.3849999999999998e+00 0 0 0
469 1 8.6135000000000002e+00 2.2023314693372836e+01 8.3849999999999998e+00 0 0 0
483 1 8.6134999999999984e+00 2.3444173705848499e+01 8.3849999999999998e+00 0 0 0
151 1 0.0000000000000000e+00 2.6996321237037662e+01 5.0310000000000006e+00 0 0 0
153 1 0.0000000000000000e+00 2.5575462224561996e+01 5.0310000000000006e+00 0 0 0
155 1 1.2305000000000001e+00 2.4865032718324162e+01 5.0310000000000006e+00 0 0 0
202 1 2.4609999999999994e+00 2.6996321237037662e+01 5.0310000000000006e+00 0 0 0
204 1 2.4610000000000003e+00 2.5575462224561996e+01 5.0310000000000006e+00 0 0 0
206 1 3.6914999999999996e+00 2.4865032718324166e+01 5.0310000000000006e+00 0 0 0
395 1 0.0000000000000000e+00 2.4154603212086332e+01 8.3849999999999998e+00 0 0 0
418 1 0.0000000000000000e+00 2.5575462224561996e+01 8.3849999999999998e+00 0 0 0
419 1 1.2305000000000001e+00 2.6285891730799833e+01 8.3849999999999998e+00 0 0 0
421 1 2.4609999999999994e+00 2.4154603212086332e+01 8.3849999999999998e+00 0 0 0
443 1 2.4610000000000003e+00 2.5575462224561996e+01 8.3849999999999998e+00 0 0 0
444 1 3.6914999999999987e+00 2.6285891730799833e+01 8.3849999999999998e+00 0 0 0
245 1 4.9219999999999988e+00 2.6996321237037662e+01 5.0310000000000006e+00 0 0 0
247 1 4.9219999999999997e+00 2.5575462224561996e+01 5.0310000000000006e+00 0 0 0
249 1 6.1524999999999990e+00 2.4865032718324159e+01 5.0310000000000006e+00 0 0 0
280 1 7.3829999999999982e+00 2.6996321237037662e+01 5.0310000000000006e+00 0 0 0
282 1 7.3829999999999991e+00 2.5575462224561996e+01 5.0310000000000006e+00 0 0 0
284 1 8.6134999999999984e+00 2.4865032718324159e+01 5.0310000000000006e+00 0 0 0
446 1 4.9219999999999988e+00 2.4154603212086332e+01 8.3849999999999998e+00 0 0 0
464 1 4.9219999999999997e+00 2.5575462224561996e+01 8.3849999999999998e+00 0 0 0
465 1 6.1524999999999999e+00 2.6285891730799836e+01 8.3849999999999998e+00 0 0 0
467 1 7.3830000000000000e+00 2.4154603212086336e+01 8.3849999999999998e+00 0 0 0
481 1 7.3829999999999991e+00 2.5575462224561996e+01 8.3849999999999998e+00 0 0 0
482 1 8.6135000000000019e+00 2.6285891730799836e+01 8.3849999999999998e+00 0 0 0
101 1 9.8439999999999994e+00 2.8417180249513336e+00 1.6770000000000000e+00 0 0 0
103 1 9.8439999999999994e+00 0.0000000000000000e+00 1.6770000000000000e+00 0 0 0
105 1 1.1074500000000000e+01 7.1042950623783341e-01 1.6770000000000000e+00 0 0 0
144 1 1.1074500000000000e+01 2.1312885187135002e+00 1.6770000000000000e+00 0 0 0
146 1 1.2305000000000000e+01 2.8417180249513336e+00 1.6770000000000000e+00 0 0 0
148 1 1.2305000000000000e+01 0.0000000000000000e+00 1.6770000000000000e+00 0 0 0
150 1 1.3535499999999999e+01 7.1042950623783518e-01 1.6770000000000000e+00 0 0 0
196 1 1.3535499999999999e+01 2.1312885187134984e+00 1.6770000000000000e+00 0 0 0
198 1 1.4765999999999998e+01 2.8417180249513354e+00 1.6770000000000000e+00 0 0 0
200 1 1.4765999999999998e+01 0.0000000000000000e+00 1.6770000000000000e+00 0 0 0
509 1 1.5996499999999999e+01 7.1042950623783518e-01 1.6770000000000000e+00 0 0 0
1008 1 1.7227000000000000e+01 0.0000000000000000e+00 1.6770000000000000e+00 0 0 0
1010 1 1.7226999999999997e+01 2.8417180249513336e+00 1.6770000000000000e+00 0 0 0
1012 1 1.5996499999999999e+01 2.1312885187135002e+00 1.6770000000000000e+00 0 0 0
995 1 1.8457500000000000e+01 2.1312885187135002e+00 1.6770000000000000e+00 0 0 0
1006 1 1.8457499999999996e+01 7.1042950623783341e-01 1.6770000000000000e+00 0 0 0
140 1 9.8439999999999994e+00 4.2625770374270004e+00 1.6770000000000000e+00 0 0 0
142 1 1.1074499999999999e+01 4.9730065436648339e+00 1.6770000000000000e+00 0 0 0
188 1 1.1074499999999999e+01 6.3938655561404989e+00 1.6770000000000000e+00 0 0 0
192 1 1.2305000000000000e+01 4.2625770374269987e+00 1.6770000000000000e+00 0 0 0
194 1 1.3535499999999999e+01 4.9730065436648339e+00 1.6770000000000000e+00 0 0 0
239 1 1.3535499999999999e+01 6.3938655561404989e+00 1.6770000000000000e+00 0 0 0
243 1 1.4766000000000000e+01 4.2625770374269987e+00 1.6770000000000000e+00 0 0 0
999 1 1.7226999999999997e+01 4.2625770374270004e+00 1.6770000000000000e+00 0 0 0
1003 1 1.5996499999999999e+01 6.3938655561404989e+00 1.6770000000000000e+00 0 0 0
1014 1 1.5996499999999997e+01 4.9730065436648339e+00 1.6770000000000000e+00 0 0 0
978 1 1.8457499999999996e+01 6.3938655561405007e+00 1.6770000000000000e+00 0 0 0
997 1 1.8457500000000000e+01 4.9730065436648374e+00 1.6770000000000000e+00 0 0 0
138 1 9.8439999999999994e+00 7.1042950623783341e+00 1.6770000000000000e+00 0 0 0
184 1 9.8439999999999994e+00 8.5251540748539973e+00 1.6770000000000000e+00 0 0 0
186 1 1.1074499999999999e+01 9.2355835810918343e+00 1.6770000000000000e+00 0 0 0
190 1 1.2305000000000000e+01 7.1042950623783341e+00 1.6770000000000000e+00 0 0 0
235 1 1.2305000000000000e+01 8.5251540748539991e+00 1.6770000000000000e+00 0 0 0
237 1 1.3535499999999999e+01 9.2355835810918325e+00 1.6770000000000000e+00 0 0 0
241 1 1.4765999999999998e+01 7.1042950623783323e+00 1.6770000000000000e+00 0 0 0
278 1 1.4765999999999998e+01 8.5251540748539991e+00 1.6770000000000000e+00 0 0 0
982 1 1.7226999999999997e+01 8.5251540748539991e+00 1.6770000000000000e+00 0 0 0
1001 1 1.7227000000000000e+01 7.1042950623783376e+00 1.6770000000000000e+00 0 0 0
1005 1 1.5996499999999999e+01 9.2355835810918361e+00 1.6770000000000000e+00 0 0 0
980 1 1.8457500000000000e+01 9.2355835810918379e+00 1.6770000000000000e+00 0 0 0
182 1 9.8439999999999994e+00 1.1366872099805335e+01 1.6770000000000000e+00 0 0 0
227 1 9.8439999999999994e+00 1.2787731112280998e+01 1.6770000000000000e+00 0 0 0
229 1 1.1074499999999999e+01 1.3498160618518833e+01 1.6770000000000000e+00 0 0 0
231 1 1.1074500000000000e+01 1.0656442593567498e+01 1.6770000000000000e+00 0 0 0
233 1 1.2304999999999998e+01 1.1366872099805333e+01 1.6770000000000000e+00 0 0 0
270 1 1.2305000000000000e+01 1.2787731112280998e+01 1.6770000000000000e+00 0 0 0
272 1 1.3535499999999999e+01 1.3498160618518837e+01 1.6770000000000000e+00 0 0 0
274 1 1.3535499999999999e+01 1.0656442593567499e+01 1.6770000000000000e+00 0 0 0
276 1 1.4765999999999998e+01 1.1366872099805336e+01 1.6770000000000000e+00 0 0 0
305 1 1.4765999999999998e+01 1.2787731112281000e+01 1.6770000000000000e+00 0 0 0
957 1 1.7227000000000000e+01 1.2787731112281000e+01 1.6770000000000000e+00 0 0 0
984 1 1.7227000000000000e+01 1.1366872099805336e+01 1.6770000000000000e+00 0 0 0
986 1 1.5996499999999997e+01 1.0656442593567499e+01 1.6770000000000000e+00 0 0 0
988 1 1.5996500000000001e+01 1.3498160618518837e+01 1.6770000000000000e+00 0 0 0
953 1 1.8457500000000000e+01 1.0656442593567499e+01 1.6770000000000000e+00 0 0 0