
# Set production fixes - Nose/Hoover
#
fix                 4 water temp/csvr ${START_TEMP} ${END_TEMP} 500.0 928347
fix                 4 water temp/csvr 240 ${END_TEMP} 500.0 928347
fix                 4 water temp/csvr 240 227 500.0 928347


## divide "droplet" into core and surface
#region		core_reg cylinder z 135 135 44.6 20 INF units box
#region		surface_reg cylinder z 135 135 44.6 20 INF units box side out
#group		core dynamic all region core_reg
#group		surface dynamic all region surface_reg

## compute pressure core
#compute        peratom_core core stress/atom NULL
#compute        p_core core reduce sum c_peratom_core[1] c_peratom_core[2] c_peratom_core[3]
#variable       press_core equal -(c_p_core[1]+c_p_core[2]+c_p_core[3])/(3*1249982.5)


## compute pressure surface
#compute        peratom_surf surface stress/atom NULL
#compute        p_surf surface reduce sum c_peratom_surf[1] c_peratom_surf[2] #c_peratom_surf[3]
#variable       press_surf equal -(c_p_surf[1]+c_p_surf[2]+c_p_surf[3])/(3*42395)

## compute total pressure of drop
compute        peratom water stress/atom NULL
compute        p water reduce sum c_peratom[1] c_peratom[2] c_peratom[3]
variable       press equal -(c_p[1]+c_p[2]+c_p[3])/(3*58301)


# compute order parameter
compute        3 all orientorder/atom nnn NULL cutoff 3.5

# compute center of mass of bridge
compute 	4 water com

# Run simulation
thermo_style        custom step c_2 press vol etotal ke pe v_press c_1[4] c_4[*]
thermo              200
dump		     1 water custom 400 ${DIR}/prod.${NAME}.dump id type x y z vx vy vz c_3[*] c_peratom[*]
dump		     1 water custom 400 run_19/prod.${NAME}.dump id type x y z vx vy vz c_3[*] c_peratom[*]
dump		     1 water custom 400 run_19/prod.ibeam_cooling_19.dump id type x y z vx vy vz c_3[*] c_peratom[*]
run                 ${STEPS}
run                 5200000
Neighbor list info ...
  update every 1 steps, delay 0 steps, check yes
  max neighbors/atom: 2000, page size: 100000
  master list distance cutoff = 6.67472
  ghost atom cutoff = 6.67472
  binsize = 3.33736, bins = 57 9 12
  2 neighbor lists, perpetual/occasional/extra = 1 1 0
  (1) pair sw, perpetual
      attributes: full, newton on
      pair build: full/bin/atomonly
      stencil: full/bin/3d
      bin: standard
  (2) compute orientorder/atom, occasional, copy from (1)
      attributes: full, newton on
      pair build: copy
      stencil: none
      bin: none
Per MPI rank memory allocation (min/avg/max) = 0.8513 | 6.023 | 7.258 Mbytes
Step c_2 Press Volume TotEng KinEng PotEng v_press c_1[4] c_4[1] c_4[2] c_4[3] 
       0    237.00086   -434.55903    204420.41   -23279.611    1720.2168   -24999.828   -1021.5195    41.816503    95.094572     14.53298    27.885909 
     200    237.22941   -303.19651    204420.41    -23287.99    1721.8757   -25009.866    -545.2312    43.080595    95.092828    14.531523     27.87488 
     400    233.64152   -350.71653    204420.41   -23228.674    1695.8338   -24924.508   -709.61946     44.41389    95.091754    14.532328    27.862313 
     600      241.334   -391.02813    204420.41   -23101.068    1751.6679   -24852.735   -878.55266    45.794693    95.091595    14.529201    27.866233 
     800     244.0969   -409.51994    204420.41   -23123.374    1771.7218   -24895.095   -942.44102    47.872591    95.091511    14.528564    27.853722 
    1000    232.85012   -297.33643    204420.41   -23195.747    1690.0896   -24885.837   -543.53138    49.234854    95.091906     14.52684    27.837886 
    1200     236.5426   -212.15061    204420.41   -23200.215    1716.8906   -24917.106    -226.8957    50.511902    95.090397    14.527771    27.843837 
    1400    239.92806   -371.85887    204420.41   -23162.594    1741.4632   -24904.057   -830.56134    52.846294    95.088935    14.528925    27.831708 
    1600    239.31751   -537.18877    204420.41   -23183.769    1737.0317   -24920.801   -1366.2951    54.173257    95.088169    14.532685    27.826825 
    1800    247.29194   -155.01771    204420.41   -23169.135    1794.9123   -24964.047   -47.723931    56.402098    95.088481    14.531858     27.78743 
    2000     241.3018   -347.34841    204420.41   -23096.934    1751.4342   -24848.368   -629.28483    57.753786    95.089677    14.532248    27.786485 
    2200     239.3423   -516.83696    204420.41   -23162.819    1737.2116    -24900.03   -1286.8975     59.53237    95.088915    14.531953    27.784637 
    2400    246.08608   -361.07509    204420.41   -23163.034    1786.1598   -24949.193   -767.21096    61.206262    95.089797    14.531866    27.783009 
    2600    238.66561   -329.71475    204420.41    -23238.18       1732.3    -24970.48   -664.71557    62.520583    95.089864    14.532386    27.772237 
    2800    244.56647   -318.84521    204420.41   -23177.878    1775.1301   -24953.008   -584.16396    64.314849    95.087407     14.53315    27.769222 
    3000    244.50653   -425.86414    204420.41   -23196.269     1774.695   -24970.964   -939.76998    65.903476    95.085239     14.53392    27.771957 
    3200    236.98152   -364.73464    204420.41   -23259.117    1720.0764   -24979.193   -764.82314     66.57471    95.084641    14.535256    27.790079 
    3400    236.48344   -291.87406    204420.41   -23257.915    1716.4612   -24974.376    -476.0294    67.427013    95.085009    14.536988    27.808823 
    3600    235.72435   -419.63948    204420.41   -23227.964    1710.9516   -24938.915   -951.89559    70.555904    95.084287    14.537042    27.802397 
    3800    245.98294   -326.08756    204420.41   -23181.094    1785.4112   -24966.505   -572.99258    72.144207    95.083742    14.536826    27.797983 
    4000    241.95286    -227.8646    204420.41   -23273.339    1756.1598   -25029.499   -251.06639    74.184339    95.083043    14.534063    27.782589 
    4200    243.07964   -273.16174    204420.41   -23239.797    1764.3383   -25004.136   -440.11257    75.462336    95.083093    14.534049    27.783678 
    4400    231.92305   -311.62158    204420.41   -23208.345    1683.3607   -24891.706   -558.96522    77.872404    95.083131    14.535093    27.785925 
    4600    236.62305   -455.54304    204420.41   -23273.171    1717.4746   -24990.645   -1070.6549    79.834447     95.08385    14.534133    27.787096 
    4800    234.89744   -347.97402    204420.41   -23161.568    1704.9496   -24866.518   -716.86703    80.907562    95.084951    14.537101    27.783752 
    5000    242.31187   -454.42956    204420.41    -23188.66    1758.7656   -24947.425   -1021.1745    82.701149    95.084081    14.537169    27.789794 
    5200    236.84183   -221.89604    204420.41   -23176.032    1719.0625   -24895.094   -245.47987    84.572123    95.084008    14.538691     27.80684 
    5400    240.82349   -222.52925    204420.41   -23188.771    1747.9625   -24936.734   -242.21612    85.495741    95.082744    14.537616    27.806799 
    5600    245.23421   -349.00584    204420.41   -23246.364    1779.9767    -25026.34   -716.04947    86.082797    95.081807    14.535584    27.817729 
    5800    242.10553   -394.31038    204420.41   -23169.529    1757.2679   -24926.797   -862.40036    86.572344    95.080245    14.534741    27.802968 
    6000    241.30364   -237.97101    204420.41   -23230.283    1751.4476   -24981.731   -315.26655    86.728313    95.080667    14.534112    27.823372 
    6200    240.53562   -150.69466    204420.41   -23242.503     1745.873   -24988.376    29.670975    87.308691    95.080023    14.531163    27.827083 
    6400    236.54114   -386.26718    204420.41   -23193.386    1716.8801   -24910.266   -804.01814      88.1331    95.080317    14.532173    27.811922 
    6600    236.55656   -309.38614    204420.41   -23205.178     1716.992    -24922.17   -626.40688    89.744725    95.079474    14.532915    27.810683 
    6800    241.79706    -320.0617    204420.41   -23188.828    1755.0289   -24943.857   -599.68354    91.272243    95.077826    14.533587    27.820241 
    7000    242.08199   -407.96233    204420.41   -23174.047     1757.097   -24931.144   -888.45014    92.605234    95.077863    14.533819    27.818509 
    7200    234.20147   -191.72221    204420.41   -23278.864    1699.8981   -24978.762   -159.08458    94.157578    95.079381    14.534104    27.841081 
    7400    238.55979   -357.73908    204420.41   -23217.852     1731.532   -24949.384   -701.21979     94.93113    95.078313    14.530524    27.825213 
    7600    242.39188   -325.24976    204420.41   -23153.565    1759.3463   -24912.912   -585.66573    95.839191    95.078887    14.527683    27.826403 
    7800    231.51482   -336.18352    204420.41   -23292.378    1680.3977   -24972.776   -652.54473    96.873211    95.079808    14.528302    27.820342 
    8000    241.23468   -303.21877    204420.41   -23158.097     1750.947   -24909.044   -523.58299    97.501326    95.080741    14.528726    27.808838 
    8200    243.86567   -346.97014    204420.41   -23185.414    1770.0435   -24955.457   -716.43492    98.485154    95.081616    14.526973    27.813013 
    8400    239.73791    -360.3669    204420.41   -23124.132    1740.0831   -24864.215   -735.59702    99.632133    95.080854    14.524899    27.816977 
    8600    239.70454    -322.0232    204420.41   -23177.418    1739.8409   -24917.259   -583.09385    100.63025    95.079917    14.524393    27.815479 
    8800    236.71758   -99.581055    204420.41   -23204.861    1718.1607   -24923.022    162.90605    102.49732    95.080364     14.52479    27.837027 
    9000    232.57591   -363.28227    204420.41   -23192.066    1688.0993   -24880.166   -744.04588    105.23049    95.081032    14.522314    27.849109 
    9200    244.65897   -317.89907    204420.41   -23164.116    1775.8015   -24939.918   -574.47198    106.26158    95.081865    14.521567    27.828416 
    9400    239.90985   -181.08681    204420.41   -23209.895    1741.3311   -24951.226   -146.22135    106.69713    95.083121    14.522141    27.847547 
    9600    236.06788   -319.22998    204420.41   -23250.657     1713.445   -24964.102   -598.30723    108.63581    95.082816    14.526709    27.851316 
    9800    245.92914   -198.14477    204420.41   -23147.794    1785.0207   -24932.814   -159.23313    110.47947    95.081873    14.528712    27.868892 
   10000     238.3181    -445.2465    204420.41   -23244.776    1729.7777   -24974.554   -992.93997    111.27713    95.082235    14.529363    27.860806 
   10200    242.06494   -388.64715    204420.41   -23180.794    1756.9733   -24937.767   -817.96377    112.83877    95.081544    14.526783    27.865878 
   10400    240.34734    -188.4192    204420.41   -23184.609    1744.5065   -24929.116   -144.40187    113.61334    95.082411    14.526728    27.874697 
   10600    241.66935   -539.24592    204420.41   -23235.595     1754.102   -24989.697   -1347.3021    114.77068    95.083795    14.525995    27.881302 
   10800    236.28255   -382.60076    204420.41   -23292.468    1715.0031   -25007.471   -802.65709    115.25683    95.083584      14.5265    27.882663 
   11000    231.63051   -342.78547    204420.41   -23282.507    1681.2373   -24963.745   -674.26045    117.60393    95.084029    14.526244     27.88201 
   11200    232.16102   -474.29988    204420.41   -23291.793     1685.088   -24976.881   -1069.3318    119.98554    95.082099     14.52819    27.875438 
   11400    244.66587   -144.56032    204420.41   -23273.788    1775.8515    -25049.64    49.195633    120.87497    95.082851    14.527113    27.871617 
   11600     242.3714   -254.49074    204420.41   -23202.619    1759.1977   -24961.817   -328.51347    123.49445    95.083104    14.528217    27.870431 
   11800    240.63372   -494.66217    204420.41   -23202.624    1746.5851   -24949.209   -1205.1712    124.51053    95.083152    14.528256    27.875387 
   12000    241.00753   -494.29624    204420.41   -23201.787    1749.2983   -24951.086    -1174.957    124.81439    95.084486    14.529174    27.894279 
   12200     245.2949   -205.54165    204420.41   -23224.839    1780.4172   -25005.257   -172.09384    127.08554    95.084819    14.529181    27.889285 
   12400    238.63326   -394.82214    204420.41   -23249.924    1732.0652   -24981.989   -831.88807    128.81582    95.084779    14.528011    27.902521 
   12600    242.51079   -428.69359    204420.41   -23179.181    1760.2094    -24939.39   -933.31095    130.13614    95.085472    14.526816    27.926783 
   12800    238.04218   -403.70623    204420.41    -23242.82     1727.775   -24970.595   -911.09628     132.2122     95.08413    14.526649    27.929466 
   13000    237.97955   -190.94456    204420.41   -23277.825    1727.3204   -25005.145   -155.51112    133.95331    95.083668     14.52701    27.939758 
   13200    235.75054   -231.55167    204420.41   -23297.707    1711.1417   -25008.849   -298.33853    136.44273    95.083595    14.529619    27.940327 
   13400    236.04975   -349.72073    204420.41   -23328.661    1713.3134   -25041.975   -740.54226    138.81575    95.082248    14.531349    27.933248 
   13600     235.7627   -247.52591    204420.41   -23250.553    1711.2299   -24961.782   -357.49651    139.18844    95.081914    14.531764    27.925718 
   13800    239.84888   -283.23135    204420.41   -23212.371    1740.8885    -24953.26   -503.99639    138.58481    95.082698    14.532372    27.927711 
   14000    247.53115   -454.16921    204420.41   -23126.914    1796.6485   -24923.563    -1039.654    139.92668    95.081082    14.532488    27.941351 
   14200    239.33273    -279.9931    204420.41   -23176.216    1737.1422   -24913.358   -438.93012    141.73947    95.081623    14.532608    27.949794 
   14400    236.43428   -244.00991    204420.41   -23218.708    1716.1044   -24934.813    -313.4766     143.2192      95.0812    14.532855    27.949207 
   14600    240.88968    -255.6185    204420.41   -23210.517    1748.4429    -24958.96   -366.68874    143.19569    95.081197    14.532638    27.932965 
   14800    242.88231   -297.00079    204420.41   -23195.933     1762.906   -24958.839   -508.09529    143.83166    95.080369    14.534129    27.943945 
   15000    236.97636   -392.61356    204420.41   -23223.925     1720.039   -24943.964   -850.31278    145.30126    95.081045    14.536919    27.959992 
   15200    241.46979    -323.4356    204420.41   -23177.203    1752.6535   -24929.856   -650.10075    145.39506    95.080726    14.537733    27.950395 
   15400    239.73988    -339.2615    204420.41   -23264.735    1740.0974   -25004.833   -689.95937    146.88078    95.081264     14.53589    27.934751 
   15600     248.3414   -420.15435    204420.41   -23143.868    1802.5295   -24946.398   -954.68149    149.43024    95.081761    14.537186    27.956081 
   15800     241.7815    -373.2899    204420.41   -23152.223     1754.916   -24907.139   -803.73255    150.29608    95.081304    14.539652    27.956547 
   16000     239.8442   -225.68939    204420.41    -23169.02    1740.8546   -24909.874    -245.3129    151.45748    95.081318    14.539448    27.947703 
   16200    242.28708   -398.90815    204420.41   -23132.623    1758.5856   -24891.209   -861.77586    153.48282    95.081719    14.541846    27.947842 
   16400    236.72707   -167.17929    204420.41   -23176.679    1718.2295   -24894.909   -110.37302    156.10324    95.079601      14.5419    27.957456 
   16600    239.55398   -384.99702    204420.41   -23114.035     1738.748   -24852.783   -813.03793    157.12288     95.07954    14.543725    27.961105 
   16800    241.56672   -293.90566    204420.41   -23175.897    1753.3571   -24929.254   -513.11573    158.73139     95.07986    14.543502    27.959145 
   17000    240.54482   -372.78935    204420.41   -23242.983    1745.9399   -24988.923   -783.05783    160.69082    95.080592    14.545364     27.96445 
   17200    236.53367   -360.60351    204420.41   -23230.118    1716.8258   -24946.944   -724.39333    162.48323    95.080759    14.544451    27.940983 
   17400    233.06546   -345.44822    204420.41   -23305.831    1691.6526   -24997.484   -708.43673    164.94057    95.080899    14.545706    27.947935 
   17600    236.14758    -386.7524    204420.41   -23217.933    1714.0235   -24931.957   -829.70722    165.42563    95.081237     14.54778    27.951436 
   17800    243.58318   -378.86409    204420.41   -23269.159    1767.9931   -25037.152   -832.35508    165.56567    95.083928    14.549734    27.941974 
   18000     241.6212   -287.53101    204420.41   -23206.861    1753.7525   -24960.613   -457.62494     168.2362    95.085913    14.554189    27.941041 
   18200    239.96607   -322.35192    204420.41   -23205.774    1741.7391   -24947.513    -629.4242    171.35075    95.085135    14.558906    27.926522 
   18400    246.30423   -209.26867    204420.41   -23191.816    1787.7432   -24979.559   -195.71008    171.15847    95.084651     14.56352    27.932137 
   18600    235.72039   -419.68137    204420.41   -23205.755    1710.9228   -24916.678   -930.81357    173.21924    95.086307    14.564572    27.916768 
   18800    239.37456   -145.28336    204420.41    -23223.72    1737.4458   -24961.165   -14.244802    173.98847    95.085295    14.565491    27.935257 
   19000     243.2212   -351.90056    204420.41   -23152.436    1765.3657   -24917.802   -735.10984    175.91534    95.085209    14.566176    27.955032 
   19200    248.65512   -491.34305    204420.41   -23199.229    1804.8066   -25004.036   -1165.4445    176.70063    95.084317    14.565137    27.970743 
   19400    244.86825   -456.20972    204420.41   -23143.164    1777.3205   -24920.484   -1031.5668    178.48998    95.083134    14.562056    27.953271 
   19600    239.75277   -276.92866    204420.41   -23168.483    1740.1909   -24908.673   -449.73733    179.05049    95.084533    14.559896    27.948457 
   19800    241.40747   -286.10912    204420.41   -23162.546    1752.2012   -24914.748   -453.90091    179.73087    95.085209    14.559243    27.937556 
   20000    246.95305   -443.75931    204420.41   -23197.853    1792.4525   -24990.306   -1021.5754    181.93224    95.085868    14.559373    27.933978 
   20200    234.36102   -220.66428    204420.41   -23294.319    1701.0561   -24995.375   -216.60062    182.96469    95.083681     14.55875    27.928575 
   20400    241.46739   -313.65361    204420.41   -23178.118    1752.6361   -24930.754   -560.40328    184.72671    95.083671    14.559294    27.934713 
   20600    236.38096   -393.14084    204420.41   -23273.353    1715.7174   -24989.071   -828.24609    187.93263    95.083493    14.560513    27.926798 
   20800    243.45172   -314.04205    204420.41   -23186.901    1767.0389   -24953.939    -598.8114    189.36842    95.084137    14.558701    27.934078 
   21000       239.28   -362.55344    204420.41   -23243.067    1736.7594   -24979.826   -683.69735    191.48173    95.082463    14.555454    27.942025 
   21200    236.44037   -316.56226    204420.41   -23245.113    1716.1487   -24961.262   -571.94483     193.8212    95.081167    14.556523    27.953995 
   21400    242.03865   -264.73242    204420.41   -23211.975    1756.7825   -24968.757   -391.23898    196.29588    95.080969    14.556372     27.97885 
   21600    248.15741   -414.32773    204420.41   -23111.144    1801.1941   -24912.339   -891.19721    197.80166    95.080793    14.555453    27.958725 
   21800    246.28949   -400.13892    204420.41   -23260.766    1787.6362   -25048.403   -873.65377    198.81806    95.079556    14.554615    27.963792 
   22000    236.39385   -587.61016    204420.41   -23283.505     1715.811   -24999.316   -1491.6506    199.82394    95.080099    14.553817    27.952565 
   22200    236.68465   -338.90063    204420.41   -23332.558    1717.9217   -25050.479   -633.86067    201.75983    95.079773    14.552189     27.95729 
   22400    231.88305   -461.44405    204420.41   -23148.306    1683.0704   -24831.376   -1097.7924    203.65644    95.079983    14.552396    27.947138 
   22600    243.91227   -400.99748    204420.41   -23185.292    1770.3817   -24955.674   -839.68941    205.07697    95.079115    14.552419    27.930002 
   22800    242.80697   -118.28321    204420.41   -23194.833    1762.3592   -24957.192    119.24428    206.32566    95.077774    14.554984    27.916457 
   23000    244.87922   -340.41442    204420.41   -23313.049    1777.4001   -25090.449   -647.30407    208.69531    95.078269    14.555251    27.936162 
   23200    244.35797   -533.56509    204420.41   -23223.953    1773.6167    -24997.57   -1332.3202    210.34516    95.078685     14.55629    27.938058 
   23400    238.49771   -507.34026    204420.41    -23218.35    1731.0813   -24949.431   -1271.2217    211.64715    95.079636    14.555843     27.95066 
   23600    248.40834   -303.60048    204420.41    -23157.58    1803.0154   -24960.595   -527.61286    214.62982    95.080789    14.553548    27.929061 
   23800     243.0597   -548.72554    204420.41   -23179.834    1764.1935   -24944.028   -1348.8282    218.79007    95.082657    14.554394    27.917665 
   24000    239.01478   -189.03408    204420.41   -23244.737    1734.8344   -24979.571   -102.41602    220.88122    95.083107    14.555485    27.905891 
   24200     238.5501   -229.19517    204420.41    -23216.51    1731.4616   -24947.972   -286.26455    223.01923    95.082883    14.555334    27.910779 
   24400    237.17838   -419.70016    204420.41   -23248.245    1721.5053   -24969.751   -987.72478    224.88025    95.081967    14.557959    27.889202 
   24600    233.76257   -389.56026    204420.41    -23271.11    1696.7124   -24967.823   -846.71502    226.93639    95.081268    14.559519    27.867816 
   24800    238.14301    -298.4225    204420.41   -23255.912    1728.5069   -24984.419   -491.52616    229.28254    95.082371    14.558889     27.87785 
   25000    238.84401   -421.04206    204420.41    -23275.73    1733.5949   -25009.325   -964.42176    231.02773    95.082103    14.560831    27.877606 
   25200    234.27426   -411.49161    204420.41   -23402.733    1700.4264   -25103.159   -897.12868    230.35615    95.081829    14.563582    27.858355 
   25400    236.56395   -420.75105    204420.41   -23280.414    1717.0456   -24997.459   -928.30648    231.80502     95.08198    14.562832    27.852952 
   25600    250.04265   -410.67324    204420.41   -23135.474    1814.8777   -24950.351   -921.56078    229.92843     95.08155    14.563451    27.837616 
   25800    247.57436   -376.19162    204420.41   -23197.778    1796.9621    -24994.74   -754.30769    230.95556    95.081075    14.564321    27.818922 
   26000    232.44165   -463.68016    204420.41   -23224.668    1687.1249   -24911.793   -1109.1363    232.03494    95.078881    14.564828    27.803175 
   26200    235.15134   -419.25934    204420.41   -23201.459    1706.7925   -24908.251   -971.24071    233.77175    95.079381    14.566734    27.793327 
   26400    243.66933   -450.91015    204420.41   -23230.276    1768.6184   -24998.894   -1084.2791      233.335    95.080097    14.566014    27.794902 
   26600    238.93484   -157.90841    204420.41   -23179.113    1734.2542   -24913.367   -45.976923     232.5039     95.08029    14.565523    27.774394 
   26800    241.09598   -279.23462    204420.41   -23180.824    1749.9403   -24930.765   -429.02002     233.3722    95.078856    14.565587     27.76619 
   27000    244.77648   -459.57938    204420.41   -23121.597    1776.6544   -24898.252   -1034.6231    234.26947    95.077732    14.566173    27.773394 
   27200    243.34599   -347.73723    204420.41   -23187.226    1766.2715   -24953.497   -689.76738    234.85709    95.077722      14.5681    27.768657 
   27400    246.36639   -324.75971    204420.41   -23113.924    1788.1944   -24902.119   -557.57551    236.19072    95.076359    14.567293    27.753671 
   27600    233.14809   -206.34359    204420.41   -23244.881    1692.2524   -24937.133   -152.99651    237.65683    95.075341    14.568997    27.759494 
   27800    245.15259   -326.73188    204420.41   -23140.258    1779.3843   -24919.642   -598.39539    240.68376    95.075609     14.57171    27.746695 
   28000    236.69385   -387.81071    204420.41   -23221.188    1717.9884   -24939.176   -847.07402     242.0851    95.076029    14.572385    27.744349 
   28200     239.4689   -301.43809    204420.41   -23241.028    1738.1305   -24979.159   -564.66137    243.56694    95.075648    14.573713    27.744824 
   28400    235.18536    -390.5446    204420.41   -23227.203    1707.0395   -24934.242   -852.23181    246.66949    95.076524    14.575533    27.734482 
   28600    248.03555     -361.189    204420.41   -23265.994    1800.3096   -25066.304   -745.83221        246.9    95.077061    14.575128    27.738696 
   28800    236.18858   -225.97896    204420.41   -23300.925     1714.321   -25015.246   -242.16179    245.26289    95.077115    14.575556    27.753773 
   29000    236.12678   -284.39813    204420.41   -23258.747    1713.8725    -24972.62   -449.46991    245.25435    95.077336    14.577974    27.745171 
   29200    241.36869   -302.28458    204420.41   -23191.531    1751.9197   -24943.451   -523.29817    245.17861    95.079799     14.58006    27.745316 
   29400    246.70112   -404.38949    204420.41   -23203.402     1790.624   -24994.026   -870.73304    244.39371    95.079212    14.578862    27.745613 
   29600    238.26349   -427.20514    204420.41   -23174.243    1729.3813   -24903.624   -939.02679    245.85641    95.078272     14.57783    27.749304 
   29800    229.71595   -296.06007    204420.41   -23260.483     1667.341   -24927.824   -496.43194    247.74861    95.080041    14.578856    27.766977 
   30000    234.29431   -476.85115    204420.41   -23331.579     1700.572   -25032.151    -1114.638     250.0997    95.079292     14.57836    27.738079 
   30200    238.93719   -313.28602    204420.41   -23275.495    1734.2712   -25009.766   -551.34389    251.34422    95.079824    14.580681    27.737213 
   30400    241.96624   -373.34808    204420.41   -23254.506    1756.2569   -25010.762   -756.17499    252.43909    95.077729    14.579021    27.746828 
   30600    235.08984   -324.53834    204420.41   -23324.724    1706.3461    -25031.07   -639.87521    253.64272    95.076616    14.576826      27.7701 
   30800    237.62866   -311.39155    204420.41   -23294.062    1724.7736   -25018.835   -549.82069    253.86079    95.077245    14.576292    27.771003 
   31000    239.60642   -405.03744    204420.41   -23262.625    1739.1287   -25001.754   -941.13462    254.54506    95.076729    14.577361    27.770974 
   31200    239.07394    -316.6426    204420.41   -23265.643    1735.2638   -25000.907   -583.39461    256.01823    95.075345    14.577486    27.743041 
   31400    240.06856   -426.59292    204420.41   -23213.118     1742.483   -24955.601   -971.35513    257.51317    95.074311     14.57444     27.75752 
   31600    237.53343   -408.10558    204420.41   -23233.667    1724.0823   -24957.749   -925.10699    258.06216    95.076998    14.572331    27.748453 
   31800    240.52318   -115.60702    204420.41   -23149.618    1745.7828   -24895.401    130.02611    257.23715    95.077163    14.570002    27.748071 
   32000    245.23816   -381.10611    204420.41   -23210.373    1780.0054   -24990.378   -770.33932    259.24143    95.078156    14.572048    27.757866 
   32200      237.912    -459.8223    204420.41   -23236.378    1726.8301   -24963.209   -1068.6404    259.95501    95.078239    14.571272     27.76771 
   32400    232.59741   -439.67195    204420.41   -23233.231    1688.2554   -24921.486   -1017.0696     259.0399     95.07705    14.573135    27.787532 
   32600    242.11142   -219.68601    204420.41   -23154.436    1757.3107   -24911.747   -230.87083    260.38733    95.076822    14.575483     27.79054 
   32800    241.51439   -477.51217    204420.41   -23148.617    1752.9772   -24901.594   -1136.2745    259.38133    95.076013    14.579824    27.762755 
   33000    236.16285   -441.68536    204420.41   -23120.888    1714.1343   -24835.022   -997.73636     260.8833     95.07546    14.579224    27.746009 
   33200     242.2022   -165.34523    204420.41   -23120.317    1757.9695   -24878.287   -62.362456    260.92754    95.074903    14.580236    27.743194 
   33400       240.03    -547.3597    204420.41   -23195.728    1742.2031   -24937.931   -1414.4963    264.73655    95.075788    14.580919     27.75474 
   33600    238.53312   -248.41114    204420.41   -23231.238    1731.3384   -24962.576   -358.40697    265.90696    95.074855    14.581223    27.763989 
   33800     246.7904   -253.79785    204420.41   -23081.518     1791.272   -24872.789   -323.74538    265.94133    95.073062    14.583155    27.779198 
   34000    236.65447   -486.37554    204420.41   -23188.275    1717.7026   -24905.978   -1182.8832    267.02589    95.073371     14.58384     27.75653 
   34200    239.44382   -398.12862    204420.41   -23208.195    1737.9485   -24946.144   -877.91532    267.48297    95.071333    14.584549    27.778007 
   34400    235.32088   -297.65142    204420.41   -23254.744    1708.0231   -24962.767   -522.12283    268.35764     95.07083    14.586322    27.795715 
   34600    243.41497   -461.04076    204420.41   -23163.628    1766.7722     -24930.4   -1091.2534    271.01344    95.069952    14.585682    27.802036 
   34800    240.73906   -305.67335    204420.41   -23265.421    1747.3497   -25012.771   -551.54453    272.37863     95.06892    14.585449    27.811239 
   35000    229.11465    -369.3251    204420.41   -23262.801    1662.9765   -24925.777   -788.69066    273.36865    95.067753      14.5879    27.815112 
   35200    241.02961   -424.59085    204420.41   -23198.063    1749.4586   -24947.521   -951.57172    275.78653    95.068326     14.58875    27.796376 
   35400     235.6548   -525.64313    204420.41    -23245.04    1710.4467   -24955.487   -1334.4616     277.6055     95.06993    14.590372    27.787771 
   35600    243.61752   -372.27858    204420.41   -23264.661    1768.2424   -25032.904   -735.88318    278.31065    95.070709    14.594528    27.785402 
   35800    242.98248   -239.20592    204420.41   -23164.968     1763.633   -24928.601   -297.56775    279.14363    95.072278    14.595776    27.796336 
   36000    232.05485   -475.90387    204420.41   -23264.543    1684.3173    -24948.86   -1099.9364    279.69306    95.071428    14.597923    27.805698 
   36200    238.03882   -307.31769    204420.41   -23260.918    1727.7506   -24988.668   -563.62231    281.11524    95.071393    14.598264    27.797316 
   36400     244.9221   -221.87291    204420.41   -23208.038    1777.7114   -24985.749   -237.14004    281.77687    95.070548    14.601215    27.786894 
   36600    236.17158   -414.38463    204420.41   -23202.801    1714.1976   -24916.998   -961.17351     283.1334    95.069633     14.60295    27.783949 
   36800    237.37786   -301.76667    204420.41   -23276.793    1722.9532   -24999.746   -558.57914    284.10499    95.068945    14.601605    27.798021 
   37000    239.98976   -206.87613    204420.41   -23238.997     1741.911   -24980.908   -181.64678    285.68959    95.069155    14.602602    27.791728 
   37200     235.7993   -566.02362    204420.41   -23237.352    1711.4955   -24948.848   -1423.0093    288.66675    95.070543    14.601826    27.777796 
   37400    241.76733   -234.51143    204420.41   -23232.601    1754.8132   -24987.414   -306.36449    289.02955    95.069567    14.600041    27.780533 
   37600    239.52857   -469.18228    204420.41   -23307.413    1738.5637   -25045.977   -1086.9518    289.69317    95.070169    14.600233     27.78879 
   37800    235.60921   -281.86081    204420.41   -23327.078    1710.1159   -25037.193   -487.31755    290.10679    95.071592    14.600621    27.774136 
   38000     236.5502   -294.49714    204420.41   -23242.883    1716.9458   -24959.829   -512.08969    290.78813    95.071288    14.601267    27.762848 
   38200    242.04632   -381.40836    204420.41   -23246.516    1756.8382   -25003.354   -800.28041     293.1257    95.072949    14.603543     27.77094 
   38400    243.60692   -507.62261    204420.41   -23206.998    1768.1654   -24975.163   -1241.2561    295.57091    95.074159    14.605567    27.766079 
   38600    236.45721   -283.83405    204420.41   -23271.095    1716.2709   -24987.366   -449.33806    295.42986    95.073338    14.604978    27.766583 
   38800    240.12048    -417.0285    204420.41   -23233.406    1742.8598   -24976.265   -938.07482    297.08742    95.074887    14.601138     27.74929 
   39000    239.70018    -318.8574    204420.41   -23181.228    1739.8092   -24921.038   -589.00693    296.61983    95.076767    14.599091    27.738109 
   39200    238.47804   -318.36047    204420.41   -23247.868    1730.9386   -24978.806   -557.53379    297.84553    95.078359    14.598797    27.741635 
   39400    239.79512   -255.96794    204420.41   -23229.077    1740.4983   -24969.575   -360.91436    298.36949    95.079112    14.598696    27.743983 
   39600    245.77256   -293.68604    204420.41    -23202.29    1783.8842   -24986.174   -498.50257    297.90849    95.079406    14.595536    27.739197 
   39800    239.35911   -412.12854    204420.41   -23261.413    1737.3336   -24998.747   -931.79584    299.02016    95.077288     14.59347    27.735376 
   40000     240.6179   -372.08606    204420.41   -23235.909    1746.4703   -24982.379   -793.63817    299.85913     95.07613    14.591847    27.732039 
   40200    244.06917   -284.27282    204420.41   -23251.629    1771.5205    -25023.15   -440.99927    301.50782    95.076113    14.592449    27.732787 
   40400    241.11713   -107.94711    204420.41   -23285.722    1750.0938   -25035.815    151.45457    303.06944    95.075145    14.592603    27.748602 
   40600    248.33614   -336.07181    204420.41   -23246.149    1802.4914    -25048.64    -664.5141    304.78447    95.075202     14.59191    27.728105 
   40800    237.01419   -316.19782    204420.41   -23298.484    1720.3136   -25018.798   -547.26196    307.56553    95.075386    14.592276    27.728387 
   41000    241.57258   -284.03118    204420.41   -23300.143    1753.3996   -25053.543   -422.89711    309.76064    95.075174    14.592673      27.7439 
   41200    240.90241   -334.80169    204420.41   -23204.277    1748.5353   -24952.812   -683.48988    310.29714    95.073891    14.590903    27.747392 
   41400    240.29441   -375.61787    204420.41   -23219.086    1744.1223   -24963.209   -799.50717    310.98838    95.074632    14.591559    27.753122 
   41600    239.94626   -258.41178    204420.41   -23211.777    1741.5954   -24953.373   -384.38088    312.38548    95.075753    14.592929    27.751846 
   41800    240.79646    -464.5859    204420.41   -23199.383    1747.7663   -24947.149   -1107.1612    314.95196    95.076534    14.594951    27.754972 
   42000    238.73695   -150.47189    204420.41    -23234.76    1732.8178   -24967.578   -24.499566    317.00522    95.076916    14.596853    27.763939 
   42200    237.56412   -386.17252    204420.41   -23305.656    1724.3051   -25029.961   -789.83828    318.52764    95.077048     14.60158    27.748865 
   42400    237.85525   -658.91305    204420.41    -23249.35    1726.4182   -24975.768   -1782.7506    318.43428    95.077673    14.602341    27.752463 
   42600    245.59686   -212.60186    204420.41   -23248.416    1782.6089   -25031.025   -220.27562    319.26312    95.077131    14.599686    27.764409 
   42800    241.61239   -458.66185    204420.41   -23215.343    1753.6885   -24969.032   -1069.3202    320.17423    95.076752    14.601263    27.774106 
   43000    237.69829   -463.75696    204420.41   -23271.616     1725.279   -24996.895   -1108.2177     321.4121     95.07755    14.600293    27.780729 
   43200    238.49018   -373.38586    204420.41   -23255.584    1731.0267   -24986.611   -786.58767    323.71658    95.078243    14.601264    27.778371 
   43400    235.22608   -385.59496    204420.41   -23247.305     1707.335    -24954.64    -852.0014    325.75051    95.078268    14.602995    27.782224 
   43600    240.15448   -412.58233    204420.41   -23274.894    1743.1066   -25018.001   -981.61811    326.77095    95.078434     14.60144    27.763337 
   43800    236.68577   -482.47944    204420.41   -23318.141    1717.9298   -25036.071   -1186.9871    328.69936    95.077959    14.602673    27.784366 
   44000    237.07372   -414.62194    204420.41   -23354.241    1720.7457   -25074.986   -882.38014    329.52633    95.077557    14.606565    27.779517 
   44200    239.02816   -267.97934    204420.41   -23270.839    1734.9315    -25005.77     -417.366    330.16282    95.078402    14.608531    27.766062 
   44400    242.44621   -427.64272    204420.41   -23279.023    1759.7406   -25038.764   -994.28143    332.11397    95.079425    14.611452    27.745145 
   44600    236.94163   -234.51512    204420.41    -23321.05    1719.7869   -25040.837   -300.38405    335.38838    95.079494    14.610447      27.7342 
   44800     242.4018   -269.72172    204420.41   -23307.526    1759.4183   -25066.944   -451.05357     335.4208    95.078929    14.609398    27.746877 
   45000    234.77058   -465.86381    204420.41   -23269.593    1704.0288   -24973.621   -1139.4048    338.33994    95.078774    14.611362    27.747159 
   45200      236.974   -175.72856    204420.41   -23244.185    1720.0219   -24964.206   -80.710239    338.86075    95.078499    14.609158    27.759842 
   45400    237.42961   -305.44853    204420.41    -23276.12    1723.3288   -24999.449   -543.64792    340.72953    95.079221    14.609031    27.765184 
   45600    243.43257   -329.68276    204420.41   -23168.038    1766.8999   -24934.938   -633.24124    343.26274    95.078996    14.607796    27.785419 
   45800    237.65924   -392.00282    204420.41   -23229.875    1724.9955   -24954.871   -835.41007     345.3612    95.078712    14.606226    27.778516 
   46000    250.92318   -360.42455    204420.41   -23186.732    1821.2688   -25008.001   -743.10286    345.70088    95.079562     14.60585    27.777421 
   46200    239.99193   -401.73917    204420.41   -23163.844    1741.9268   -24905.771   -882.45245    345.85577    95.080983    14.606182    27.766098 
   46400    235.53339   -450.44218    204420.41   -23273.192    1709.5655   -24982.758   -1059.1978     347.5726    95.080166    14.607694    27.770477 
   46600    244.30038   -175.33705    204420.41   -23257.478    1773.1987   -25030.677   -69.365971    346.84375    95.080634    14.605073    27.792246 
   46800    241.20663   -468.82604    204420.41    -23216.69    1750.7434   -24967.433   -1110.1209    347.27528     95.08006    14.602702    27.791899 
   47000     243.0713   -112.01804    204420.41   -23212.616    1764.2777   -24976.894    100.73966    344.87617    95.079796    14.600849    27.795713 
   47200    237.45144   -312.88845    204420.41   -23321.243    1723.4872    -25044.73   -533.82773    343.85016    95.079329    14.600032    27.826114 
   47400    240.02709   -346.73573    204420.41   -23237.945     1742.182   -24980.127   -678.97279    345.95554    95.077863    14.600627    27.839444 
   47600    237.20824   -247.79834    204420.41   -23206.956    1721.7221   -24928.678   -383.77317    348.58342    95.077192    14.598445    27.823157 
   47800    234.84582   -318.72199    204420.41   -23218.064    1704.5749   -24922.639   -625.03903    350.48624    95.077701     14.59735    27.825564 
   48000     230.5393   -181.38195    204420.41   -23232.081    1673.3171   -24905.398   -98.588493    352.45929    95.076428    14.595607    27.809469 
   48200    240.33467   -187.32091    204420.41    -23218.02    1744.4145   -24962.434   -97.965809    350.88997    95.076157    14.594661    27.798999 
   48400    240.57679   -148.69949    204420.41   -23222.415    1746.1719   -24968.587    22.990944    351.69133     95.07362     14.59574    27.797559 
   48600    235.70438   -468.89813    204420.41   -23294.237    1710.8066   -25005.044   -1083.7751    353.86869    95.072658    14.599864    27.802457 
   48800    241.91264   -419.32405    204420.41   -23276.734    1755.8678   -25032.602   -912.24741    354.85466    95.071695    14.599501    27.801444 
   49000    242.03271   -426.00224    204420.41   -23277.812    1756.7393   -25034.551   -941.58127    355.61339    95.072861    14.600807    27.825424 
   49200    242.23394   -465.77116    204420.41   -23205.779    1758.1999   -24963.979   -1087.3654    358.06845    95.071295    14.596185    27.819231 
   49400    238.26048   -295.65484    204420.41    -23293.04    1729.3595     -25022.4    -518.0846    359.00509    95.073033    14.595405    27.814339 
   49600    237.35341   -267.15405    204420.41   -23280.228    1722.7757   -25003.004   -416.59099    359.37201    95.072166     14.59715    27.841441 
   49800    235.71489    -74.45849    204420.41   -23273.172    1710.8829   -24984.055    232.95413    360.67585    95.071067    14.596393    27.848036 
   50000    235.75383   -269.48272    204420.41   -23281.891    1711.1655   -24993.057   -404.46786    364.38676    95.070049    14.596899     27.83012 
   50200    240.60256   -569.19566    204420.41   -23193.404    1746.3589   -24939.763   -1459.8091    364.93637    95.069965    14.599764    27.820435 
   50400    243.31511   -172.42065    204420.41   -23234.696    1766.0474   -25000.743   -32.219243    365.80334    95.070501    14.600255    27.811446 
   50600    246.76453   -171.25263    204420.41   -23154.813    1791.0842   -24945.897   -94.610501    365.05924    95.069411    14.601683     27.80711 
   50800    231.33806   -470.00965    204420.41   -23351.431    1679.1147   -25030.545   -1120.3526    365.83826    95.070105    14.603862    27.815102 
   51000     237.1186   -141.88462    204420.41   -23326.036    1721.0714   -25047.107    40.835856    366.60819    95.068602    14.607009    27.833319 
   51200    232.79567   -421.03216    204420.41   -23305.315    1689.6944   -24995.009   -914.85089    366.38747    95.068048    14.606741    27.823889 
   51400    238.14983   -505.21245    204420.41   -23289.497    1728.5563   -25018.054   -1259.7632    368.49612    95.066527    14.607178    27.824437 
   51600    239.90689   -306.46113    204420.41   -23324.983    1741.3096   -25066.293   -493.46304    369.19746    95.064521     14.60567    27.826281 
   51800    238.51744     -356.196    204420.41   -23262.182    1731.2246   -24993.407   -732.46067     368.2883    95.063881    14.602216     27.82618 
   52000    231.27836   -417.88989    204420.41    -23316.85    1678.6813   -24995.532   -941.02447    369.89971     95.06268    14.600229    27.830027 
   52200    238.01585   -414.72185    204420.41   -23339.655    1727.5839   -25067.239   -910.52179    369.92325    95.061953    14.600506    27.833435 
   52400    236.56579   -449.13547    204420.41   -23395.067     1717.059   -25112.126   -1030.0818    371.11748     95.06087    14.603566    27.842489 
   52600    238.77326   -566.59015    204420.41   -23265.695    1733.0814   -24998.776   -1465.1929     373.1966    95.059746    14.603318     27.82393 
   52800    246.79181   -312.12341    204420.41   -23237.439    1791.2822   -25028.721   -549.44985    373.31514    95.060347    14.601649    27.814384 
   53000     243.1883   -423.35628    204420.41   -23238.924    1765.1269   -25004.051   -958.43616    375.47461    95.059042    14.602131    27.791169 
   53200    240.98613   -442.27702    204420.41   -23304.053     1749.143   -25053.196   -1006.5855    377.18277    95.056755    14.599571    27.797735 
   53400    240.31197   -169.84667    204420.41   -23278.764    1744.2497   -25023.014   -75.795041    377.81762    95.056165    14.595893    27.804086 
   53600    233.08684    -275.6115    204420.41   -23333.215    1691.8078   -25025.023   -390.62052    377.15177    95.056381    14.594951    27.812746 
   53800    236.38399   -438.20673    204420.41   -23286.668    1715.7394   -25002.407   -1001.1976    379.94284    95.055575    14.595577    27.818074 
   54000    243.28238   -405.61801    204420.41   -23261.871    1765.8098   -25027.681   -909.99331    380.86175    95.057126    14.597173    27.808688 
   54200    238.82769   -317.69756    204420.41   -23236.903    1733.4765    -24970.38   -584.37765    382.06024    95.058884    14.599594    27.782361 
   54400    241.21974   -334.17123    204420.41   -23158.578    1750.8386   -24909.416   -614.54148     381.3054    95.060818    14.599791    27.761612 
   54600    238.66633   -183.46402    204420.41   -23206.555    1732.3053    -24938.86   -129.53597    381.11082    95.060272    14.600055    27.755406 
   54800    246.46793   -467.47847    204420.41   -23183.886    1788.9314   -24972.818   -1096.5276    382.57391    95.059371    14.599106    27.763124 
   55000    241.81777   -265.70518    204420.41   -23150.674    1755.1793   -24905.853   -395.26955    385.38114    95.059446     14.60251    27.757282 
   55200      236.278    -320.1865    204420.41   -23332.808    1714.9701   -25047.778    -630.6927    388.12567    95.059869    14.605411    27.736118 
   55400    233.99691   -434.25198    204420.41    -23256.66    1698.4133   -24955.073   -987.68056    389.39103    95.059629    14.607707    27.734261 
   55600    243.59984   -603.12645    204420.41   -23233.509     1768.114   -25001.623   -1587.4456    390.07413    95.059909    14.610414      27.7359 
   55800    247.34838   -332.12668    204420.41   -23127.351    1795.3219   -24922.673   -663.84627    391.17425    95.059581    14.608371    27.729764 
   56000    242.49242   -336.02442    204420.41   -23179.554     1760.076    -24939.63   -657.11201    394.54222    95.058788    14.605951    27.724296 
   56200    238.68651   -223.41735    204420.41    -23176.15    1732.4517   -24908.602   -300.70058    395.35799    95.059296    14.606878    27.709786 
   56400    234.17422   -292.26313    204420.41    -23270.97    1699.7003   -24970.671   -479.45558    395.42192    95.058942    14.605342    27.695327 
   56600    232.49517   -332.25963    204420.41   -23337.644    1687.5133   -25025.158   -623.31729    395.70252    95.058455    14.604089    27.716745 
   56800    235.19072    -355.9141    204420.41   -23196.122    1707.0784     -24903.2    -713.8434    398.47771    95.058354    14.607725    27.744048 
   57000    236.11549   -278.18173    204420.41   -23252.602    1713.7906   -24966.392   -442.87055    401.78229    95.058703    14.608741     27.75125 
   57200     245.0331   -394.97918    204420.41   -23161.144     1778.517   -24939.661   -851.28937    401.26231    95.059206    14.608957    27.748031 
   57400    242.68875   -337.48483    204420.41   -23256.982    1761.5011   -25018.483   -703.69326    402.22518    95.058885    14.609696    27.772816 
   57600    233.82937   -404.36368    204420.41   -23292.214    1697.1973   -24989.411   -884.19698    403.55815    95.056495     14.61012    27.778307 
   57800    239.05169   -221.97049    204420.41   -23232.285    1735.1023   -24967.387   -254.80076    404.36803    95.057019    14.612665    27.775758 
   58000     241.4729   -350.41832    204420.41    -23240.45    1752.6761   -24993.127   -755.01306    405.18397    95.056623    14.614715    27.761049 
   58200    245.30193   -487.73064    204420.41   -23187.239    1780.4682   -24967.707   -1175.8861     406.5365    95.057872    14.613878    27.742682 
   58400    241.21845   -212.06832    204420.41   -23174.191    1750.8292    -24925.02   -224.26432    406.96949    95.058033    14.614291    27.734301 
   58600    239.56705   -338.79223    204420.41   -23204.446    1738.8429   -24943.289   -626.30915    410.63095    95.057064    14.615546    27.728818 
   58800    244.55041    -304.7662    204420.41   -23216.637    1775.0135    -24991.65   -549.16641    414.26169     95.05599    14.614267    27.732059 
   59000    241.15379   -430.75722    204420.41   -23140.392    1750.3599   -24890.752   -977.66563    415.88437    95.056175    14.613849    27.723115 
   59200    237.49384   -344.93308    204420.41   -23193.585     1723.795    -24917.38   -680.29447    415.77915    95.057003     14.61257    27.744204 
   59400    237.00493   -533.98544    204420.41   -23184.278    1720.2464   -24904.524    -1390.725    417.02565    95.056737    14.611109    27.727634 
   59600    238.73231   -116.19526    204420.41   -23204.606    1732.7841    -24937.39    102.48377     417.0619    95.056273    14.610024    27.733458 
   59800    238.34537   -512.27334    204420.41   -23164.717    1729.9757   -24894.692   -1275.1096     419.5189    95.056841    14.613068    27.731423 
   60000    242.32772   -386.65338    204420.41   -23184.588    1758.8806   -24943.469   -853.81247    421.98671    95.056941    14.614489     27.72604 
   60200    235.94913   -244.69239    204420.41    -23210.72    1712.5831   -24923.303   -336.93476    423.80529    95.056973    14.612798    27.700507 
   60400    244.63345   -245.86971    204420.41    -23199.65    1775.6163   -24975.266   -300.91352    425.67789    95.056432    14.613131    27.712473 
   60600    237.70152   -351.92967    204420.41   -23239.054    1725.3024   -24964.356   -692.47789    427.55824    95.056361    14.617347    27.713799 
   60800    246.96685   -222.34059    204420.41   -23152.729    1792.5527   -24945.282   -260.22823     427.8588    95.055887    14.616478    27.718453 
   61000    238.35492   -276.36396    204420.41   -23217.782     1730.045   -24947.827    -457.3935    429.06731    95.054791    14.615304    27.727244 
   61200    244.31538    -231.8435    204420.41   -23208.391    1773.3076   -24981.698   -316.39016    429.90742    95.055074    14.615966    27.736434 
   61400    243.48715   -372.65817    204420.41   -23272.533    1767.2961   -25039.829   -810.07834    429.54931    95.056412    14.621343    27.739221 
   61600    239.65375   -439.15974    204420.41   -23313.595    1739.4722   -25053.067   -1028.1131    430.95953    95.056145    14.623528    27.733114 
   61800    231.65787   -287.71767    204420.41   -23334.613     1681.436   -25016.049   -489.61467    432.58517    95.054626    14.626686    27.720844 
   62000    238.05782   -336.23135    204420.41   -23242.435    1727.8885   -24970.324   -666.77916    432.77563    95.053547    14.625708    27.706934 
   62200     238.8914    -206.3448    204420.41   -23265.704    1733.9389   -24999.643   -185.79776    433.86199    95.052184    14.622748    27.714437 
   62400    239.86346   -268.71324    204420.41   -23308.766    1740.9943    -25049.76   -413.61504    436.16311    95.051518    14.621196    27.697941 
   62600    239.48412   -379.29495    204420.41   -23310.616     1738.241   -25048.857   -783.58403    438.13205    95.049957    14.620748    27.693181 
   62800    239.78272   -322.77877    204420.41   -23401.302    1740.4083    -25141.71   -589.91762    439.77038     95.04869    14.620371    27.676051 
   63000     235.5267   -169.68696    204420.41   -23293.706     1709.517   -25003.223   -89.650016    442.00415    95.046218    14.619532    27.668495 
   63200    237.63627   -589.72794    204420.41   -23316.984    1724.8288   -25041.813   -1535.6514    446.11316    95.046136    14.619905    27.684537 
   63400    236.28601   -365.77398    204420.41   -23309.657    1715.0282   -25024.686   -753.24319    446.02237    95.046501    14.623341    27.675787 
   63600    233.70612   -394.15726    204420.41   -23338.065    1696.3027   -25034.368   -876.60729    445.30831    95.046703    14.624182    27.669372 
   63800    236.05483   -553.77844    204420.41   -23337.332    1713.3503   -25050.682   -1402.2645    444.73786    95.046821    14.624665    27.677395 
   64000     241.3313   -254.37105    204420.41   -23222.867    1751.6483   -24974.515   -369.02517    446.04355    95.045922    14.624164    27.673251 
   64200     236.1537    -413.6445    204420.41   -23252.031    1714.0679   -24966.099   -922.10915    447.62264    95.046542    14.625723    27.674201 
   64400    232.25337   -196.14788    204420.41   -23279.416    1685.7582   -24965.175   -209.23071    447.12048    95.045184    14.624166    27.676907 
   64600    236.73116   -345.63981    204420.41   -23269.401    1718.2593    -24987.66   -698.67117    448.02766    95.043226    14.624811    27.686756 
   64800    239.50912   -433.97784    204420.41   -23258.899    1738.4224   -24997.321   -984.92403    450.31221    95.044083    14.623919    27.710195 
   65000    239.49611   -449.90343    204420.41   -23148.902     1738.328    -24887.23   -1055.1369    451.52578    95.044916    14.620968    27.725901 
   65200    239.53615   -333.62904    204420.41   -23186.331    1738.6187   -24924.949   -656.39299    450.66178     95.04427    14.618125    27.741365 
   65400    239.45048   -468.56199    204420.41   -23241.786    1737.9968   -24979.782   -1103.1727    452.34277     95.04268    14.620103    27.744174 
   65600    242.48886   -171.17046    204420.41   -23185.446    1760.0502   -24945.496   -54.191652    453.13325    95.041531    14.622769    27.765929 
   65800    239.29775   -447.50568    204420.41   -23229.984    1736.8883   -24966.872   -1015.3571    455.11532    95.040799    14.624687    27.785882 
   66000    239.51331   -328.64715    204420.41   -23206.145    1738.4529   -24944.598   -634.12167     456.5772    95.041309    14.623478    27.811406 
   66200    239.10245   -197.67347    204420.41   -23256.048    1735.4707   -24991.519   -198.62742    455.94152    95.042551    14.620284    27.810245 
   66400    241.55389   -320.63791    204420.41   -23250.065    1753.2639   -25003.329   -623.96193    457.90291    95.043256    14.619598    27.807196 
   66600    239.23949   -191.49562    204420.41   -23292.692    1736.4654   -25029.157   -163.64881    455.82818    95.044359    14.621227     27.81296 
   66800    232.70756   -373.65815    204420.41   -23279.617    1689.0549   -24968.672   -837.55866    455.17897    95.046325    14.620709    27.789941 
   67000    231.99306   -274.51571    204420.41   -23351.499    1683.8689   -25035.368   -458.41361    456.24268    95.048126    14.619474    27.789874 
   67200     240.4718   -272.05427    204420.41   -23277.519    1745.4099   -25022.929   -472.72765    457.60016    95.050594    14.616725    27.781449 
   67400     239.1738   -283.60947    204420.41   -23223.342    1735.9886   -24959.331   -509.91698     458.0824    95.050306    14.616854    27.801513 
   67600    244.67595   -334.28716    204420.41   -23204.843    1775.9247   -24980.768   -693.89677    458.05646    95.051161    14.613873    27.799651 
   67800    243.49335   -331.75387    204420.41   -23206.283    1767.3411   -24973.625   -660.52682    460.19212    95.053754    14.615547    27.780454 
   68000    232.65805   -275.07723    204420.41    -23270.92    1688.6955   -24959.615   -423.59765    462.39893    95.053479    14.612119     27.78738 
   68200    235.54112   -203.34877    204420.41   -23233.055    1709.6217   -24942.676   -263.69335    463.47764    95.053128    14.614468    27.781921 
   68400     242.5428   -556.70013    204420.41   -23155.576    1760.4417   -24916.018   -1403.6096    466.66503    95.050525    14.615638    27.791164 
   68600    240.99645   -452.20585    204420.41   -23194.222    1749.2179    -24943.44   -1040.5188    466.90336    95.050801     14.61479    27.795231 
   68800     246.2099   -283.23312    204420.41   -23118.375    1787.0585   -24905.433   -464.09356    466.59813    95.049716    14.611925    27.796145 
   69000    244.32595   -176.28586    204420.41   -23132.942    1773.3843   -24906.326   -116.23545    466.63278    95.049012    14.610625    27.783797 
   69200    237.41083   -376.57833    204420.41   -23229.174    1723.1925   -24952.367   -780.51663    466.64395    95.047166    14.610822    27.789703 
   69400    231.71749   -539.22095    204420.41   -23218.225    1681.8687   -24900.093   -1407.8219    467.83979    95.046498    14.612898    27.792306 
   69600    243.42094   -209.41003    204420.41   -23079.973    1766.8155   -24846.789   -244.33813    467.08422    95.047369    14.612554    27.787836 
   69800    240.74394    -400.8078    204420.41   -23130.816    1747.3851   -24878.201   -885.17438    468.38313    95.047631    14.612196    27.783001 
   70000    242.70662   -365.81911    204420.41   -23185.966    1761.6308   -24947.597   -722.92845    471.00361    95.047012    14.611228    27.786652 
   70200    248.31541   -320.20261    204420.41   -23093.513    1802.3409   -24895.854   -628.42791    471.87761    95.049854    14.607737    27.786217 
   70400    243.67594   -328.28452    204420.41   -23125.657    1768.6663   -24894.324   -632.06401    472.01756    95.052115    14.603745    27.776777 
   70600    240.27406   -287.72571    204420.41   -23182.957    1743.9746   -24926.931   -509.04734    471.82265    95.050666    14.602572    27.766164 
   70800    242.09682   -205.15865    204420.41    -23181.11    1757.2047   -24938.315   -241.44463    474.10249     95.04813    14.600324    27.758317 
   71000    234.58228   -655.58963    204420.41   -23241.839    1702.6621   -24944.501   -1779.1653    477.18062    95.049316    14.600792     27.77282 
   71200    234.44019   -358.73102    204420.41   -23245.898    1701.6308   -24947.529   -765.85099     477.8319    95.049575     14.60063    27.767975 
   71400    236.38481   -338.28332    204420.41   -23264.129    1715.7453   -24979.875   -693.27347    477.87458    95.049792    14.600908    27.758186 
   71600    247.81137   -561.13201    204420.41   -23193.529    1798.6824   -24992.211     -1419.73    479.63917    95.050701    14.600315    27.761876 
   71800    238.84788   -327.80004    204420.41   -23332.241     1733.623   -25065.864   -624.60274    479.33987    95.050662    14.599277    27.778021 
   72000    235.94104   -222.16905    204420.41   -23355.055    1712.5244    -25067.58   -244.59429       481.97    95.049711    14.599785    27.788912 
   72200    246.49099   -478.29851    204420.41   -23173.948    1789.0988   -24963.047   -1146.8508    483.72245    95.050051    14.603033    27.782239 
   72400    238.20447    -203.3999    204420.41   -23230.039    1728.9529   -24958.992   -207.42267    485.43898    95.050351    14.601491    27.808037 
   72600    237.21593   -514.75013    204420.41   -23169.809    1721.7778   -24891.587   -1295.0957    487.43457    95.050926    14.602082    27.828241 
   72800    235.45996   -405.51683    204420.41   -23202.014    1709.0325   -24911.047   -892.57125    488.47181    95.049687     14.59884    27.831455 
   73000    238.41996    -318.6202    204420.41   -23215.612     1730.517   -24946.129   -580.51835     488.4459    95.048822    14.597308    27.815117 
   73200    237.86711   -537.60447    204420.41   -23144.686    1726.5043   -24871.191    -1377.511    492.63372    95.048433    14.595952    27.842669 
   73400    243.70882   -368.82216    204420.41   -23113.947     1768.905   -24882.852   -774.69504     492.4848    95.049019    14.595161    27.837201 
   73600    242.41987   -306.71922    204420.41   -23159.469    1759.5495   -24919.019   -596.29908    496.35028    95.051753    14.598234    27.838791 
   73800    231.22365   -465.76444    204420.41   -23248.367    1678.2843   -24926.651   -1134.0195    496.92909    95.052099    14.595819    27.867514 
   74000    237.77007   -303.17639    204420.41   -23262.193       1725.8   -24987.993   -542.91163     497.2871    95.052729    14.594218    27.840576 
   74200    245.77443   -499.88519    204420.41   -23172.741    1783.8978   -24956.639   -1234.7074    498.26412    95.053392    14.596222     27.85624 
   74400    245.18203   -308.44518    204420.41   -23160.056     1779.598   -24939.654   -529.78658    500.02044    95.054252    14.601372    27.860471 
   74600    239.23778   -426.59086    204420.41   -23210.042     1736.453   -24946.495   -944.02916     501.9146    95.054047    14.603727    27.870493 
   74800    240.63307    -364.9332    204420.41   -23242.054    1746.5804   -24988.634   -777.14219    503.76717    95.054389    14.604258    27.878246 
   75000      232.745   -313.68391    204420.41   -23268.026    1689.3266   -24957.352   -568.35252    505.64935    95.053649    14.604738    27.867844 
   75200    239.49889   -538.41163    204420.41   -23172.418    1738.3482   -24910.766   -1364.8863    507.75488     95.05334    14.605189    27.865674 
   75400    240.83428   -256.68491    204420.41   -23277.167    1748.0408   -25025.208   -345.67089     510.0968    95.053333    14.604485    27.862249 
   75600    238.81193   -259.32564    204420.41   -23213.848    1733.3621    -24947.21   -368.29097    511.91343    95.052513    14.604698    27.874543 
   75800    240.99024   -454.33929    204420.41    -23173.87    1749.1728   -24923.043   -1051.3675    511.34766     95.05124      14.6064    27.880172 
   76000    244.05567   -278.05902    204420.41   -23172.016    1771.4225   -24943.439   -438.79942    513.38321    95.050189    14.608709    27.888949 
   76200    229.20339   -463.76635    204420.41    -23266.08    1663.6207   -24929.701   -1101.2597    515.98292    95.048593    14.609691    27.894201 
   76400    233.57772   -260.75467    204420.41   -23216.804    1695.3708   -24912.175   -414.68224    517.57352    95.049083    14.610151    27.908333 
   76600     239.7097     -464.534    204420.41   -23172.751    1739.8783   -24912.629   -1071.4471    519.22532    95.049549    14.608308    27.929702 
   76800    245.25078   -300.99924    204420.41   -23159.918     1780.097   -24940.015   -520.90783    520.98973    95.051462    14.608536    27.935631 
   77000    240.96927   -210.35914    204420.41   -23205.054    1749.0206   -24954.075   -215.96541    521.76007    95.051845    14.609252    27.928765 
   77200    237.08976    -378.7551    204420.41   -23174.886    1720.8621   -24895.748   -839.10593    523.37684    95.053875    14.612061    27.901162 
   77400    241.77577   -252.20462    204420.41   -23160.335    1754.8744    -24915.21   -375.42211    524.39856    95.054693    14.611861    27.900473 
   77600    243.36413    -371.8901    204420.41   -23191.949    1766.4032   -24958.352   -778.74394    527.04678    95.055562    14.609639    27.904725 
   77800     239.8795   -323.29556    204420.41   -23205.609    1741.1108    -24946.72   -563.55111    526.80585    95.056143    14.608453     27.91969 
   78000    235.92896   -401.47293    204420.41   -23207.401    1712.4367   -24919.837   -886.01227    526.24832    95.056311     14.60821    27.904909 
   78200    242.55835   -349.40969    204420.41   -23231.882    1760.5546   -24992.437   -676.61003    527.61693    95.054303    14.609467    27.925887 
   78400    239.03932   -388.81854    204420.41    -23180.69    1735.0125   -24915.702   -864.43847    528.78314    95.051899    14.612612    27.913677 
   78600    238.03207   -382.27821    204420.41   -23248.939    1727.7016   -24976.641   -829.15209    530.26873    95.051819    14.615756    27.918386 
   78800    240.88867   -254.58844    204420.41    -23184.36    1748.4356   -24932.796     -351.232    531.49164    95.052182    14.615782    27.933854 
   79000    242.21694   -437.73128    204420.41   -23183.159    1758.0765   -24941.236    -964.9441    534.52447    95.053411    14.616879    27.931224 
   79200    237.93612   -271.41981    204420.41   -23144.646    1727.0052   -24871.652   -422.68343    536.72333    95.052552    14.617859    27.943733 
   79400    241.34369   -222.77752    204420.41   -23155.181    1751.7382   -24906.919   -291.58389    538.75385    95.052614    14.617397    27.954409 
   79600    237.85137   -219.39614    204420.41   -23227.772      1726.39   -24954.162   -253.29007    539.24435    95.052445    14.619451    27.940207 
   79800    241.47181    -401.4712    204420.41    -23194.98    1752.6682   -24947.649   -899.80813    541.51446    95.054213    14.622767      27.9615 
   80000     236.5954   -257.32494    204420.41    -23239.04    1717.2739   -24956.314   -387.40698    544.57574    95.054508    14.619694    27.969313 
   80200    237.11193   -616.82943    204420.41   -23257.348     1721.023   -24978.371   -1605.8615    546.64187    95.054385    14.618679    27.984035 
   80400    241.17355   -255.33612    204420.41   -23281.968    1750.5033   -25032.472    -344.8372     544.2377    95.053463    14.619626     28.00401 
   80600    236.69699   -401.20389    204420.41   -23261.167    1718.0112   -24979.179   -910.59767    545.04819    95.053483    14.619448     28.04524 
   80800    239.14351   -387.41095    204420.41   -23245.786    1735.7687   -24981.555   -823.77648    543.68746    95.054816    14.618935    28.068424 
   81000     232.4674   -219.92333    204420.41   -23281.627    1687.3117   -24968.939   -245.66941    542.52739    95.054125    14.618181    28.080092 
   81200    242.54621   -410.97264    204420.41   -23232.794    1760.4665   -24993.261   -947.17368    542.79986    95.054021    14.616283    28.068477 
   81400    238.64728   -349.55556    204420.41   -23190.393     1732.167    -24922.56   -699.25791    543.66327    95.055509    14.616446    28.075953 
   81600    235.31184   -241.81083    204420.41   -23285.413    1707.9574   -24993.371   -298.39223    544.05978    95.056061    14.616496    28.064487 
   81800    238.73561   -511.26015    204420.41   -23338.709    1732.8081   -25071.517      -1260.2    545.17719    95.055784    14.615118    28.040343 
   82000    238.92235   -404.59372    204420.41   -23261.892    1734.1635   -24996.056   -930.52713     546.7783     95.05585    14.612918    28.041895 
   82200    246.27963   -306.55078    204420.41   -23172.337    1787.5647   -24959.902   -543.27027    547.82614    95.055489    14.611032    28.020195 
   82400    240.23372    -182.2114    204420.41   -23208.391    1743.6818   -24952.073   -101.48713    549.22446    95.053938    14.610349    28.004398 
   82600    249.14942   -586.19115    204420.41   -23125.473    1808.3944   -24933.868   -1530.8052    550.43329    95.054448    14.613125    28.013338 
   82800    235.14451   -388.32474    204420.41   -23242.615    1706.7429   -24949.358   -841.25483    551.02872    95.053507    14.615408    28.012674 
   83000    248.10984   -178.78574    204420.41   -23126.116    1800.8488   -24926.965   -97.536373    549.10669     95.05382    14.619622    28.015069 
   83200    241.10078   -236.86931    204420.41   -23175.364    1749.9751   -24925.339   -299.95818    551.84588    95.054858    14.619224    28.011076 
   83400    239.62216   -397.13316    204420.41   -23197.554     1739.243   -24936.797   -857.06083    552.84377    95.054587    14.619503    28.023203 
   83600    232.49221   -246.52134    204420.41   -23293.331    1687.4918   -24980.823   -350.28962    553.53923    95.054598    14.622278    28.035918 
   83800     239.4507   -382.71496    204420.41   -23221.399    1737.9984   -24959.398   -778.51691    554.60872    95.054179    14.620398    28.039793 
   84000    240.58043   -352.96084    204420.41   -23239.038    1746.1983   -24985.236   -712.56421      557.313    95.052325    14.618917    28.048694 
   84200    244.75875   -286.14675    204420.41   -23221.636    1776.5257   -24998.161   -473.99916    558.26235    95.051569    14.618963    28.041754 
   84400    234.85112   -306.63133    204420.41    -23306.33    1704.6134   -25010.943    -524.1418    559.16869    95.049867    14.621354     28.02038 
   84600    247.42858   -517.75262    204420.41   -23242.704     1795.904   -25038.608   -1289.1103    559.60018    95.050089    14.621811    28.026736 
   84800    239.47243   -90.754959    204420.41   -23276.924    1738.1561    -25015.08    221.38997    559.20147    95.048424    14.624677    28.015211 
   85000    238.22088   -542.23587    204420.41    -23238.19     1729.072   -24967.262   -1331.4859    560.28341    95.050379    14.627744    28.013695 
   85200    241.26513   -304.27706    204420.41   -23205.817     1751.168   -24956.985    -556.9912      559.673    95.049912    14.627388    27.992792 
   85400    236.01195   -333.01697    204420.41   -23308.185    1713.0391   -25021.224   -617.63336    561.99133    95.049325    14.624093    27.976054 
   85600    235.19897   -29.657596    204420.41   -23266.663    1707.1382   -24973.801    425.85654    565.29685     95.04968    14.627574    27.958457 
   85800    240.38481   -598.64985    204420.41   -23244.016    1744.7784   -24988.794   -1608.7188    569.49053     95.05074    14.625248     27.94629 
   86000    238.48607   -411.43185    204420.41   -23169.546    1730.9969   -24900.542   -921.06803    568.79103    95.050091    14.628147     27.94377 
   86200    238.31676   -160.62567    204420.41   -23127.028     1729.768   -24856.796   -68.982424    569.51032    95.049571    14.630641    27.931303 
   86400    231.09718   -474.30651    204420.41   -23230.793    1677.3663   -24908.159   -1109.0704    572.22982    95.049494    14.634682    27.931666 
   86600    240.10666   -276.63449    204420.41   -23198.322    1742.7595   -24941.081   -429.16913    574.25886    95.051476    14.638839    27.941327 
   86800    235.28658   -494.81747    204420.41   -23267.531    1707.7741   -24975.305    -1228.005    577.02006    95.051078    14.637873     27.95174 
   87000    245.13676   -155.05945    204420.41   -23198.122    1779.2694   -24977.391     18.71905    578.63127    95.050801     14.64055    27.940938 
   87200    241.06683   -360.59605    204420.41   -23156.492    1749.7287    -24906.22   -717.71371    581.27575    95.050255    14.640312    27.912464 
   87400    238.21935    -438.0937    204420.41   -23258.461    1729.0609   -24987.522   -954.02847    585.82612    95.053111    14.639497    27.913023 
   87600    241.52776   -367.73445    204420.41   -23168.154    1753.0743   -24921.228   -751.47287     588.0748    95.052794    14.636076    27.919807 
   87800    237.55945   -252.64791    204420.41   -23225.508    1724.2712   -24949.779   -382.56254    588.33383    95.053702    14.635509    27.923426 
   88000    240.21377   -380.59562    204420.41   -23244.709     1743.537   -24988.246   -766.52844    590.17956    95.053671    14.634975    27.928596 
   88200    238.45147   -382.89465    204420.41    -23267.56    1730.7457   -24998.306   -846.74785    591.64355    95.055851    14.632502    27.924554 
   88400    241.78875   -252.26272    204420.41   -23202.047    1754.9686   -24957.016   -408.34214    594.55925    95.055811    14.630892    27.923141 
   88600     234.9409   -309.47226    204420.41    -23250.96    1705.2651   -24956.225   -572.79241    595.78446     95.05532    14.629324    27.908053 
   88800    232.11568   -332.14658    204420.41    -23250.43    1684.7588   -24935.189   -639.90879    595.59042    95.054139    14.630024    27.908989 
   89000    241.73086   -395.77409    204420.41   -23247.459    1754.5485   -25002.008   -876.94074    597.08118    95.052582     14.63057    27.898522 
   89200    242.32293   -363.91757    204420.41   -23260.813    1758.8459   -25019.659   -727.23474    599.62243    95.052345     14.63344    27.919687 
   89400    239.41568   -480.22432    204420.41   -23190.859    1737.7442   -24928.603    -1135.657    600.64881     95.05324      14.6375    27.932693 
   89600     236.7107   -268.92217    204420.41   -23346.787    1718.1108   -25064.898   -429.13866    601.18681    95.055552    14.638091    27.933851 
   89800    242.40521   -362.20167    204420.41   -23214.772    1759.4431   -24974.215   -731.20028    601.86321    95.054494    14.637891     27.95737 
   90000    243.83606   -462.36849    204420.41     -23169.3    1769.8286   -24939.129   -1075.8553    603.55323    95.054371     14.63369    27.952872 
   90200    241.62673   -124.06331    204420.41   -23226.067    1753.7926    -24979.86    19.420518    602.40384    95.054151    14.634212    27.959051 
   90400    236.47269   -274.13795    204420.41   -23208.868    1716.3832   -24925.251   -462.82254    604.79105     95.05186    14.633801    27.954252 
   90600     236.2331   -583.26287    204420.41     -23241.2    1714.6442   -24955.844   -1528.9455    608.73068    95.052461    14.631527    27.973837 
   90800     244.5108   -353.15904    204420.41    -23240.79     1774.726   -25015.516   -762.57497    611.33248    95.053776     14.63116    27.987159 
   91000    235.62058   -314.46526    204420.41   -23321.917    1710.1984   -25032.116   -587.88786    612.25603    95.056133    14.633076    27.971574 
   91200    236.41922   -332.20432    204420.41   -23363.474    1715.9951   -25079.469   -637.65603    614.01295    95.056935    14.634948    27.980106 
   91400    239.31655    -277.3831    204420.41   -23326.507    1737.0247   -25063.532   -470.56019     614.9638    95.057523     14.63608    27.969439 
   91600    238.88641   -496.04654    204420.41   -23196.816    1733.9027   -24930.719    -1183.423     617.2292    95.057517    14.638555    27.945365 
   91800    235.24719   -187.35789    204420.41   -23211.692    1707.4882    -24919.18    -109.1469    616.83361    95.057041    14.636595     27.93573 
   92000     239.1634   -287.89913    204420.41   -23167.236    1735.9131   -24903.149   -523.56215    616.91019    95.057431    14.638931    27.952876 
   92200    234.85594   -567.62971    204420.41   -23149.005    1704.6484   -24853.654   -1450.2976    617.23414    95.059282    14.640561    27.933866 
   92400    245.56763   -208.75366    204420.41   -23176.677    1782.3967   -24959.074   -154.12377    617.61345    95.060915     14.64267    27.912819 
   92600    243.85542   -346.79163    204420.41   -23124.766    1769.9691   -24894.735    -684.1874    618.82272    95.062703    14.645003    27.925879 
   92800    240.01676   -239.54975    204420.41    -23194.24     1742.107   -24936.347    -293.1067    617.23122    95.063726    14.646402    27.936483 
   93000     233.3322   -524.50398    204420.41   -23244.184    1693.5887   -24937.773   -1320.4858    618.91225    95.061378    14.644517    27.933744 
   93200     240.9694   -551.82951    204420.41   -23231.913    1749.0216   -24980.934   -1383.2754     622.0217    95.059985    14.644631    27.933177 
   93400    234.04585   -398.98602    204420.41   -23308.856    1698.7686   -25007.624   -871.15872     623.7693    95.059463    14.644412    27.940659 
   93600    239.27815   -350.80296    204420.41   -23294.783     1736.746   -25031.529   -720.97502    623.68275    95.059651    14.644357     27.90943 
   93800    235.88389   -92.828501    204420.41   -23299.773    1712.1095   -25011.883    216.85758    623.68234    95.059552     14.64466    27.923985 
   94000     232.6071   -347.53373    204420.41   -23298.203    1688.3257   -24986.529   -684.51974    624.55094    95.059623    14.644148    27.901322 
   94200    240.50195   -253.47857    204420.41   -23178.178    1745.6287   -24923.806   -363.01749    624.07001    95.058504    14.647035    27.887097 
   94400    242.35697   -366.24499    204420.41   -23230.642    1759.0929   -24989.735   -730.39993    624.84789    95.058543    14.649274    27.876808 
   94600     236.0372   -199.31697    204420.41   -23241.859    1713.2223   -24955.082   -192.80743    622.68815    95.057945    14.649707    27.865723 
   94800    238.51024   -303.54494    204420.41   -23190.872    1731.1723   -24922.044   -546.86091    624.93587    95.057709    14.650562    27.878328 
   95000    239.93476   -105.41461    204420.41   -23265.464    1741.5119   -25006.976    154.24639    623.63044    95.055037    14.650574     27.86947 
   95200    235.95318   -439.15926    204420.41   -23245.989    1712.6125   -24958.601   -1017.1533    623.85869    95.054015    14.651446    27.871165 
   95400    240.99275   -310.11168    204420.41   -23191.771    1749.1911   -24940.962   -570.42446    623.87836    95.054929    14.650046    27.856277 
   95600    242.06905   -272.19102    204420.41   -23197.721    1757.0031   -24954.725   -402.66701    625.00887    95.055367    14.650864    27.865305 
   95800    239.47932   -158.53484    204420.41   -23217.224    1738.2062    -24955.43   -13.775447      624.791     95.05602    14.652732    27.871807 
   96000    237.88296   -124.79436    204420.41   -23172.342    1726.6193   -24898.962    106.85058    626.41169    95.055255    14.656887    27.882057 
   96200    246.28265   -260.74261    204420.41   -23129.325    1787.5866   -24916.912   -390.72187    628.58275    95.054854    14.658349    27.884266 
   96400    242.28235   -420.70399    204420.41   -23242.317    1758.5513   -25000.868   -899.55977    631.64339    95.055851    14.658054    27.871225 
   96600    234.35552   -373.38084    204420.41   -23239.604    1701.0163    -24940.62   -767.49359    629.98007    95.056563    14.662575    27.855066 
   96800    239.45061   -330.99447    204420.41   -23196.833    1737.9977    -24934.83   -592.35668     632.4189     95.05503    14.665065    27.845808 
   97000    233.29476   -326.38108    204420.41   -23238.128    1693.3169   -24931.445    -611.0967    632.98924    95.054586    14.668667    27.841872 
   97200     237.1623   -297.84047    204420.41   -23231.176    1721.3886   -24952.565   -504.74104     633.4927    95.055611    14.671678    27.831642 
   97400    238.81493   -372.11946    204420.41   -23231.841    1733.3839   -24965.224   -786.30536    637.22573    95.057148    14.674441    27.822508 
   97600    245.64184   -440.12139    204420.41   -23176.605    1782.9354   -24959.541   -1017.0445    639.84168     95.05717    14.674241    27.814297 
   97800    243.60817   -150.24682    204420.41   -23222.604    1768.1745   -24990.778   -1.1061103    642.46729    95.056302    14.675125     27.80963 
   98000    237.16841   -327.02373    204420.41   -23268.406    1721.4329   -24989.839   -609.29053    646.10717    95.055981    14.674906    27.820984 
   98200      236.848   -508.28658    204420.41   -23266.915    1719.1073   -24986.023   -1252.0208    649.28391    95.057588     14.67328    27.820713 
   98400    246.54619   -178.99098    204420.41   -23180.149    1789.4994   -24969.649   -102.20782    648.94395    95.058849    14.672744    27.813286 
   98600    241.11317   -309.08009    204420.41   -23250.279    1750.0651   -25000.344   -555.27142     648.8929     95.05939    14.676214     27.82556 
   98800    240.20652   -422.60485    204420.41   -23239.165    1743.4844   -24982.649   -906.38022    654.48392    95.060863    14.676337    27.827501 
   99000    231.66314   -200.70136    204420.41   -23276.608    1681.4742   -24958.082   -163.34694    654.10126    95.061533    14.672293    27.803991 
   99200    241.47958   -418.56523    204420.41   -23251.176    1752.7246     -25003.9    -912.3201    653.73841    95.061264    14.670448    27.811289 
   99400    241.95478   -348.65114    204420.41   -23245.258    1756.1737   -25001.432   -625.07881    653.21693     95.06037    14.668898    27.801003 
   99600    235.50315   -439.25404    204420.41   -23215.951     1709.346   -24925.297   -972.64216    654.77771    95.061945     14.66932    27.808804 
   99800    236.11525   -359.10361    204420.41   -23217.556    1713.7888   -24931.345   -717.57665    658.84869    95.063527    14.671478     27.81139 
  100000    243.02603   -382.59253    204420.41   -23261.659    1763.9492   -25025.608   -814.46009    660.58548    95.064431    14.672027    27.800198 
  100200    241.69631   -283.25549    204420.41   -23317.578    1754.2977   -25071.875   -488.29107    662.75783    95.065159    14.667709    27.788757 
  100400    243.67143   -422.56009    204420.41   -23221.734    1768.6336   -24990.368   -929.64397    665.84126     95.06533      14.6659     27.79391 
  100600     237.7986   -376.28362    204420.41   -23225.187     1726.007   -24951.194   -777.37977    666.66055     95.06376    14.665114    27.784926 
  100800     239.0425   -72.491079    204420.41   -23263.345    1735.0356   -24998.381    275.77338    664.34362    95.063417    14.663512    27.791596 
[...]
 5175800    224.97378   -641.19125    204420.41   -25473.874     1632.921   -27106.795    -1673.844    11358.623    97.361407    14.644188    27.083148 
 5176000    227.52221   -628.28483    204420.41   -25484.068    1651.4182   -27135.486   -1598.9187    11359.059    97.363373    14.642751    27.087895 
 5176200    221.74421   -544.66974    204420.41   -25506.257    1609.4799   -27115.737   -1265.9465    11349.687    97.363133    14.640934    27.090928 
 5176400    225.28221   -619.37091    204420.41   -25442.831    1635.1597   -27077.991   -1529.9223    11352.884    97.364856    14.642322    27.087719 
 5176600    230.59265   -490.88252    204420.41   -25366.777    1673.7043   -27040.481    -1160.954     11343.17    97.364277    14.641383     27.08329 
 5176800     228.0734   -676.18865    204420.41   -25428.727    1655.4189   -27084.146   -1796.1165    11362.678     97.36464    14.644009    27.072834 
 5177000    231.13126   -528.72221    204420.41   -25408.298    1677.6137   -27085.912   -1228.9747    11355.953    97.366476    14.640457    27.091871 
 5177200    232.59116   -535.98156    204420.41    -25384.28      1688.21    -27072.49    -1276.014     11354.36    97.365556    14.640729    27.085828 
 5177400    241.18779   -548.59697    204420.41   -25336.889    1750.6067   -27087.496   -1361.3212    11350.716    97.363623    14.638154    27.082894 
 5177600    221.95121    -574.3757    204420.41   -25435.589    1610.9823   -27046.571    -1456.371     11354.62    97.363462    14.639797     27.08551 
 5177800    224.68287   -653.88743    204420.41   -25448.427    1630.8095   -27079.236   -1668.8156      11359.1    97.364875    14.638215    27.098629 
 5178000    225.59544   -516.37353    204420.41   -25443.191    1637.4332   -27080.624   -1191.1612    11351.995    97.363225    14.638216    27.094977 
 5178200    217.69132   -681.60655    204420.41   -25450.997    1580.0629    -27031.06     -1775.94    11358.303    97.363685     14.63774    27.088583 
 5178400    223.61745   -509.37483    204420.41    -25461.98    1623.0764   -27085.056   -1190.1987    11347.439    97.363172    14.637492    27.084191 
 5178600    231.98321    -684.8445    204420.41   -25435.747    1683.7974   -27119.544   -1738.1177    11359.665    97.363351    14.638179    27.079412 
 5178800    231.35471   -504.20779    204420.41   -25435.812    1679.2355   -27115.048   -1183.1391    11355.394    97.363229    14.639305     27.07697 
 5179000    220.43893   -607.66828    204420.41   -25459.157    1600.0058   -27059.163   -1520.6686    11351.292      97.3618    14.638538    27.082358 
 5179200    230.17865   -573.20856    204420.41   -25455.696    1670.6994   -27126.395   -1417.0613    11352.528     97.36299    14.639252    27.070645 
 5179400    233.77595   -426.19781    204420.41   -25398.055    1696.8096   -27094.864   -877.80842    11357.215    97.361624    14.637979      27.0734 
 5179600    229.48993   -689.17296    204420.41   -25452.364    1665.7004   -27118.065   -1794.3495    11362.555     97.36256    14.638909    27.082727 
 5179800    228.48499   -449.70393    204420.41   -25449.516    1658.4063   -27107.922   -967.85668    11349.431    97.359986    14.636917    27.082045 
 5180000    217.03338   -698.84955    204420.41    -25534.76    1575.2874   -27110.047   -1817.0623    11354.079    97.359542    14.637782    27.075108 
 5180200    224.20646   -519.76361    204420.41   -25509.697    1627.3516   -27137.048   -1221.0944    11350.056    97.360166      14.6369     27.07578 
 5180400    226.98011   -643.61738    204420.41    -25442.25    1647.4835   -27089.733   -1631.6842    11361.818    97.361615    14.638962    27.067203 
 5180600    231.22571   -484.12869    204420.41   -25439.368    1678.2992   -27117.667   -1055.2217    11355.012    97.361927    14.637216    27.069283 
 5180800    222.81431   -678.04146    204420.41   -25465.135     1617.247   -27082.382   -1721.3705    11352.041    97.361388    14.639411    27.080681 
 5181000    226.03289   -613.08129    204420.41   -25500.761    1640.6083   -27141.369   -1554.6226    11354.459    97.361968    14.638032    27.087018 
 5181200    223.80321   -555.47836    204420.41    -25484.67    1624.4247   -27109.095   -1366.5331    11353.314     97.36163    14.640884    27.070467 
 5181400    234.35469   -638.74606    204420.41   -25396.858    1701.0102   -27097.869   -1685.7323    11360.532    97.361746    14.637744    27.072991 
 5181600    222.19385   -469.63844    204420.41   -25525.998    1612.7435   -27138.742   -1029.7628    11350.488    97.362536    14.639993    27.074789 
 5181800    229.92456   -606.48127    204420.41    -25414.77    1668.8551   -27083.626   -1505.6775    11354.496    97.361677    14.638083     27.07862 
 5182000    229.95502   -500.00492    204420.41   -25443.183    1669.0762   -27112.259    -1123.668    11353.857    97.363538    14.640344    27.077227 
 5182200    223.47481   -650.18526    204420.41   -25407.129    1622.0411    -27029.17   -1687.0968    11357.803    97.363037    14.638694    27.086016 
 5182400    221.66031   -557.04174    204420.41   -25477.657    1608.8709   -27086.528   -1297.8337     11356.48    97.363717    14.638536     27.08065 
 5182600    227.37396    -614.2019    204420.41   -25445.823    1650.3421   -27096.165   -1542.4448    11354.197    97.363695    14.638515    27.084242 
 5182800    231.71864   -535.17798    204420.41   -25414.423     1681.877     -27096.3   -1290.9371    11349.894    97.363568    14.637911     27.08072 
 5183000    226.83333   -591.98377    204420.41   -25385.355    1646.4181   -27031.773   -1467.4547    11354.694    97.364013    14.638882    27.078065 
 5183200    231.54281   -630.38642    204420.41    -25410.16    1680.6008   -27090.761   -1621.8662     11356.85    97.364329    14.637496    27.087215 
 5183400    218.82364   -468.42068    204420.41   -25530.887    1588.2816   -27119.168     -1038.93    11349.844    97.364599    14.637565    27.080731 
 5183600    222.32352   -672.53587    204420.41   -25516.124    1613.6847   -27129.809   -1783.5556    11356.504    97.364912    14.636685    27.084815 
 5183800    223.77247    -547.2716    204420.41   -25498.975    1624.2016   -27123.176   -1331.7144    11348.332    97.365079    14.636366    27.092978 
 5184000    224.67329   -619.23466    204420.41   -25420.627    1630.7399   -27051.367    -1600.088      11359.8    97.366071    14.634807    27.083823 
 5184200    228.28663   -469.20619    204420.41   -25433.199    1656.9666   -27090.165   -1044.9724    11352.608     97.36447    14.635899     27.08672 
 5184400    232.64937   -509.74799    204420.41   -25423.977    1688.6325    -27112.61   -1145.1191    11353.501    97.364625    14.634265    27.077242 
 5184600    224.35004   -602.56129    204420.41   -25464.413    1628.3937   -27092.807   -1545.2889    11349.945    97.365054    14.635847    27.078642 
 5184800    224.63957   -546.79526    204420.41   -25443.433    1630.4952   -27073.928   -1324.5931    11356.491    97.365289    14.634344    27.074504 
 5185000     228.6292   -672.44043    204420.41   -25444.635     1659.453   -27104.088   -1754.4305    11359.556    97.366594    14.635732    27.076983 
 5185200    224.13158   -568.70545    204420.41   -25520.328    1626.8081   -27147.136   -1390.7611     11349.11     97.36496    14.631626    27.085828 
 5185400    227.16425   -692.53525    204420.41   -25439.672      1648.82   -27088.492   -1774.6375    11356.614    97.366802    14.633597    27.086955 
 5185600    232.33614   -385.65866    204420.41   -25445.525     1686.359   -27131.884   -745.72139    11342.866    97.366347    14.634385    27.089292 
 5185800    226.02897   -683.50153    204420.41   -25412.436    1640.5798   -27053.016   -1792.0739    11363.488     97.36682    14.633059    27.085596 
 5186000    228.93735    -461.4148    204420.41   -25439.221    1661.6897   -27100.911   -1029.8946     11349.15    97.367998    14.636304    27.083893 
 5186200    231.25674   -675.68132    204420.41   -25414.803    1678.5244   -27093.328    -1777.612    11355.808    97.365416    14.633608    27.101882 
 5186400    226.52264   -601.10843    204420.41   -25453.714     1644.163   -27097.877   -1491.7365    11355.655    97.366775    14.637382    27.087842 
 5186600     230.7232   -511.66993    204420.41    -25445.67    1674.6519   -27120.322    -1207.646    11350.521    97.366814    14.636474    27.084143 
 5186800     227.5392   -777.67947    204420.41   -25450.198    1651.5415   -27101.739   -2134.8394    11366.865    97.368074    14.637114    27.089031 
 5187000    228.59527   -353.90765    204420.41   -25424.802    1659.2067   -27084.009   -643.81774    11345.257    97.367675    14.636982    27.084835 
 5187200    225.09633   -834.20674    204420.41   -25458.249    1633.8105   -27092.059   -2367.2228    11357.092    97.367095    14.638972    27.088887 
 5187400    229.48341   -440.55712    204420.41   -25502.323    1665.6531   -27167.976   -932.59314    11346.709     97.36709    14.640297    27.075698 
 5187600    230.70492   -637.71266    204420.41   -25413.856    1674.5191   -27088.375   -1614.1388    11362.934    97.366732     14.64049    27.083996 
 5187800    229.73473   -541.14497    204420.41   -25459.246    1667.4773   -27126.724   -1327.0314    11354.234    97.368786    14.640275     27.08513 
 5188000    231.57105   -578.33615    204420.41   -25403.733    1680.8058   -27084.539   -1460.1828    11350.955     97.36682    14.642621    27.078526 
 5188200    226.21019   -667.66765    204420.41   -25435.614    1641.8952   -27077.509   -1759.2385    11354.638     97.36957    14.643041    27.082044 
 5188400    226.18734   -465.09178    204420.41   -25432.151    1641.7293    -27073.88   -1044.8527    11350.316    97.369851    14.643322    27.085312 
 5188600    226.93339   -686.60189    204420.41   -25464.741    1647.1443   -27111.886    -1799.925    11361.213    97.369217    14.642485    27.083307 
 5188800    228.59616   -320.41397    204420.41   -25510.664    1659.2132   -27169.877    -528.4969    11340.844    97.369467     14.64394    27.068674 
 5189000    225.56874   -750.18173    204420.41   -25458.295    1637.2393   -27095.535   -1992.7688    11358.698    97.368804    14.642338    27.063722 
 5189200    215.15188   -385.14149    204420.41   -25562.774     1561.631   -27124.405   -728.88553    11347.205     97.37042    14.643798    27.063644 
 5189400    221.87725   -662.31998    204420.41   -25515.177    1610.4455   -27125.623   -1682.5578      11361.9    97.371187    14.639555    27.063447 
 5189600    229.35312   -532.00597    204420.41   -25440.818    1664.7074   -27105.525    -1265.129    11349.915    97.370518    14.640397    27.081426 
 5189800    225.92908   -591.42563    204420.41   -25480.361    1639.8548   -27120.216   -1468.9736    11350.715    97.370561    14.638834    27.076308 
 5190000    228.88707   -695.84278    204420.41    -25463.56    1661.3247   -27124.885   -1821.2116    11349.731    97.370903    14.641533    27.078579 
 5190200    225.05936   -543.78767    204420.41    -25491.96    1633.5421   -27125.502   -1277.7877    11352.028    97.371475    14.639735    27.073582 
 5190400     228.6314   -598.01923    204420.41   -25381.805     1659.469   -27041.274   -1500.3943    11359.202    97.372282    14.638715    27.085378 
 5190600    226.78172   -515.72029    204420.41   -25464.772    1646.0435   -27110.816   -1191.2217    11348.352    97.370808    14.638204    27.086521 
 5190800    231.00467   -665.87286    204420.41    -25444.95    1676.6949   -27121.645   -1755.0415    11351.016    97.370784    14.638891    27.079928 
 5191000    227.08696   -633.29333    204420.41   -25470.443     1648.259   -27118.702   -1631.2809    11354.317    97.369639     14.63963    27.087241 
 5191200    225.62655   -606.77028    204420.41   -25463.769     1637.659   -27101.428   -1559.0114    11359.026    97.371864     14.63976    27.084885 
 5191400    233.29475     -576.544    204420.41   -25434.566    1693.3169   -27127.883   -1413.2831    11349.521    97.369639    14.638258    27.077003 
 5191600    227.43139   -546.26447    204420.41   -25464.908     1650.759   -27115.667   -1297.5454     11349.61    97.368613    14.638953    27.075439 
 5191800    228.02603   -567.33661    204420.41   -25413.291    1655.0751   -27068.367   -1388.6705    11345.734      97.3686    14.638961    27.076829 
 5192000    232.67427   -671.82581    204420.41   -25396.697    1688.8132    -27085.51   -1728.5226    11358.274    97.367797    14.639912    27.078189 
 5192200    224.73749   -531.02217    204420.41   -25452.517    1631.2059   -27083.723   -1230.6023    11352.189    97.368995    14.639641    27.087139 
 5192400    226.96807   -662.85395    204420.41    -25457.76    1647.3961   -27105.156   -1710.9502     11351.69    97.367417    14.641026    27.098311 
 5192600     220.1022   -571.62735    204420.41   -25469.683    1597.5618   -27067.245   -1432.0155    11346.514    97.367517    14.640799    27.092801 
 5192800    228.24446   -570.02508    204420.41   -25431.488    1656.6605   -27088.148   -1353.1859    11355.941    97.366197    14.640402    27.094637 
 5193000    222.86888   -458.05774    204420.41   -25501.757     1617.643     -27119.4   -1022.6806     11353.39    97.365816    14.640118    27.084946 
 5193200    225.39412    -607.8035    204420.41     -25439.2     1635.972   -27075.172   -1505.2911     11352.46    97.364666    14.638619    27.090282 
 5193400    226.83768   -677.68752    204420.41   -25436.976    1646.4497   -27083.425   -1751.6941    11349.852    97.365632    14.639316    27.078397 
 5193600    228.32842   -623.87144    204420.41   -25420.977    1657.2699   -27078.246   -1586.1939     11352.96     97.36476    14.638554    27.091448 
 5193800    222.11783   -647.52105    204420.41   -25449.398    1612.1917   -27061.589   -1663.7178    11361.274    97.363653    14.639642    27.085212 
 5194000    218.15287   -653.66043    204420.41   -25550.641     1583.413   -27134.054   -1706.2739    11350.862    97.361901    14.638855    27.083478 
 5194200    224.95515   -596.71257    204420.41   -25487.909    1632.7858   -27120.695   -1448.8879     11350.42    97.359384    14.638695    27.068439 
 5194400    230.94844   -600.24959    204420.41   -25436.914    1676.2867     -27113.2    -1496.411    11352.898    97.360612    14.638862    27.074114 
 5194600    228.52227   -513.96155    204420.41   -25402.312    1658.6769   -27060.989    -1192.845    11354.692    97.359469    14.638343    27.072061 
 5194800    223.64336    -731.5287    204420.41   -25425.237    1623.2644   -27048.501   -1941.7129    11358.078    97.359917    14.636541    27.077328 
 5195000    224.68276   -589.50801    204420.41   -25434.629    1630.8087   -27065.438   -1470.3009     11347.92    97.359615    14.637448    27.078556 
 5195200    227.47147   -623.74794    204420.41   -25432.381    1651.0499   -27083.431   -1594.9781     11352.02    97.360128    14.637451     27.07165 
 5195400    225.85324   -568.97432    204420.41    -25437.64    1639.3043   -27076.944   -1368.0982    11354.669    97.360058     14.63933      27.0738 
 5195600    223.60128   -663.74651    204420.41   -25471.705     1622.959   -27094.664   -1718.4741    11361.449    97.359789    14.637189    27.067241 
 5195800    234.18704   -464.76636    204420.41   -25369.528    1699.7933   -27069.321   -1028.8169    11352.883     97.35961    14.636671     27.07328 
 5196000    226.78347   -685.66056    204420.41   -25445.191    1646.0562   -27091.247   -1810.6463    11351.399    97.359064       14.636    27.069702 
 5196200     228.5652   -577.33135    204420.41   -25454.212    1658.9885     -27113.2   -1404.2891    11356.599    97.359146    14.634632    27.062391 
 5196400    226.22911   -564.62852    204420.41   -25449.524    1642.0325   -27091.556   -1396.0955    11358.056    97.359187    14.635705    27.063557 
 5196600    225.46979   -584.39648    204420.41   -25428.188    1636.5212   -27064.709   -1435.5833    11355.042    97.359364    14.632384    27.070518 
 5196800    227.94144   -576.60481    204420.41   -25427.284    1654.4611   -27081.745   -1423.2393    11349.342    97.359817    14.634333    27.069103 
 5197000    228.04889   -636.10684    204420.41    -25373.26     1655.241   -27028.501   -1615.4408    11357.267    97.358776    14.631637    27.070738 
 5197200    228.88815   -583.82597    204420.41   -25469.572    1661.3326   -27130.905   -1471.2795    11356.966    97.361223    14.632829    27.059135 
 5197400     222.3774   -522.61635    204420.41   -25466.496    1614.0757   -27080.572   -1163.6436     11357.08    97.360992    14.631647    27.063659 
 5197600    222.66737   -683.01189    204420.41   -25508.161    1616.1805   -27124.342   -1770.4321    11354.055    97.362371    14.630526      27.0555 
 5197800    222.63734   -483.89768    204420.41   -25520.954    1615.9625   -27136.917   -1111.4907    11351.115     97.36116    14.633806    27.062339 
 5198000    230.88785   -597.44564    204420.41   -25394.235    1675.8469   -27070.082   -1502.5745    11359.462    97.362598    14.630459     27.06475 
 5198200    232.10279   -600.11036    204420.41   -25408.271    1684.6653   -27092.936   -1466.7285    11360.403    97.363616    14.631578    27.069279 
 5198400    228.17105   -611.69022    204420.41   -25474.079    1656.1276   -27130.207   -1487.7075    11356.774    97.363883    14.628895    27.069529 
 5198600    220.78747   -615.46954    204420.41   -25518.988    1602.5356   -27121.523   -1557.6922    11352.275    97.364532    14.630184    27.069553 
 5198800    228.33706   -554.30072    204420.41   -25448.397    1657.3326    -27105.73   -1346.7291    11350.829    97.364373    14.632145     27.06621 
 5199000    231.55356   -565.84159    204420.41   -25401.351    1680.6789    -27082.03   -1359.8771    11357.301    97.362141    14.633662    27.073078 
 5199200    233.20251   -618.26038    204420.41   -25447.984    1692.6473   -27140.631    -1552.192     11360.64    97.363352    14.633784    27.061762 
 5199400    229.94816   -491.35224    204420.41   -25436.479    1669.0264   -27105.505   -1149.4331    11353.701    97.362588    14.633985    27.065333 
 5199600    231.74202   -593.75635    204420.41   -25412.552    1682.0467   -27094.599    -1472.395    11355.981    97.363733    14.633754    27.064515 
 5199800     230.3052    -528.2905    204420.41    -25448.96    1671.6179   -27120.578   -1270.7729    11356.973    97.362991    14.635125     27.07241 
 5200000    226.79801   -644.59152    204420.41   -25399.244    1646.1617   -27045.405   -1653.3776    11358.869    97.363407    14.633488    27.068647 
Loop time of 6685.55 on 160 procs for 5200000 steps with 8482 atoms

Performance: 672.017 ns/day, 0.036 hours/ns, 777.797 timesteps/s
98.0% CPU use with 160 MPI tasks x no OpenMP threads

MPI task timing breakdown:
Section |  min time  |  avg time  |  max time  |%varavg| %total
---------------------------------------------------------------
Pair    | 0.23586    | 1681.3     | 5101.4     |4602.4 | 25.15
Neigh   | 0.33675    | 92.146     | 386.14     |1115.7 |  1.38
Comm    | 9.106      | 1709.6     | 5416.6     |4287.3 | 25.57
Output  | 81.114     | 81.188     | 83.173     |   1.8 |  1.21
Modify  | 353.48     | 3032.1     | 6511.9     |4741.0 | 45.35
Other   |            | 89.17      |            |       |  1.33

Nlocal:    53.0125 ave 164 max 0 min
Histogram: 57 9 54 0 0 0 0 5 5 30
Nghost:    543.144 ave 872 max 0 min
Histogram: 18 4 0 4 14 32 21 9 35 23
Neighs:    0 ave 0 max 0 min
Histogram: 160 0 0 0 0 0 0 0 0 0
FullNghs:  5319.52 ave 20610 max 0 min
Histogram: 90 30 0 0 0 0 0 6 13 21

Total # of neighbors = 851124
Ave neighs/atom = 100.345
Neighbor list builds = 565352
Dangerous builds = 0
write_data 		${DIR}/data.${NAME}_run
write_data 		run_19/data.${NAME}_run
write_data 		run_19/data.ibeam_cooling_19_run
Total wall time: 1:51:39
