
# Set production fixes - Nose/Hoover
#
fix                 4 water temp/csvr ${START_TEMP} ${END_TEMP} 500.0 928347
fix                 4 water temp/csvr 240 ${END_TEMP} 500.0 928347
fix                 4 water temp/csvr 240 227 500.0 928347


## divide "droplet" into core and surface
#region		core_reg cylinder z 135 135 44.6 20 INF units box
#region		surface_reg cylinder z 135 135 44.6 20 INF units box side out
#group		core dynamic all region core_reg
#group		surface dynamic all region surface_reg

## compute pressure core
#compute        peratom_core core stress/atom NULL
#compute        p_core core reduce sum c_peratom_core[1] c_peratom_core[2] c_peratom_core[3]
#variable       press_core equal -(c_p_core[1]+c_p_core[2]+c_p_core[3])/(3*1249982.5)


## compute pressure surface
#compute        peratom_surf surface stress/atom NULL
#compute        p_surf surface reduce sum c_peratom_surf[1] c_peratom_surf[2] #c_peratom_surf[3]
#variable       press_surf equal -(c_p_surf[1]+c_p_surf[2]+c_p_surf[3])/(3*42395)

## compute total pressure of drop
compute        peratom water stress/atom NULL
compute        p water reduce sum c_peratom[1] c_peratom[2] c_peratom[3]
variable       press equal -(c_p[1]+c_p[2]+c_p[3])/(3*58301)


# compute order parameter
compute        3 all orientorder/atom nnn NULL cutoff 3.5

# compute center of mass of bridge
compute 	4 water com

# Run simulation
thermo_style        custom step c_2 press vol etotal ke pe v_press c_1[4] c_4[*]
thermo              200
dump		     1 water custom 400 ${DIR}/prod.${NAME}.dump id type x y z vx vy vz c_3[*] c_peratom[*]
dump		     1 water custom 400 run_15/prod.${NAME}.dump id type x y z vx vy vz c_3[*] c_peratom[*]
dump		     1 water custom 400 run_15/prod.ibeam_cooling_15.dump id type x y z vx vy vz c_3[*] c_peratom[*]
run                 ${STEPS}
run                 5200000
Neighbor list info ...
  update every 1 steps, delay 0 steps, check yes
  max neighbors/atom: 2000, page size: 100000
  master list distance cutoff = 6.67472
  ghost atom cutoff = 6.67472
  binsize = 3.33736, bins = 48 11 12
  2 neighbor lists, perpetual/occasional/extra = 1 1 0
  (1) pair sw, perpetual
      attributes: full, newton on
      pair build: full/bin/atomonly
      stencil: full/bin/3d
      bin: standard
  (2) compute orientorder/atom, occasional, copy from (1)
      attributes: full, newton on
      pair build: copy
      stencil: none
      bin: none
Per MPI rank memory allocation (min/avg/max) = 0.8535 | 6.004 | 7.262 Mbytes
Step c_2 Press Volume TotEng KinEng PotEng v_press c_1[4] c_4[1] c_4[2] c_4[3] 
       0    237.65393   -401.84617    229018.04   -21103.493    1574.0675   -22677.561   -1083.5024    33.786874    78.591202    15.921533    29.665179 
     200      239.662   -294.29705    229018.04   -21141.272    1587.3677   -22728.639   -665.53102     35.77937    78.590843     15.92318    29.672175 
     400    240.64664    -242.3616    229018.04   -21118.501    1593.8893    -22712.39   -459.22407    36.324551    78.592229    15.925213    29.659529 
     600    227.88192   -159.20614    229018.04   -21254.291     1509.344   -22763.635   -100.21449    37.824507    78.593952    15.925026     29.65177 
     800    234.12623   -233.66472    229018.04   -21228.947    1550.7023    -22779.65   -424.22991    38.737342     78.59449    15.925946    29.669327 
    1000    243.28215   -441.86239    229018.04   -21090.573    1611.3453   -22701.918   -1208.2361     39.56905    78.592965    15.924699    29.675434 
    1200    237.44766    -292.4128    229018.04   -21186.534    1572.7013   -22759.235   -624.68078    40.090544    78.591532    15.923554    29.677333 
    1400    247.33991   -242.52332    229018.04    -21043.15    1638.2213   -22681.372   -449.43152     41.02621    78.589211    15.922406     29.66537 
    1600    245.42029   -24.696325    229018.04   -21038.863    1625.5069   -22664.369    406.38304     42.76341    78.590609    15.922263    29.662321 
    1800    240.47915   -297.90679    229018.04   -21098.376      1592.78   -22691.156   -646.35296    43.899145    78.589955    15.922158    29.691624 
    2000    248.02364   -307.78729    229018.04   -21001.881    1642.7498   -22644.631    -713.0851    45.009958    78.589335    15.921725     29.68914 
    2200    243.70828   -227.20353    229018.04     -21024.8    1614.1676   -22638.968    -423.7786    46.022402    78.588205    15.920989    29.686817 
    2400    247.81801   -252.80675    229018.04   -21074.018    1641.3879   -22715.406   -486.07569    47.137649    78.587978    15.923249    29.681387 
    2600    245.72571   -278.96072    229018.04   -21126.356    1627.5298   -22753.886   -579.98782    48.045484    78.587991    15.925387    29.676306 
    2800     242.8503   -327.27021    229018.04   -21075.262     1608.485   -22683.747    -829.1304    49.485796    78.587881    15.926047    29.663704 
    3000      240.867   -305.78669    229018.04   -21211.262    1595.3488   -22806.611   -700.51273    50.868473    78.588134    15.924528    29.683192 
    3200    241.31887   -225.09674    229018.04   -21190.664    1598.3417   -22789.006   -391.63316    52.024296    78.587419     15.92529    29.692344 
    3400    236.87538   -354.73612    229018.04   -21119.835    1568.9109   -22688.746   -904.96553    54.151499    78.587224     15.92613    29.685382 
    3600    246.20687   -290.96045    229018.04   -21115.739    1630.7167   -22746.456   -659.99062    56.004124    78.588349    15.926302    29.678732 
    3800    240.05491   -361.91335    229018.04   -21141.979    1589.9701   -22731.949   -888.95041    57.310656    78.589492    15.925965    29.673462 
    4000    242.54056   -380.87661    229018.04   -21143.413    1606.4335   -22749.846   -1007.4537    58.612026    78.587128     15.92488    29.683748 
    4200    240.12672   -97.264204    229018.04   -21058.671    1590.4457   -22649.117    103.06687     60.13284    78.585335    15.923778    29.689689 
    4400    242.53434   -299.63614    229018.04   -21010.782    1606.3923   -22617.174   -711.69524     60.70709    78.583049    15.923823     29.66186 
    4600    242.68955   -408.60014    229018.04   -21086.248    1607.4203   -22693.669   -1135.3603    61.817767    78.581837    15.925582    29.661283 
    4800    241.31204   -161.53986    229018.04    -21041.03    1598.2965   -22639.326   -171.99515     63.75869    78.583894    15.927082    29.661108 
    5000    240.08162   -285.10216    229018.04   -21100.538     1590.147   -22690.685   -614.78987    65.216075    78.584672    15.928492    29.661391 
    5200    237.29499   -253.88645    229018.04   -21065.371    1571.6901   -22637.061   -490.73578    66.773849    78.583353    15.928795    29.650805 
    5400    248.59797    -156.0555    229018.04    -21106.74    1646.5539   -22753.294   -73.340438    68.368645    78.583314    15.930552     29.60465 
    5600    239.70805   -281.77067    229018.04   -21200.565    1587.6727   -22788.237   -615.08144    70.055636     78.58396    15.932925    29.609996 
    5800    244.61894   -342.40479    229018.04     -21047.6    1620.1993   -22667.799   -859.61146    71.426143    78.584001    15.934645    29.627961 
    6000    231.18357   -323.99752    229018.04   -21206.649     1531.212   -22737.861   -839.99334    72.209988    78.586441    15.934049    29.606651 
    6200    243.11567   -198.54391    229018.04   -21135.897    1610.2426    -22746.14   -288.74009    73.848735    78.587243     15.93391    29.605981 
    6400    247.08316   -332.68824    229018.04   -21126.542    1636.5207   -22763.062   -826.93477    74.157261     78.58711    15.934826    29.570347 
    6600    236.91317   -9.8015305    229018.04   -21217.835    1569.1612   -22786.996    449.21053    74.872715    78.587178    15.936714     29.58037 
    6800    237.91726   -321.64585    229018.04   -21170.947    1575.8117   -22746.759   -777.19076    77.251521    78.587561    15.937905     29.57503 
    7000     233.0854   -290.50064    229018.04   -21203.769    1543.8085   -22747.578   -664.89292    78.585043    78.588479     15.93803    29.602693 
    7200     241.0588   -203.30625    229018.04    -21087.76    1596.6192   -22684.379   -291.47733    79.060968    78.589271    15.936821    29.592331 
    7400    236.25105   -241.85814    229018.04   -21172.976    1564.7757   -22737.752   -445.08539    80.627719     78.58887    15.937988    29.597104 
    7600    231.51256   -318.59254    229018.04   -21230.988     1533.391   -22764.379   -766.53887    82.538296    78.586646    15.939383    29.601807 
    7800    242.37608   -410.58339    229018.04   -21098.116     1605.344    -22703.46   -1122.2442    84.133544    78.586683    15.940961    29.603838 
    8000    241.93517   -494.56871    229018.04   -21069.694    1602.4237   -22672.118   -1485.3343    86.047705    78.587058    15.941991    29.611811 
    8200    238.82031   -258.45549    229018.04    -21170.15    1581.7929   -22751.942   -529.95153    86.668723    78.587004    15.942845    29.605859 
    8400    227.13874   -275.33162    229018.04   -21155.034    1504.4216   -22659.455   -579.90537    87.649393    78.586559    15.943037     29.61059 
    8600    243.11334     -430.719    229018.04   -21086.128    1610.2271   -22696.355   -1195.9878    89.195085    78.587022    15.941985    29.644202 
    8800    238.76612    -376.7856    229018.04    -21114.24     1581.434   -22695.674   -1011.7917    90.445496    78.588053    15.939801    29.624088 
    9000    240.86623   -233.22706    229018.04   -21092.291    1595.3437   -22687.635   -429.95098    91.716113    78.589849    15.936672     29.61749 
    9200    241.85197   -155.17799    229018.04   -21138.754    1601.8727   -22740.627    -139.2043    93.289757    78.590647    15.934287    29.595305 
    9400    241.60135   -412.49725    229018.04    -21196.81    1600.2127   -22797.022   -1161.1777    94.143691    78.590091    15.932754    29.577411 
    9600    235.21502   -286.88157    229018.04   -21181.196    1557.9137    -22739.11   -641.09125    94.267941    78.589105    15.930679    29.583368 
    9800      241.301   -226.98599    229018.04   -21145.378    1598.2234   -22743.601   -408.07831    96.217827    78.590816    15.929929    29.560657 
   10000    255.69593   -178.35683    229018.04   -21012.676    1693.5662   -22706.242   -187.16037    97.359263    78.591553    15.927396    29.551834 
   10200    238.67717   -289.18547    229018.04    -21066.54    1580.8448   -22647.385   -659.79076    98.845124    78.590933    15.928104    29.536133 
   10400    242.58993   -201.41371    229018.04   -21092.429    1606.7605    -22699.19   -340.42524    101.41886    78.591811    15.926914    29.541918 
   10600    238.28146   -243.67043    229018.04   -21072.448    1578.2239   -22650.672   -448.59198    102.18594    78.592737    15.928548    29.542522 
   10800    243.85494   -119.34525    229018.04    -21096.52     1615.139   -22711.659    10.793586    102.87067    78.593531    15.929921    29.541193 
   11000    239.15531   -251.21188    229018.04   -21098.626    1584.0117   -22682.638   -503.86457    104.40894    78.595323    15.931395    29.544921 
   11200    239.64524   -280.14287    229018.04   -21111.106    1587.2567   -22698.363   -626.63219    105.04715    78.595267    15.931812    29.552743 
   11400     242.5594   -253.38733    229018.04   -21104.709    1606.5582   -22711.268    -529.2724    106.61225    78.597375    15.931721    29.558231 
   11600    240.80361   -349.87409    229018.04     -21056.9     1594.929   -22651.829   -881.66256      108.282    78.597822    15.931675    29.562668 
   11800    237.46158   -203.28435    229018.04   -21061.055    1572.7935   -22633.848   -345.17376    108.57293    78.596134    15.935245    29.560865 
   12000    239.65404   -281.95366    229018.04   -20974.148    1587.3149   -22561.463   -632.98198    110.18338    78.596036    15.937898    29.532771 
   12200    236.76212   -337.73514    229018.04   -21039.617    1568.1607   -22607.777   -848.24215    112.72022    78.597238    15.941485    29.526738 
   12400    249.03481   -390.31813    229018.04   -20980.755    1649.4472   -22630.202   -1033.0043    113.88204    78.598093    15.943533    29.517267 
   12600    243.50158    -409.8574    229018.04    -20963.87    1612.7986   -22576.669     -1117.92    115.86909    78.601228    15.946158    29.500017 
   12800    241.88761   -307.79554    229018.04   -21078.319    1602.1087   -22680.428   -707.16798    118.01909    78.600892    15.944638    29.515465 
   13000    238.67732   -404.86247    229018.04   -21136.654    1580.8458     -22717.5   -1134.6798    120.06344    78.600289    15.942766    29.530041 
   13200     246.3163   -397.16939    229018.04   -21064.839    1631.4415    -22696.28   -1056.5388    121.11226    78.600212    15.942502    29.524208 
   13400    243.10452   -435.43574    229018.04   -21009.106    1610.1687   -22619.275   -1207.1002    122.46917    78.599895    15.941847    29.504352 
   13600    238.98917   -282.06412    229018.04   -21039.692    1582.9113   -22622.604   -677.30814    124.97712    78.600976     15.93953    29.492869 
   13800    234.21589   -194.22341    229018.04   -21129.014    1551.2961   -22680.311   -264.65617    126.03031    78.601213    15.940514    29.500643 
   14000    244.28937   -246.62891    229018.04   -21092.402    1618.0164   -22710.418   -513.37535    127.21491    78.600952    15.939997    29.478174 
   14200     228.5864   -287.12994    229018.04   -21176.352      1514.01   -22690.362   -609.94375    127.82277    78.599839    15.938204    29.463225 
   14400    229.06724   -372.17529    229018.04   -21218.134    1517.1948   -22735.328   -983.19754    131.11784    78.597445    15.934297    29.453186 
   14600    239.73135   -290.32579    229018.04   -21176.779     1587.827   -22764.606   -616.14567    132.50319    78.596144     15.93064    29.456648 
   14800    232.24754   -443.96483    229018.04   -21143.544    1538.2591   -22681.803    -1266.065     133.3657    78.593458    15.927143    29.457347 
   15000    245.09521   -236.61963    229018.04   -21136.217    1623.3538   -22759.571    -428.9916    134.10841    78.593785    15.923931    29.475562 
   15200    230.72226   -404.86238    229018.04   -21225.258    1528.1566   -22753.415   -1099.7848    134.43772    78.593741    15.921641    29.490613 
   15400    232.59541   -263.68312    229018.04   -21144.732    1540.5631   -22685.295    -521.6993    135.50438     78.59249    15.923055    29.492706 
   15600    238.07805   -393.85823    229018.04   -21165.964    1576.8766   -22742.841   -1071.9517     136.7114    78.593689    15.925476    29.498331 
   15800    242.86351   -328.30306    229018.04   -21029.108    1608.5724    -22637.68    -795.1086    138.87243    78.595317    15.927744    29.500103 
   16000    237.96229   -357.57535    229018.04   -21054.578    1576.1099   -22630.688   -882.71146    140.75897      78.5951     15.92726    29.504774 
   16200    242.51853   -176.13894    229018.04   -20977.012    1606.2875   -22583.299   -176.24117    142.66181    78.595997    15.927302    29.516965 
   16400    247.95608   -249.15739    229018.04   -21004.543    1642.3023   -22646.846   -492.36422    143.77683    78.594208    15.926974    29.529066 
   16600    250.41398   -421.60567    229018.04   -21073.337    1658.5819   -22731.919   -1163.1352     146.6714    78.592547    15.926723    29.524178 
   16800    238.72483   -461.20358    229018.04   -21055.747    1581.1605   -22636.908   -1324.2546    148.14203    78.593132    15.930021     29.51364 
   17000    244.17189   -363.44569    229018.04   -21065.421    1617.2383    -22682.66   -937.65999    149.11283    78.593487    15.931963    29.525054 
   17200    236.82363   -329.50692    229018.04   -21097.968    1568.5681   -22666.536   -757.65512    150.80216    78.592369    15.936581    29.521553 
   17400    244.07393   -147.47907    229018.04   -21014.052    1616.5895   -22630.641    -146.6064    152.08082     78.59096    15.939332    29.510357 
   17600     241.7044   -382.07247    229018.04    -20966.18    1600.8953   -22567.075    -1014.993    155.21562     78.59095     15.94086    29.519777 
   17800    243.88094   -292.67433    229018.04   -21041.626    1615.3113   -22656.937   -686.83626    155.24691    78.591661    15.940676    29.515305 
   18000    236.93379   -296.21727    229018.04   -21060.658    1569.2977   -22629.956   -670.35734    157.69582     78.59036    15.938038    29.543759 
   18200    240.02228   -161.26456    229018.04   -21091.356     1589.754    -22681.11   -178.13997    159.08674    78.589207    15.934827    29.549638 
   18400     240.7007   -185.56605    229018.04   -21114.616    1594.2474   -22708.863   -234.25318    161.11249    78.590193    15.936391     29.54487 
   18600    241.50144   -312.15257    229018.04   -21078.821     1599.551   -22678.372    -754.8195    162.24487    78.591516    15.937295    29.551157 
   18800    239.84562   -398.83006    229018.04    -21103.64    1588.5839   -22692.224   -1080.6044    165.16022    78.592997    15.934961    29.540037 
   19000    243.28733   -192.94487    229018.04   -21103.182    1611.3795   -22714.561   -284.09478    167.56429    78.592386    15.932175    29.530623 
   19200    239.31895   -230.58453    229018.04   -21113.739    1585.0955   -22698.835   -404.51046     167.6531    78.593805    15.934043    29.537247 
   19400    236.53684   -233.62591    229018.04   -21084.336    1566.6686   -22651.004   -443.77749    168.34706    78.593349    15.935418    29.539168 
   19600    234.19034   -248.49477    229018.04   -21126.515    1551.1269   -22677.641   -453.84844    170.14782    78.594201    15.936318    29.557807 
   19800    242.20651   -310.83599    229018.04   -21115.921    1604.2209   -22720.142   -743.41769    170.99235    78.598937    15.935842      29.5689 
   20000    238.75977   -433.04318    229018.04   -21144.625    1581.3919   -22726.016   -1186.2628    172.45564    78.600572    15.935686    29.576293 
   20200    243.39587   -312.39468    229018.04   -21114.126    1612.0985   -22726.224   -727.80855    174.01991    78.599236    15.932746    29.586757 
   20400     232.9768   -222.91144    229018.04   -21197.059    1543.0892   -22740.148   -372.16616     177.3381    78.600434    15.931072    29.594761 
   20600    243.83379   -392.85337    229018.04   -21121.512    1614.9989   -22736.511   -1077.7058    178.66844    78.599974    15.929679    29.590454 
   20800    234.06323   -391.89829    229018.04   -21122.148     1550.285   -22672.433   -1078.4203    180.19467    78.597789    15.930766    29.594824 
   21000    235.81208   -247.10107    229018.04   -21140.575    1561.8683   -22702.443   -473.28114     182.7238    78.599011    15.932283    29.590314 
   21200    238.53989   -410.03338    229018.04   -21065.276    1579.9355   -22645.212   -1086.9919    183.35045    78.598058    15.931046     29.58216 
   21400    236.33073   -307.29032    229018.04   -21173.929    1565.3035   -22739.233    -709.7758    184.28263    78.597191    15.930404    29.576383 
   21600    239.07964   -284.62598    229018.04   -21079.966    1583.5105   -22663.476   -622.21797    186.22415    78.598425    15.930646    29.575255 
   21800    245.86864   -223.94113    229018.04   -21106.944    1628.4765    -22735.42   -374.67227    186.24185     78.59784    15.932381    29.569345 
   22000    236.80693   -354.00349    229018.04   -21140.187    1568.4575   -22708.645   -877.67304    187.11855    78.598359    15.932363    29.557174 
   22200    240.54636   -397.00111    229018.04    -21115.89    1593.2251   -22709.116   -1029.5747    188.96125    78.599957    15.931088    29.539609 
   22400     238.7243   -341.47789    229018.04   -21142.891     1581.157   -22724.048   -893.74382     187.4146    78.600263    15.931527    29.547916 
   22600    240.50358   -305.02085    229018.04   -21149.358    1592.9417   -22742.299   -681.77348      187.314    78.598309     15.93036    29.549508 
   22800    240.72484   -356.38386    229018.04   -21095.936    1594.4073   -22690.343   -883.73075    189.98499    78.597622    15.926751    29.574688 
   23000    237.58482   -261.75247    229018.04   -21119.825    1573.6098   -22693.435   -523.92753    190.68906    78.599332    15.929228      29.5881 
   23200    230.96583   -415.65128    229018.04   -21168.614    1529.7698   -22698.384   -1116.7281     191.8961    78.599719    15.930311    29.566738 
   23400    241.65687   -305.31407    229018.04   -21085.634    1600.5805   -22686.214   -678.44119     193.2817    78.600741    15.936277    29.552177 
   23600    238.42575   -85.813317    229018.04   -21167.207    1579.1795   -22746.386    163.44816    194.45655    78.600531    15.939534    29.544367 
   23800    239.63981    -412.9514    229018.04   -21191.816    1587.2207   -22779.036   -1124.6186    196.19445    78.599811     15.94173    29.548117 
   24000    243.32813   -255.83855    229018.04   -21114.621    1611.6498   -22726.271   -515.96281    197.73051    78.602357    15.943866    29.531208 
   24200    232.37011   -271.17186    229018.04   -21121.965    1539.0708   -22661.036   -589.73306    197.38854    78.603145      15.9434    29.521783 
   24400    240.98317   -341.94497    229018.04   -21077.176    1596.1183   -22673.294   -835.59026    201.14666    78.602097    15.943147    29.525636 
   24600     234.8981   -36.343035    229018.04   -21131.246    1555.8147   -22687.061    357.17669    202.05663     78.60001    15.943497     29.53986 
   24800    239.84625    -399.0451    229018.04   -21103.844     1588.588   -22692.432   -1065.1707    202.73522    78.599732    15.943959    29.557059 
   25000    245.21396   -275.81706    229018.04    -21099.38    1624.1403   -22723.521   -597.39563     203.9356    78.598717    15.943755    29.551209 
   25200    237.10781   -252.53183    229018.04   -21058.196    1570.4504   -22628.646   -544.83601    205.40061    78.599461    15.942974    29.553083 
   25400    240.79106   -201.52459    229018.04    -21091.07    1594.8458   -22685.916   -290.17484    207.60352    78.599734    15.940906    29.527896 
   25600    245.15307   -317.53062    229018.04   -21078.144     1623.737   -22701.881    -753.1306     208.0291    78.598945    15.940172    29.516572 
   25800    242.40183   -297.01436    229018.04   -21110.512    1605.5145   -22716.027   -650.16289    209.22221    78.598986     15.93855    29.492933 
   26000    238.10299   -206.20872    229018.04   -21144.978    1577.0418    -22722.02   -331.41937    211.34729    78.601407    15.938183    29.473653 
   26200    238.99277    -388.4447    229018.04   -21118.171    1582.9351   -22701.106    -1018.276    213.79137    78.602616    15.940055    29.468674 
   26400    235.10398   -344.64421    229018.04   -21206.841    1557.1783    -22764.02   -878.74304    214.32415    78.602359     15.94305    29.456931 
   26600    237.54794   -114.09236    229018.04   -21172.729    1573.3655   -22746.095    23.762031    216.76091    78.599921    15.943694    29.438942 
   26800    237.81859   -439.05026    229018.04   -21094.784    1575.1581   -22669.942   -1203.4609    218.59376    78.598988    15.943644    29.428547 
   27000    240.23339   -376.02586    229018.04   -21121.279    1591.1522   -22712.431   -960.68744     219.7238     78.59818    15.945187     29.44307 
   27200    246.45262   -341.01171    229018.04    -21020.64    1632.3444   -22652.984   -843.99121     221.1988    78.599479     15.94571    29.435011 
   27400    238.40311    -324.3328    229018.04   -21111.607    1579.0296   -22690.636   -797.49384    220.78672    78.600624    15.945283    29.443221 
   27600    236.05191   -341.77245    229018.04   -21123.118    1563.4568   -22686.574   -812.54904    221.86215    78.600757    15.946401    29.423736 
   27800    238.20704   -166.12553    229018.04   -21233.781     1577.731   -22811.512   -173.07618    222.23705    78.600988    15.948414    29.431727 
   28000    230.69804   -401.72788    229018.04   -21181.859    1527.9962   -22709.855   -1079.6244    224.19639    78.601443    15.949023    29.454156 
   28200     241.0637   -223.18142    229018.04   -21097.076    1596.6516   -22693.728    -389.7284    224.20922    78.602945    15.952597    29.450629 
   28400    241.71081   -326.25064    229018.04   -21101.007    1600.9377   -22701.944   -783.41284    224.48484    78.603918    15.953326    29.474132 
   28600    246.15534   -219.57778    229018.04   -21120.908    1630.3754   -22751.283   -352.47451    227.46815    78.603815    15.952022    29.457848 
   28800    239.94876   -269.04646    229018.04   -21184.027     1589.267   -22773.294   -527.21758    226.82178    78.605213    15.949574    29.456029 
   29000     243.1122   -287.04943    229018.04    -21124.93    1610.2196   -22735.149   -621.57361    227.24353    78.605649    15.948765    29.459362 
   29200    239.01012   -313.19152    229018.04   -21146.879      1583.05   -22729.929   -739.03859    227.88716    78.607752    15.947936    29.477424 
   29400     242.1978   -177.18945    229018.04    -21096.04    1604.1632   -22700.204   -215.76134    229.57742    78.608733    15.945779     29.47533 
   29600    233.86785   -220.54743    229018.04   -21141.238    1548.9909   -22690.229   -385.94533    231.84438    78.609857    15.945372    29.461446 
   29800    245.76007   -289.36965    229018.04   -21136.617    1627.7574   -22764.375   -652.32699    234.59442    78.609562     15.94636    29.493917 
   30000    244.02217   -253.18901    229018.04   -21139.574    1616.2467   -22755.821    -511.7994     236.5515    78.612176    15.947056    29.512695 
   30200    239.54643   -248.85007    229018.04   -21164.481    1586.6022   -22751.083   -507.23008    238.73227    78.612693    15.945747    29.500303 
   30400    235.58218   -186.88094    229018.04   -21174.433    1560.3456   -22734.778   -250.21638    237.92714    78.614826    15.946763    29.504992 
   30600    230.96532   -288.47939    229018.04   -21234.569    1529.7665   -22764.336   -612.19034    237.78897    78.614908    15.947199    29.507279 
   30800    231.92079   -287.26666    229018.04   -21155.868    1536.0948   -22691.962   -642.00711    240.89823    78.615552    15.948688    29.526634 
   31000    247.50534   -209.66464    229018.04   -21107.873     1639.317    -22747.19    -346.4496    241.51538    78.613975    15.950936    29.524767 
   31200    246.33421    -366.9511    229018.04   -21055.216    1631.5601   -22686.776   -903.45921     243.2527    78.612887     15.95262    29.516953 
   31400    241.56773   -211.44874    229018.04   -21075.118      1599.99   -22675.108   -337.41131    244.24553    78.612835     15.95241    29.495667 
   31600    239.33557   -328.09386    229018.04   -21038.141    1585.2056   -22623.347   -821.13461    244.65932    78.613039    15.952628    29.509741 
   31800    237.15492   -250.15677    229018.04   -21076.065    1570.7624   -22646.827   -483.60193    246.94611    78.611999    15.954877    29.527859 
   32000    241.82122   -202.17061    229018.04    -21081.52     1601.669   -22683.189   -287.01527    249.29549    78.611406    15.954431    29.508669 
   32200    234.35769   -277.22253    229018.04   -21175.818    1552.2353   -22728.053    -612.5792    249.90436      78.6114    15.955884    29.506526 
   32400    232.85543    -231.6681    229018.04   -21140.361    1542.2853   -22682.647   -432.92166    251.47154    78.612586    15.955052    29.510946 
   32600    240.67889   -138.09338    229018.04   -21150.902    1594.1029   -22745.005   -77.812131    251.79099    78.612184    15.952988    29.504806 
   32800    238.50832   -334.15069    229018.04   -21150.739    1579.7264   -22730.465   -846.54694    252.46649    78.612398    15.951479    29.499041 
   33000    242.52197   -255.61303    229018.04   -21092.921    1606.3103   -22699.231   -529.38625    254.71673    78.612415    15.949459    29.479528 
   33200    237.37633   -135.90735    229018.04   -21133.063    1572.2289   -22705.292   -72.515888      255.609    78.614568    15.951815    29.466851 
   33400    242.63298   -240.67179    229018.04     -21174.4    1607.0456   -22781.446   -449.02191    257.86239    78.614098    15.953491    29.468647 
   33600    234.59889   -339.63476    229018.04   -21247.311    1553.8329   -22801.144   -844.12993    258.85465    78.613668    15.947915    29.483199 
   33800    239.46398    -463.0167    229018.04   -21103.864    1586.0561    -22689.92   -1332.1078    260.88096    78.610846    15.946071    29.480047 
   34000    245.62893   -191.47024    229018.04   -21140.297    1626.8888   -22767.186   -267.59028    261.34238    78.610172    15.944256    29.490419 
   34200    237.45933    -365.5547    229018.04   -21162.308    1572.7786   -22735.087   -957.24274    264.17361    78.609949    15.944416    29.482203 
   34400     241.4518   -342.37864    229018.04   -21153.267    1599.2222    -22752.49   -844.91093    265.79773    78.609207    15.942237    29.486552 
   34600    236.43908   -213.26075    229018.04   -21141.124    1566.0211   -22707.145   -348.48093    264.33741    78.609502    15.941897    29.500558 
   34800    239.39273   -338.13906    229018.04    -21111.58    1585.5842   -22697.164   -875.62307     265.7297    78.609601    15.941832    29.513924 
   35000    236.69853   -289.78003    229018.04   -21097.408    1567.7396   -22665.147    -622.9526    268.66766    78.609379    15.943359    29.502601 
   35200    248.80346   -337.22164    229018.04   -21126.435    1647.9149    -22774.35   -861.19744    271.79831    78.609748    15.944679     29.48616 
   35400    246.93266   -115.25061    229018.04   -21064.969    1635.5239   -22700.493     37.32573    272.56516    78.609774    15.942256    29.472136 
   35600    239.18243   -215.52344    229018.04   -21167.577    1584.1914   -22751.768   -310.67183    273.80256    78.609419    15.940732      29.4489 
   35800    241.81944   -263.51407    229018.04   -21126.366    1601.6572   -22728.023   -558.55106    276.57417    78.610826    15.942134    29.447082 
   36000    237.68697   -231.68216    229018.04   -21225.488    1574.2863   -22799.774   -423.17342    277.23512    78.613703    15.942771    29.464474 
   36200    234.93406   -319.51086    229018.04   -21230.283    1556.0528   -22786.336    -730.7226    276.39966    78.613185    15.942255    29.448705 
   36400    236.85889   -286.94517    229018.04   -21181.739    1568.8017   -22750.541   -630.83813    278.06164    78.611681    15.942456     29.45789 
   36600    230.01716   -333.66406    229018.04   -21185.256    1523.4864   -22708.742   -803.28024    279.57493    78.610612    15.940454    29.466322 
   36800    238.08534   -349.98135    229018.04   -21176.378    1576.9249   -22753.303   -840.94102    279.97125    78.611064    15.941924    29.461569 
   37000    240.53302   -402.83702    229018.04   -21127.958    1593.1368   -22721.095   -1035.7664    282.50793    78.610246    15.942894    29.464564 
   37200    235.05837    -213.9795    229018.04   -21248.545    1556.8762   -22805.421   -320.32629    284.10616    78.610221    15.945075    29.460798 
   37400    239.02985   -180.39686    229018.04   -21177.676    1583.1807   -22760.857   -158.27451    286.86915    78.611166    15.945739    29.445833 
   37600    244.61095   -361.92591    229018.04   -21134.987    1620.1463   -22755.133   -919.97577    286.74941    78.612749    15.944841    29.441583 
   37800    234.07597   -307.65613    229018.04   -21228.288    1550.3694   -22778.657   -691.92968    288.41077    78.614803    15.943681    29.443422 
   38000    235.45214   -287.95016    229018.04   -21177.538    1559.4843   -22737.022   -636.06962    291.76981    78.613993      15.9437    29.402525 
   38200    232.64525    -260.9684    229018.04     -21159.5    1540.8932   -22700.394   -493.21584    293.40314    78.615628    15.943105    29.424664 
   38400      240.797    -346.7878    229018.04   -21187.543    1594.8852   -22782.429   -842.63939    295.77349    78.613262    15.944589    29.403747 
   38600    240.73642   -277.92973    229018.04   -21195.112    1594.4839   -22789.596   -582.62151    297.40038    78.615085    15.947996    29.415424 
   38800    238.21817   -427.05797    229018.04   -21181.855    1577.8047    -22759.66   -1171.9262        299.4    78.617212    15.951701    29.408997 
   39000      242.643   -210.72364    229018.04    -21155.23    1607.1119   -22762.342   -289.47009    301.42996    78.615885    15.954031    29.408273 
   39200    233.79371   -400.43695    229018.04   -21256.675    1548.4999   -22805.175   -1048.4238    302.71961    78.613984    15.951548    29.390679 
   39400     232.5017   -392.89623    229018.04   -21193.354    1539.9424   -22733.297   -1031.9562    304.56404    78.612417    15.952534    29.398119 
   39600    236.62078   -191.74713    229018.04   -21169.063    1567.2246   -22736.288   -233.05621    306.82391    78.610336      15.9529    29.388565 
   39800    243.95422   -265.39681    229018.04   -20982.267    1615.7966   -22598.063    -551.6288      310.237    78.612137    15.954972    29.384827 
   40000    243.55666   -389.52026    229018.04   -21089.781    1613.1634   -22702.945   -1004.9595    311.99875    78.611582    15.955368    29.382891 
   40200    230.60794    -395.3757    229018.04   -21212.178    1527.3994   -22739.577   -1077.1726    312.34173    78.612531    15.956257    29.382677 
   40400    237.88321    -125.2245    229018.04   -21026.933    1575.5861   -22602.519    -15.50556    313.31881    78.611469     15.95657     29.38124 
   40600    236.93727   -366.31326    229018.04    -21158.22    1569.3208   -22727.541   -965.11829    313.42162    78.610063    15.957013    29.395659 
   40800     234.2564   -288.20278    229018.04   -21132.896    1551.5644   -22684.461   -589.30728    317.88754    78.610458    15.957289    29.389529 
   41000    241.16473   -243.35013    229018.04   -21094.249    1597.3208    -22691.57    -479.2307    319.22312    78.610066    15.957563    29.369214 
   41200    246.60735    -64.34791    229018.04    -21090.29    1633.3693    -22723.66    258.44425    320.67843    78.611822    15.956311    29.366715 
   41400    245.64115   -359.20963    229018.04   -21132.855    1626.9697   -22759.825   -909.54104    322.63191    78.612846    15.954446    29.374795 
   41600    242.48892   -393.28342    229018.04    -21041.34    1606.0914   -22647.431   -1043.3066    323.33629    78.613234    15.953397    29.387676 
   41800    238.23912   -251.35327    229018.04   -21080.334    1577.9434   -22658.277    -472.8657     324.6489    78.614273    15.954106      29.3889 
   42000    240.01627   -238.27441    229018.04   -21112.459    1589.7142   -22702.173   -434.49638    326.28796    78.614782    15.952424    29.385766 
   42200    238.61871   -393.76372    229018.04   -21139.136    1580.4576   -22719.594   -1053.6973    330.43496    78.611789    15.951325    29.375637 
   42400     239.3492   -121.38345    229018.04   -21132.498    1585.2959   -22717.794     41.44182    333.61237    78.611877    15.951802    29.392917 
   42600    234.08666   -427.63976    229018.04   -21167.434    1550.4402   -22717.874   -1162.2939    334.13605     78.61252    15.949212    29.396898 
   42800    244.77918    -464.0034    229018.04   -21024.367    1621.2606   -22645.628   -1334.2433    336.31053    78.611558    15.947948    29.397377 
   43000    246.00507   -278.21985    229018.04   -20979.137    1629.3801   -22608.517   -583.05952    338.56645    78.610915     15.94544    29.408334 
   43200    242.22629   -283.40498    229018.04    -21057.72    1604.3519   -22662.072   -642.40158    336.36349    78.606937     15.94447    29.400781 
   43400     239.0497   -386.50296    229018.04   -21128.352    1583.3122   -22711.664   -997.28433    335.95006    78.606027    15.945476    29.411119 
   43600    234.76891   -272.82362    229018.04   -21159.587     1554.959   -22714.546   -608.58657    335.46145    78.606459    15.945748    29.410996 
   43800     243.5808   -399.63073    229018.04   -21106.773    1613.3233   -22720.096   -1009.8292    336.60617    78.605178    15.945628    29.423919 
   44000    235.90529   -255.20236    229018.04   -21190.389    1562.4857   -22752.874   -485.30913    337.02614    78.602759    15.948533    29.443305 
   44200      239.596    -392.7226    229018.04   -21161.334    1586.9306   -22748.264   -1013.1477    336.79916    78.600432    15.945282    29.435417 
   44400    244.57616   -201.87851    229018.04    -21104.12    1619.9159   -22724.036   -302.05701    335.95175    78.598996    15.943045    29.437689 
   44600    244.22197   -225.01482    229018.04    -21132.64      1617.57    -22750.21    -390.4437    338.14885    78.597288     15.93933    29.438755 
   44800     239.9002   -348.33194    229018.04   -21131.082    1588.9454   -22720.027   -890.01536    340.44924    78.596386    15.936405      29.4309 
   45000    233.27794   -326.58079    229018.04   -21133.313    1545.0837   -22678.397   -806.80402    342.06776    78.594927    15.932867     29.42259 
   45200     245.8691   -296.46063    229018.04   -20991.759    1628.4795   -22620.239   -613.96038    342.17444    78.593093     15.93255    29.434585 
   45400    248.32383   -264.38476    229018.04   -20992.197    1644.7381   -22636.935   -546.23324    343.95529    78.590853    15.934451    29.415165 
   45600    245.31613   -376.39839    229018.04   -21004.905     1624.817   -22629.722   -975.25995    345.33592    78.587372    15.937187    29.413105 
   45800    238.30801   -225.32938    229018.04   -21068.452    1578.3997   -22646.852   -374.81064    344.10934    78.584784    15.940488    29.408728 
   46000    242.44847   -377.57934    229018.04   -21043.239    1605.8235   -22649.063   -973.39373    345.09012    78.584887    15.942839    29.420955 
   46200    245.84008   -335.81807    229018.04   -21034.285    1628.2873   -22662.572   -798.28335    346.58667    78.585123    15.942435     29.42671 
   46400    244.90317   -343.57083    229018.04   -21053.967    1622.0818   -22676.049   -838.91115    344.94442    78.584038    15.941181    29.462413 
   46600    240.54292   -414.57569    229018.04   -21142.589    1593.2023   -22735.791   -1095.7437    344.58658    78.583601    15.945221    29.448697 
   46800     244.0425   -92.018846    229018.04   -21110.568    1616.3813    -22726.95    154.52927    346.93517    78.585342    15.946111    29.465869 
   47000    245.81933   -342.81911    229018.04   -21048.488    1628.1499   -22676.638   -858.22843    350.66887    78.585983    15.948316    29.471852 
   47200    237.09242    -293.8077    229018.04   -21125.638    1570.3484   -22695.987   -661.89195    353.36956     78.58793    15.947464    29.469464 
   47400     236.5257   -343.46096    229018.04   -21161.219    1566.5948   -22727.814   -840.00991    353.93322    78.587554    15.945485    29.486767 
   47600    239.33623   -416.06982    229018.04   -21096.847      1585.21   -22682.057   -1153.9961    353.49528    78.586744    15.946527    29.506915 
   47800     244.8755   -317.94939    229018.04    -21075.79    1621.8986   -22697.688   -751.90966    354.69982    78.587723    15.949632    29.490056 
   48000    235.20857   -241.60781    229018.04   -21119.885     1557.871   -22677.756   -456.42181     354.8478    78.588221    15.946026    29.482698 
   48200    231.98701   -406.36026    229018.04   -21155.734    1536.5334   -22692.267   -1131.4286    355.42544     78.59026    15.945639    29.481675 
   48400     234.6597   -454.32453    229018.04   -21169.049    1554.2357   -22723.285   -1322.2358    355.53065     78.58951    15.947158    29.478554 
   48600    236.97617    -209.6925    229018.04    -21142.59    1569.5784   -22712.169   -340.30059    356.93962    78.591399    15.944856    29.493372 
   48800    237.14181   -301.99311    229018.04   -21087.684    1570.6755    -22658.36   -687.03466    360.56565    78.593208    15.946086    29.498072 
   49000    240.60511   -304.91807    229018.04    -21125.75    1593.6142   -22719.365   -729.66382    360.81416    78.592141    15.942002    29.501985 
   49200    242.55663   -456.14731    229018.04   -21124.754    1606.5398   -22731.293   -1335.1618    361.38629    78.592315    15.940577     29.50734 
   49400    242.66917   -390.19711    229018.04   -21111.189    1607.2853   -22718.474   -1033.8452    361.50422    78.593048    15.940728    29.516835 
   49600    236.93377   -116.85445    229018.04   -21147.698    1569.2977   -22716.996    9.5308737    359.41631    78.592063    15.940424     29.51093 
   49800    239.84631   -251.59384    229018.04   -21202.972    1588.5884    -22791.56   -519.69911    359.77738    78.590905    15.941819    29.504618 
   50000    242.20884   -249.52334    229018.04   -21166.227    1604.2363   -22770.463    -461.5089    361.27856    78.589356    15.944829    29.511254 
   50200    239.61779   -266.39476    229018.04   -21156.889    1587.0749   -22743.964   -526.81822    364.83998    78.589518    15.944836    29.515203 
   50400    242.53092   -206.96585    229018.04   -21139.092    1606.3696   -22745.462   -336.43539    367.93158    78.592563    15.941709    29.505599 
   50600    236.38669   -339.03945    229018.04   -21181.221    1565.6741   -22746.895   -836.64425     370.4541    78.593324    15.939795    29.481626 
   50800    238.74662   -212.25036    229018.04    -21198.85    1581.3048   -22780.155   -349.58874    369.12511    78.591045    15.936095    29.487218 
   51000    234.96116   -365.44002    229018.04   -21161.737    1556.2323    -22717.97   -943.69148    373.05121    78.593279    15.934344    29.499061 
   51200    235.39139   -398.91617    229018.04   -21142.613    1559.0819   -22701.695   -1053.7663    375.08564    78.593231    15.932069     29.49348 
   51400    239.92494   -350.90091    229018.04    -21193.09    1589.1092   -22782.199   -884.10516    376.91092    78.595715      15.9322    29.516588 
   51600    237.62797   -328.79348    229018.04   -21163.562    1573.8956   -22737.457   -809.16642    380.17053    78.596864    15.933204    29.528674 
   51800    241.65632   -201.55509    229018.04    -21126.01    1600.5768   -22726.587   -274.68206    380.84842    78.597214    15.934307     29.50732 
   52000    243.53128   -263.39497    229018.04   -21100.566    1612.9953   -22713.562   -543.10721    382.15449    78.598281    15.932502    29.491904 
   52200    241.88171   -345.92903    229018.04   -21108.854    1602.0697   -22710.924   -887.07412    384.29673    78.597762    15.933351    29.511316 
   52400    239.70288   -266.71761    229018.04   -21142.067    1587.6384   -22729.705   -532.08619    384.06454    78.598887    15.934778    29.524205 
   52600    239.53277    -288.7686    229018.04   -21095.011    1586.5118   -22681.523   -658.89713     385.5345    78.598888    15.935426    29.505612 
   52800    235.79955    -370.2711    229018.04   -21202.404    1561.7853    -22764.19   -985.49819    386.08566    78.596998    15.934008    29.503789 
   53000    241.76844   -287.13605    229018.04   -21158.412    1601.3194   -22759.732   -641.39389    387.87233    78.598752    15.932271    29.505012 
   53200    242.66173    -295.5735    229018.04   -21149.045    1607.2359   -22756.281   -651.84059    390.72145    78.597731    15.931785    29.498796 
   53400    240.30403   -253.46202    229018.04   -21115.457    1591.6201   -22707.077   -492.03365    392.33336    78.596839    15.930515    29.479223 
   53600    240.28185   -314.33843    229018.04   -21130.488    1591.4731   -22721.961   -740.01491    395.10991    78.596456     15.93124    29.457677 
   53800    240.53622    -244.7054    229018.04   -21150.962    1593.1579    -22744.12   -471.66308    395.72266    78.595547    15.930398    29.442779 
   54000     246.8256    -322.3234    229018.04    -21047.62    1634.8148   -22682.435   -770.47151    397.03958    78.595246    15.931958    29.437591 
   54200    239.75691    -160.2032    229018.04   -21157.724    1587.9963    -22745.72   -154.04469    396.77919    78.596636    15.931532    29.460259 
   54400    232.49592   -504.56627    229018.04   -21227.544    1539.9042   -22767.448   -1474.3546    399.25569     78.59596    15.932671    29.492879 
   54600      247.631   -248.86735    229018.04    -21127.08    1640.1492   -22767.229    -512.1456    399.13566    78.596267     15.93283    29.494973 
   54800    244.36868   -452.02276    229018.04   -21093.271    1618.5418   -22711.813   -1256.6402    401.49511     78.59481    15.933807    29.492774 
   55000    241.45799    -156.3163    229018.04   -21131.373    1599.2632   -22730.636   -153.05019    402.93126    78.591044    15.934847    29.491473 
   55200    242.86883   -261.86494    229018.04   -21084.537    1608.6077   -22693.145   -574.85216    405.20854    78.589235    15.935165    29.510187 
   55400    242.08059   -266.04302    229018.04   -21102.515    1603.3869   -22705.902   -552.48416    405.88327    78.589055     15.93394    29.483691 
   55600    243.06096   -142.40299    229018.04   -21062.219    1609.8802   -22672.099   -69.753356    406.51159    78.591005    15.933758    29.468592 
   55800    245.14112   -268.97532    229018.04   -21112.825    1623.6579   -22736.483   -569.93046    409.00638    78.592373    15.932678    29.470387 
   56000    241.29279   -176.50968    229018.04   -21125.197     1598.169   -22723.366   -198.54947    410.28366    78.593361    15.931824    29.484743 
   56200    244.06349   -330.97871    229018.04   -21086.241    1616.5203   -22702.761   -791.41056    414.83919    78.594229    15.931279    29.487589 
   56400    242.62768   -197.21602    229018.04   -21087.606    1607.0105   -22694.616   -316.70002    418.10313    78.595608    15.928732    29.487547 
   56600    235.15811   -310.27538    229018.04    -21185.59    1557.5368   -22743.127   -743.49204    420.22175    78.595324    15.930331    29.498186 
   56800    238.54671   -372.35186    229018.04   -21166.023    1579.9807   -22746.003   -979.34242    422.31168     78.59176    15.930615    29.480111 
   57000    234.37208   -531.77322    229018.04   -21215.413    1552.3306   -22767.744   -1572.6459    423.68759    78.593198    15.930494    29.486928 
   57200     234.8152   -100.26804    229018.04   -21169.081    1555.2656   -22724.346    82.538096    422.84676    78.594714     15.93148    29.507816 
   57400    232.22082   -352.87383    229018.04   -21177.811    1538.0821   -22715.893   -911.36906    423.40571    78.595232    15.931735    29.521501 
   57600      245.145   -221.51379    229018.04   -21060.935    1623.6836   -22684.619   -378.85649    427.00567    78.593852    15.933813    29.550219 
   57800    236.24902   -398.63188    229018.04   -21074.248    1564.7623   -22639.011   -1072.8443      432.493    78.592913    15.936199    29.570391 
   58000    243.32018   -221.15609    229018.04   -21058.417    1611.5971   -22670.014   -371.40312    433.11124    78.594822    15.937031    29.561786 
   58200    244.95763   -218.49655    229018.04   -21028.467    1622.4426    -22650.91   -375.28237     435.0512    78.595925    15.936753    29.545587 
   58400     232.9385   -526.17369    229018.04   -21147.733    1542.8355   -22690.569    -1581.556    438.61237    78.597544     15.93814    29.536093 
   58600    238.74332   -132.01441    229018.04   -21090.792     1581.283   -22672.075   -56.049618    439.25792    78.599571    15.939214    29.537958 
   58800    240.56439   -224.81319    229018.04    -21129.39    1593.3446   -22722.735   -421.45643     435.9784    78.599224    15.941478     29.55317 
   59000    237.50699   -408.08577    229018.04   -21152.074    1573.0942   -22725.168   -1114.8097    436.66291    78.598088    15.942138    29.543899 
   59200    241.22054   -299.26475    229018.04   -21176.881    1597.6904   -22774.571   -634.13236     434.9171    78.597108    15.943771    29.546322 
   59400    233.27699   -422.62915    229018.04    -21161.47    1545.0775   -22706.548   -1141.6071    435.99703    78.596723    15.946489    29.569004 
   59600    236.65793   -120.89326    229018.04    -21091.37    1567.4707   -22658.841    1.4191864    435.67947    78.598794    15.948916    29.570248 
   59800    250.55711   -229.64391    229018.04   -21052.299    1659.5299   -22711.829   -408.27585    436.07721    78.599067    15.948949    29.570918 
   60000    234.14238    -443.6899    229018.04   -21158.804    1550.8092   -22709.613   -1245.3232    439.26681    78.597408     15.94906     29.56244 
   60200    247.24111   -308.70424    229018.04    -21075.51    1637.5669   -22713.077   -721.15578    440.51107    78.597487    15.949037      29.5423 
   60400    233.36842   -228.72526    229018.04   -21120.792     1545.683   -22666.475   -417.31762    439.49433    78.595535    15.947871    29.537685 
   60600     234.2133    -324.6057    229018.04   -21140.183     1551.279   -22691.462   -763.07461    440.54393    78.595904    15.947087     29.55876 
   60800    235.75587   -222.54406    229018.04   -21175.168     1561.496   -22736.664   -390.63011    440.48648    78.594799    15.946028    29.572019 
   61000    238.00685   -326.45838    229018.04   -21161.482    1576.4051   -22737.887   -783.72095    440.68527    78.594256    15.946128    29.587613 
   61200    234.55523   -249.27989    229018.04   -21253.854    1553.5437   -22807.398   -555.69708    439.34387    78.594911    15.947233    29.569643 
   61400    241.48949   -237.32286    229018.04   -21161.158    1599.4718    -22760.63   -452.57105    438.30132    78.594386    15.946302    29.595218 
   61600    239.72911   -202.11163    229018.04    -21115.79    1587.8122   -22703.602   -309.86268    434.97037    78.595086    15.942828    29.629135 
   61800    244.70769   -232.56532    229018.04   -21052.791    1620.7871   -22673.578   -462.11797    434.75269    78.596037    15.939432    29.601054 
   62000      239.367   -283.77283    229018.04    -21147.43    1585.4138   -22732.844   -636.75372    433.54094    78.596637    15.936234      29.6057 
   62200    234.35714   -473.95752    229018.04   -21101.856    1552.2317   -22654.087   -1377.7531    435.54021    78.594826    15.933506    29.604685 
   62400     241.1023   -246.31655    229018.04   -21068.435    1596.9073   -22665.343   -469.67019    436.97967    78.593025    15.929521    29.602818 
   62600    244.24064   -288.35595    229018.04   -21080.837    1617.6937    -22698.53   -673.75761    439.28804    78.591552    15.930439    29.566368 
   62800    237.26093   -486.37083    229018.04   -21072.661    1571.4645   -22644.126   -1427.1765    443.46948    78.590313    15.934073    29.555218 
   63000    239.53593    -193.2345    229018.04   -21092.139    1586.5327   -22678.671   -241.28303    445.01093    78.590359    15.933692    29.558443 
   63200    236.74119   -228.68864    229018.04   -21208.481    1568.0221   -22776.503   -426.50841    446.12327    78.589555    15.933548    29.555879 
   63400    245.64982   -201.10809    229018.04   -21101.968    1627.0272   -22728.995   -282.03056    448.47381    78.589006     15.93156    29.564743 
   63600    241.44889   -355.17463    229018.04   -21106.875    1599.2029   -22706.078   -913.70298     453.3281     78.58735    15.930402    29.567148 
   63800    239.63444   -335.04671    229018.04   -21088.707    1587.1851   -22675.893   -818.28296    455.08367    78.587631    15.930615    29.564293 
   64000    232.51568   -330.56287    229018.04   -21119.675     1540.035    -22659.71   -833.91099    453.27481    78.584929    15.932389    29.584453 
   64200    237.40911   -405.95141    229018.04   -21110.163     1572.446   -22682.609   -1130.9721    451.19966    78.583633    15.928914    29.612005 
   64400    246.30892   -154.80423    229018.04   -21099.016    1631.3926   -22730.408   -115.64716     448.6682    78.582385    15.929603    29.618093 
   64600    244.71361   -241.13882    229018.04   -21161.917    1620.8263   -22782.743   -480.19077     447.9795    78.581393    15.930118     29.62756 
   64800    240.41821   -368.05361    229018.04   -21083.284    1592.3764    -22675.66   -984.44173    448.66032     78.58244    15.928295    29.609961 
   65000    241.71403   -131.03804    229018.04    -21147.44     1600.959   -22748.399   -36.449766    449.18951    78.579503    15.929058    29.628289 
   65200     238.2532   -359.60292    229018.04    -21150.91    1578.0367   -22728.947   -887.00537    450.84076    78.578343    15.932091    29.624332 
   65400    246.59279   -334.92821    229018.04   -21074.296    1633.2728   -22707.569   -848.19735    451.94726    78.579444    15.934723    29.613722 
   65600    239.55201    -196.9112    229018.04   -21077.671    1586.6392    -22664.31   -327.37501    450.20465    78.580644    15.935493    29.635364 
   65800    237.21495   -459.57801    229018.04   -21151.658      1571.16   -22722.818   -1329.3268    450.20606    78.583192    15.933698    29.637328 
   66000    230.91216   -312.01473    229018.04   -21205.305    1529.4144    -22734.72   -737.74436    450.60997    78.583777     15.93258    29.631506 
   66200    243.77054   -329.71459    229018.04   -21115.913    1614.5801   -22730.493   -811.06193    452.08872    78.582756    15.933193    29.600535 
   66400    235.10108   -260.11165    229018.04   -21188.599    1557.1591   -22745.758   -541.46857    451.71963    78.582799    15.930544    29.607113 
   66600    235.26893   -437.96646    229018.04   -21136.155    1558.2708   -22694.426   -1265.4965    453.51515    78.581745    15.930312    29.607721 
   66800    238.97191   -252.03512    229018.04   -21198.599     1582.797   -22781.396   -492.97844    456.56296    78.581878    15.931037    29.597064 
   67000    242.11534   -227.27932    229018.04   -21178.149    1603.6171   -22781.766    -435.9467    460.38433    78.582328    15.931069    29.593187 
   67200    235.57706    -287.7464    229018.04   -21192.984    1560.3117   -22753.296   -635.38125    462.17914     78.58341     15.93284    29.589902 
   67400    237.08298   -314.02799    229018.04   -21133.511    1570.2859   -22703.797   -749.75386    464.88552    78.583842    15.933814    29.615905 
   67600    241.85184   -233.18924    229018.04   -21179.419    1601.8718   -22781.291   -409.34762     465.5765    78.584583    15.932279    29.632362 
   67800    241.32795   -330.76202    229018.04   -21167.556    1598.4019   -22765.958   -863.33806    469.76501    78.583362    15.934028    29.621724 
   68000    238.49672   -166.35955    229018.04   -21161.499    1579.6496   -22741.149   -139.36451    470.33142    78.582882    15.936152    29.636475 
   68200    239.06994   -177.27289    229018.04   -21178.424    1583.4463   -22761.871   -243.85717    473.07045    78.583736    15.935739    29.661664 
   68400    247.94132   -128.61005    229018.04    -21049.14    1642.2046   -22691.344   -5.2896172    475.54573    78.583743    15.938332    29.655741 
   68600      239.238   -263.00253    229018.04    -21090.88    1584.5594   -22675.439   -548.82723    478.17283     78.58205    15.937823    29.629878 
   68800    244.39466   -335.25586    229018.04   -21089.044    1618.7138   -22707.758   -817.82897    480.49198    78.584439     15.93337    29.614597 
   69000    246.18509   -328.03873    229018.04   -21067.586    1630.5724   -22698.158   -788.03849    481.78005    78.586196    15.932522     29.63786 
   69200    245.20302   -323.49668    229018.04   -21079.304    1624.0678   -22703.372   -752.06126    483.05784    78.585366    15.932841    29.664312 
   69400    238.73207   -108.12464    229018.04   -21085.542    1581.2084    -22666.75    67.981864    482.27563    78.585354    15.929281    29.635991 
   69600    236.89074   -419.40299    229018.04    -21080.19    1569.0127   -22649.203   -1146.3053    481.71413    78.586361    15.926531    29.635577 
   69800    241.80315   -289.72001    229018.04   -21063.809    1601.5493   -22665.358   -654.18533    482.63604     78.58689    15.925511    29.633909 
   70000    240.27071   -371.75567    229018.04   -21101.195    1591.3994   -22692.595   -939.96818    485.68035    78.585582    15.926543    29.640728 
   70200    239.04678   -348.79529    229018.04   -21087.305    1583.2929   -22670.598    -881.4176    488.01383    78.584847    15.927083    29.662597 
   70400     237.7826      -308.13    229018.04   -21093.788    1574.9197   -22668.708    -668.2967    493.30252     78.58579    15.928112    29.685911 
   70600    240.75332   -311.26979    229018.04   -21077.367    1594.5959   -22671.963   -733.31563    497.91113    78.585389    15.929301    29.696667 
   70800    242.46804   -205.24383    229018.04   -21104.858    1605.9531   -22710.811   -308.25431    501.01028    78.586509    15.929809    29.701418 
   71000    239.81961   -105.87425    229018.04   -21100.494    1588.4116   -22688.905    63.699674    503.41077    78.586679    15.930813    29.720747 
   71200    241.91547   -262.58247    229018.04   -20973.312    1602.2932   -22575.605   -510.45942    508.16177    78.585837     15.93212    29.729918 
   71400    238.94094   -349.44689    229018.04   -21056.732    1582.5919   -22639.323    -834.6514    511.24724    78.585917    15.931386    29.727226 
   71600    240.58666   -247.02198    229018.04   -21073.255    1593.4921   -22666.747   -491.40014     510.8348    78.587275    15.931608    29.752308 
   71800    241.60687   -371.00782    229018.04   -21102.722    1600.2493   -22702.971   -930.27756    509.03372    78.588449    15.930085    29.749028 
   72000    241.64518   -212.66242    229018.04   -21110.956     1600.503   -22711.459   -319.52435    509.74936    78.589171    15.929516    29.746017 
   72200    240.50705   -298.64782    229018.04   -21086.309    1592.9647   -22679.273   -624.21867    516.13264    78.590124    15.928514    29.727779 
   72400    246.71777   -232.46576    229018.04     -21026.5    1634.1006     -22660.6   -416.93343    518.37881    78.590903    15.929461    29.739116 
   72600    234.08104   -231.39768    229018.04    -21069.17     1550.403   -22619.573   -419.56869    520.73514    78.590977    15.932133    29.723548 
   72800    239.67492   -177.86708    229018.04   -21098.549    1587.4533   -22686.002   -176.06362    520.24537     78.59445    15.933902    29.717687 
   73000    245.00733   -503.94102    229018.04   -21097.192    1622.7717   -22719.964   -1489.2754    518.95095    78.594582    15.934808    29.733864 
   73200    244.81181   -459.52546    229018.04   -21014.986    1621.4768   -22636.462   -1292.9276    522.96579     78.59448    15.933695    29.724766 
   73400    248.58856   -273.38692    229018.04   -21036.046    1646.4915   -22682.537   -584.05467    523.32663     78.59371    15.932423    29.690214 
   73600    238.21672   -314.17958    229018.04   -21118.247    1577.7951   -22696.042   -734.10194    528.16605    78.593034    15.930954     29.70085 
   73800    241.70082   -259.87802    229018.04   -21086.326    1600.8716   -22687.198   -485.37114    530.08928    78.592185    15.928823    29.702504 
   74000    251.39079   -405.01304    229018.04   -21000.253    1665.0517   -22665.305   -1085.1895    529.92725    78.592765    15.928113    29.707889 
   74200    240.87646   -295.78915    229018.04   -21099.223    1595.4115   -22694.634     -704.797    528.34578    78.593327    15.925958    29.714991 
   74400    233.28299   -214.30513    229018.04   -21131.387    1545.1172   -22676.504   -326.71783    528.63989    78.593438    15.927742    29.704224 
   74600     236.2247   -375.72101    229018.04   -21139.595    1564.6012   -22704.196   -987.93611    528.71635    78.595738    15.928607    29.700749 
   74800    242.71604   -288.53353    229018.04   -21091.388    1607.5957   -22698.984   -570.91363    532.01006    78.595666    15.928705    29.686861 
   75000    242.56703   -261.98428    229018.04   -21134.247    1606.6087   -22740.855   -491.27053    535.29156    78.593963    15.928524    29.688707 
   75200    236.48742   -345.99668    229018.04    -21104.07    1566.3413   -22670.411   -880.44097    533.89127    78.594196    15.928017    29.679981 
   75400    241.72887   -247.57993    229018.04   -21055.752    1601.0573    -22656.81   -496.82894    531.02228    78.594384    15.929325    29.692422 
   75600    243.34205   -189.45426    229018.04   -21069.489     1611.742   -22681.231   -246.76309    530.69948    78.594645    15.932096    29.669189 
   75800    241.75385   -115.14646    229018.04   -21087.853    1601.2227   -22689.076    47.371472    530.49874    78.594247    15.931984    29.693617 
   76000    239.34503   -162.24272    229018.04   -21065.251    1585.2683   -22650.519   -145.43428    528.40686    78.593815    15.934411    29.706544 
   76200    239.19167   -316.19242    229018.04   -21121.741    1584.2525   -22705.993   -738.38383    527.64373    78.593688    15.934296    29.712327 
   76400    227.96607   -420.92264    229018.04   -21168.597    1509.9013   -22678.498   -1107.3241    529.11813    78.595328    15.935115    29.701704 
   76600     238.6946   -261.61442    229018.04    -21119.61    1580.9602   -22700.571   -524.79759    526.07168    78.594575    15.933501    29.687859 
   76800    245.12813   -208.14087    229018.04   -21012.728    1623.5718   -22636.299   -318.01373    527.93853    78.597211    15.931563    29.688956 
   77000    237.62009   -248.38408    229018.04   -21121.129    1573.8434   -22694.973   -476.04104     530.9206    78.595353    15.931769    29.679853 
   77200    233.64284   -356.67578    229018.04   -21104.691    1547.5006   -22652.191   -886.20067    534.77122    78.592788    15.932215    29.679187 
   77400    234.25239    -276.1905    229018.04   -21128.566    1551.5379   -22680.104   -576.17345    535.24671    78.591888    15.931941    29.665288 
   77600    235.96872   -274.79505    229018.04   -21119.592    1562.9057   -22682.498   -589.98329    535.63118    78.594023    15.933167    29.648131 
   77800    238.24039   -274.00212    229018.04   -21159.399    1577.9519   -22737.351   -602.32379     538.0445    78.594591    15.935168    29.657801 
   78000    237.97068   -175.80744    229018.04   -21196.832    1576.1655   -22772.998   -188.11074    538.41588     78.59397    15.937343    29.673604 
   78200    240.73835   -228.07666    229018.04   -21108.378    1594.4967   -22702.875   -417.70634    538.03914    78.592671    15.937845     29.65416 
   78400    241.11451   -244.48402    229018.04   -21113.353    1596.9882   -22710.341   -514.61821    537.34788    78.593152    15.939342    29.647845 
   78600    238.99513   -247.39032    229018.04   -21177.859    1582.9508    -22760.81   -491.31497    537.50313    78.595854    15.937054    29.642855 
   78800    238.93542   -288.08622    229018.04   -21126.005    1582.5553    -22708.56   -632.93087    539.97438    78.597099    15.936544    29.624604 
   79000    246.42123   -323.25479    229018.04    -21100.92    1632.1365   -22733.056   -795.79835    539.65299    78.597314    15.936246    29.600926 
   79200    238.73893   -293.32678    229018.04   -21096.065    1581.2539   -22677.319   -646.76418    542.33681    78.597649     15.93369    29.593088 
   79400     238.1703   -356.29446    229018.04   -21151.941    1577.4876   -22729.428   -918.65367    544.59755    78.598934    15.932465    29.582401 
   79600    239.06432   -453.92097    229018.04   -21135.216     1583.409   -22718.625   -1279.5965    548.28417    78.600096    15.931246    29.578397 
   79800    238.37724    -264.2548    229018.04   -21105.246    1578.8583   -22684.104   -582.72386    552.50727    78.600555    15.932652    29.559349 
   80000    239.54203   -357.24185    229018.04   -21146.752    1586.5731   -22733.325   -891.91562    552.94992    78.601423    15.933187    29.547118 
   80200    237.67563   -156.22886    229018.04   -21147.708    1574.2113   -22721.919   -147.93904    551.73222    78.602996    15.933338    29.539686 
   80400    237.10915   -399.60924    229018.04   -21214.963    1570.4592   -22785.422   -1077.3824    555.84897    78.603152    15.934743    29.531893 
   80600    240.32458   -405.79902    229018.04   -21022.333    1591.7562    -22614.09   -1069.0054    557.79699    78.604723    15.932641    29.525728 
   80800    243.90693   -246.13398    229018.04   -21121.334    1615.4834   -22736.817   -448.63491    558.64222    78.603929    15.930642    29.511017 
   81000     243.4149   -235.98146    229018.04   -21042.615    1612.2245   -22654.839   -440.49661    560.27547    78.603474    15.930677    29.512689 
   81200    240.19914   -402.43833    229018.04   -21049.412    1590.9254   -22640.338   -1079.7813    561.73615    78.601752    15.930395    29.510062 
   81400      235.649   -136.79336    229018.04   -21111.102    1560.7881    -22671.89   -65.332488    561.52133    78.599679    15.932208    29.479083 
   81600    246.52109   -202.46396    229018.04   -21025.636    1632.7979   -22658.434   -264.33676    560.74334    78.600309    15.932009    29.458904 
   81800    246.33808   -328.09261    229018.04   -21030.028    1631.5858   -22661.613   -781.06276    554.20008    78.600326    15.930853    29.454452 
   82000    248.85524   -260.39884    229018.04   -20982.851    1648.2578   -22631.109   -565.85537    554.05982    78.600948    15.930851    29.453242 
   82200    240.75534   -423.92073    229018.04   -21121.397    1594.6093   -22716.007   -1187.8388    555.98042     78.60004    15.929924    29.465454 
   82400     239.4701   -283.17114    229018.04   -21140.864    1586.0966    -22726.96   -627.66602    556.21341    78.598052    15.927532    29.461389 
   82600    246.12826   -305.11376    229018.04   -21108.093    1630.1961   -22738.289   -649.91937    558.07095    78.596853    15.927674    29.470029 
   82800    245.55657   -251.23922    229018.04    -21069.21    1626.4095   -22695.619   -515.14302    560.31986    78.596618    15.928706    29.485676 
   83000    239.26734   -171.55877    229018.04   -21125.028    1584.7537   -22709.782   -169.04914    559.18857    78.595664    15.932169    29.485682 
   83200    230.97161   -293.09298    229018.04   -21147.462    1529.8081    -22677.27   -633.41283    559.74536    78.594903    15.932141    29.504667 
   83400    238.67653   -303.32645    229018.04   -21156.034    1580.8406   -22736.874   -682.23838    558.99595    78.595121     15.93135    29.518449 
   83600    233.28804   -328.50364    229018.04   -21113.719    1545.1507    -22658.87   -845.45852    558.67293    78.595217    15.930682    29.526239 
   83800    238.94583    -249.4037    229018.04   -21160.987    1582.6242   -22743.611   -482.80262    560.18211    78.595697    15.928632    29.523857 
   84000    237.15997   -429.56867    229018.04   -21161.694    1570.7958    -22732.49    -1162.777    562.19378    78.596677     15.92644    29.538156 
   84200    234.08032   -264.86273    229018.04   -21204.782    1550.3982    -22755.18   -570.30215    559.30584    78.596208    15.925003    29.535623 
   84400    239.09055   -229.87135    229018.04   -21148.603    1583.5827   -22732.186   -400.77235    560.00774     78.59606    15.926061    29.555031 
   84600    242.38067   -341.95466    229018.04   -21146.474    1605.3744   -22751.848   -846.55133    560.90465    78.594574    15.927062    29.543548 
   84800    231.44663   -132.69098    229018.04   -21194.861    1532.9543   -22727.815   -11.577476     562.9493    78.595717    15.925936    29.533305 
   85000    241.16111   -289.79302    229018.04   -21144.155    1597.2968   -22741.452   -633.15469    561.74196    78.596578    15.927833    29.534035 
   85200    244.99896   -305.74691    229018.04     -21083.9    1622.7163   -22706.616   -705.07173    561.53923    78.598622    15.928862    29.538793 
   85400    236.45722   -291.66249    229018.04   -21124.309    1566.1413    -22690.45   -662.98447     561.8001    78.599262    15.930311    29.544828 
   85600    239.94477   -289.26473    229018.04   -21081.759    1589.2406   -22670.999   -614.86284    563.88175    78.599226    15.930422     29.56819 
   85800    243.68323   -335.19433    229018.04   -21089.382    1614.0017   -22703.384   -843.28902    565.12625    78.599081    15.930117    29.563662 
   86000    244.68108   -200.97257    229018.04   -21035.872    1620.6109   -22656.483   -289.90116    563.81729    78.601444    15.930943    29.556535 
   86200    235.62431   -425.30906    229018.04   -21057.928    1560.6246   -22618.553   -1187.8336     566.4587    78.600714    15.931715    29.538539 
   86400    237.43759   -367.08571    229018.04   -21036.716    1572.6346   -22609.351   -949.64061    571.15229    78.601209     15.93293    29.517467 
   86600    249.30716   -271.26743    229018.04    -21033.76     1651.251   -22685.011   -541.70458    571.31747    78.602086    15.934544    29.520007 
   86800    235.37159   -425.43888    229018.04   -21104.848    1558.9507   -22663.798   -1144.6274    573.58496    78.600436    15.935452    29.520133 
   87000    234.32475   -218.97699    229018.04   -21086.903    1552.0172    -22638.92   -312.21819    574.91083    78.600321    15.935713    29.532832 
   87200    239.79528   -382.01657    229018.04   -21030.116    1588.2504   -22618.366   -1046.5507    576.13109    78.600164    15.933555    29.508919 
   87400    252.53136     -286.287    229018.04   -21068.047    1672.6061   -22740.653   -628.54899     577.0451    78.599724    15.931565    29.495253 
   87600    247.07256   -195.57607    229018.04   -21037.206    1636.4505   -22673.657   -301.73739    577.02807    78.597936    15.928592    29.500941 
   87800    232.70148   -337.65577    229018.04   -21208.111    1541.2657   -22749.376    -840.3548    575.84582    78.596834    15.927536    29.474583 
   88000    244.81951     -307.165    229018.04   -21039.251    1621.5277   -22660.779   -738.55686    572.25586     78.59726    15.929744    29.456957 
   88200    245.09619   -230.29362    229018.04   -21002.116    1623.3603   -22625.477   -433.06317     570.0405    78.597014    15.930486    29.450666 
   88400    242.55639   -307.84908    229018.04   -21027.837    1606.5383   -22634.375   -719.96368    573.71259    78.596238    15.931192    29.460745 
   88600    231.36917   -401.03085    229018.04   -21120.695    1532.4413   -22653.137   -1036.4865    575.72441    78.597923    15.930011    29.475405 
   88800    240.80051   -282.48644    229018.04   -21161.695    1594.9085   -22756.603   -613.26661     576.4549     78.59837    15.930954     29.46252 
   89000     234.3137   -306.52783    229018.04   -21194.488     1551.944   -22746.432    -737.5438    577.51989    78.599599    15.931138    29.460943 
   89200    239.65056   -211.54347    229018.04   -21118.384    1587.2919   -22705.676   -345.71715     579.0935    78.599255     15.93165     29.48886 
   89400    245.49224   -191.22952    229018.04   -21071.614    1625.9835   -22697.598   -275.81355    583.35404    78.599031    15.934797    29.500818 
   89600    239.69181   -245.30468    229018.04   -21189.065    1587.5651    -22776.63   -477.15042    585.79907    78.596896    15.935981    29.500834 
   89800    242.30927   -410.61648    229018.04    -21102.32    1604.9015   -22707.221   -1143.6072    585.57518    78.597412    15.934832    29.508607 
   90000    236.21758   -364.82593    229018.04   -21046.213     1564.554   -22610.767   -967.03802    586.88753    78.599383    15.934875    29.497188 
   90200    238.27501   -231.52444    229018.04    -21093.95    1578.1812   -22672.131   -412.92996    588.54499    78.598755    15.933849    29.505149 
   90400    236.16046   -166.66766    229018.04   -21123.317    1564.1757   -22687.493    -242.4953    587.41668    78.599127    15.930661    29.491651 
   90600    237.80824   -258.43505    229018.04   -21137.697    1575.0896   -22712.787    -489.5688    586.18849    78.597189    15.930291    29.490461 
   90800    247.13891   -405.29979    229018.04    -21039.19      1636.89    -22676.08   -1077.1052    586.48879    78.598067    15.929779    29.469157 
   91000    236.15876   -429.87586    229018.04   -21124.863    1564.1645   -22689.027   -1224.1719    587.23194    78.598495    15.928585    29.478377 
   91200    236.21937    -295.1183    229018.04    -21134.01    1564.5659   -22698.576   -668.74684    586.32609    78.599352    15.925046    29.476467 
   91400     238.8455   -157.46719    229018.04   -21125.368    1581.9597   -22707.327   -138.25185    584.91631    78.599915    15.923268    29.481577 
   91600    240.92511   -225.83557    229018.04   -21115.338    1595.7337   -22711.072   -372.92144    585.93096    78.599582    15.924625    29.474997 
   91800    241.51611   -205.48454    229018.04   -21074.817    1599.6482   -22674.465   -289.18605     588.8339    78.599157     15.92547    29.487821 
   92000    238.30661   -293.51488    229018.04   -21132.793    1578.3905   -22711.184   -656.72255    589.92938    78.598912    15.924745    29.519953 
   92200    235.75572   -232.75823    229018.04   -21146.028     1561.495   -22707.523   -455.02266    589.32176    78.599492    15.927823    29.510737 
   92400    243.33712   -261.13476    229018.04   -21139.816    1611.7093   -22751.525    -508.9611    593.23592    78.602206    15.929097    29.485557 
   92600    243.22489   -406.83494    229018.04   -21164.502     1610.966   -22775.468   -1087.0552    594.05288    78.605168    15.930385    29.489324 
   92800    247.70574   -409.43176    229018.04   -21267.068    1640.6443   -22907.713    -1114.111    595.45925    78.606141    15.932217    29.505983 
   93000    233.98137   -176.27835    229018.04   -21310.746    1549.7428   -22860.489   -223.02428    595.37225    78.604663    15.933604    29.529522 
   93200    240.98531   -310.38395    229018.04   -21234.159    1596.1324   -22830.291   -688.80624    598.13117    78.605491    15.934269    29.520085 
   93400     236.1163   -175.19489    229018.04   -21294.181    1563.8833   -22858.065   -207.85713    597.79117    78.603995    15.933696    29.516965 
   93600    237.59678    -273.2972    229018.04    -21230.05     1573.689   -22803.739   -552.38212      599.209    78.604647    15.932017    29.526709 
   93800    239.35298   -298.00809    229018.04   -21119.031    1585.3209   -22704.352   -641.71205    601.72952    78.606573    15.930487    29.565429 
   94000    241.07183    -132.4619    229018.04   -21132.133    1596.7055   -22728.838    -44.72061    600.78823    78.607386    15.929727    29.596204 
   94200    240.76341   -100.62196    229018.04   -21165.972    1594.6627   -22760.634    93.913152    601.16923    78.607547    15.927595    29.597722 
   94400    245.52243   -171.23857    229018.04   -21044.164    1626.1834   -22670.348   -179.35294    602.98349    78.605917    15.925147    29.589809 
   94600    238.99956   -330.30789    229018.04    -21105.15    1582.9801    -22688.13   -784.53125    604.94508    78.605568    15.924261    29.588979 
   94800    248.27138   -242.54044    229018.04   -21007.872    1644.3907   -22652.262   -493.04286    604.21214     78.60765    15.925032    29.594113 
   95000    237.88116    -249.2751    229018.04   -21016.266    1575.5725   -22591.839   -488.86427    604.37936    78.609595     15.92388    29.609656 
   95200    236.74955   -474.15032    229018.04   -21113.817    1568.0775   -22681.894   -1394.8339    606.17827     78.60946    15.924634    29.625037 
   95400    233.00039   -350.34862    229018.04   -21137.967    1543.2454   -22681.212   -854.46554    608.67573    78.608752    15.923088    29.632119 
   95600    232.48592   -273.05836    229018.04    -21149.36    1539.8379   -22689.198   -583.44169     609.2738    78.609219     15.92325    29.642645 
   95800    235.64118   -127.16163    229018.04    -21095.63    1560.7363   -22656.366   -13.789636    610.99947    78.607882    15.923441    29.641915 
   96000    239.97931   -191.35624    229018.04   -21119.738    1589.4694   -22709.207    -250.7793     612.0258    78.607409    15.923876    29.651208 
   96200    238.74968   -368.65317    229018.04   -21145.839    1581.3251   -22727.164   -910.22641    612.33678    78.607353    15.922437    29.696166 
   96400    236.76419   -231.46533    229018.04   -21075.093    1568.1745   -22643.267   -394.59935    613.00957    78.607535    15.919771    29.696738 
   96600    234.65829   -441.60015    229018.04   -21144.832    1554.2263   -22699.058   -1256.4985    617.08654    78.607028     15.92126    29.685384 
   96800    240.95314   -51.481482    229018.04   -21143.362    1595.9194   -22739.281    307.47034    616.88826    78.606366     15.92116    29.698725 
   97000    236.02379   -382.01345    229018.04    -21143.83    1563.2705     -22707.1   -1008.1399     620.5975     78.60897    15.920947    29.695348 
   97200    237.92111   -329.18303    229018.04   -21116.369    1575.8371   -22692.206   -770.14089    617.92987    78.610363    15.921983    29.680608 
   97400    243.15415   -246.22971    229018.04   -21103.029    1610.4974   -22713.527   -464.27025    618.07004    78.609361    15.922994    29.685756 
   97600    240.55439   -223.56454    229018.04   -21099.247    1593.2783   -22692.525   -356.46865     619.6969    78.607731    15.925566    29.708256 
   97800    235.56581   -316.90544    229018.04   -21159.861    1560.2372   -22720.098   -739.04361    621.33912    78.607599    15.926003    29.703905 
   98000    229.11547    -349.6293    229018.04   -21229.005    1517.5142   -22746.519    -887.8916    620.85946    78.605348    15.926741    29.689517 
   98200    232.90748    -355.4788    229018.04   -21216.282    1542.6301   -22758.912   -904.56175     622.2322    78.603389    15.924841    29.689062 
   98400    240.66039   -309.14415    229018.04   -21143.932    1593.9804   -22737.912   -709.41765    621.47039    78.605354    15.926795    29.708817 
   98600    239.75139   -449.07832    229018.04   -21116.557    1587.9598   -22704.516    -1295.185    621.21602    78.604736     15.92594    29.683868 
   98800     242.4909   -335.21153    229018.04   -20986.279    1606.1045   -22592.383   -790.26901    623.45669    78.604789    15.926151     29.69597 
   99000     238.7208   -274.32903    229018.04   -20961.294    1581.1338   -22542.428    -554.3446     621.9851    78.607085    15.925011    29.684371 
   99200    246.79674   -219.92474    229018.04   -20999.316    1634.6236   -22633.939   -394.81808    622.52859    78.606427    15.926617    29.686155 
   99400    241.81087   -399.30545    229018.04   -21117.038    1601.6004   -22718.638   -1068.4184    624.25177    78.605331    15.926015    29.678059 
   99600    240.86587   -355.49819    229018.04   -21080.485    1595.3413   -22675.827   -918.81102    625.88888     78.60499    15.922809    29.657794 
   99800    246.77639   -273.69131    229018.04   -21068.062    1634.4889   -22702.551   -584.74506    628.86017    78.603723    15.922159    29.668173 
  100000    244.37571    -313.2139    229018.04    -21130.77    1618.5883   -22749.358   -736.10314    630.61703    78.601146    15.923958    29.675188 
  100200    241.83353   -227.47967    229018.04   -21072.558    1601.7505   -22674.309   -386.42204    632.54932    78.600904    15.922099    29.683111 
  100400    239.64172    -253.6992    229018.04   -21088.496    1587.2334   -22675.729   -513.54908    634.97804    78.600107    15.922869    29.666032 
  100600    238.25247   -354.32531    229018.04   -21140.945    1578.0319   -22718.976   -880.32858    635.42565    78.599889    15.923924    29.657413 
  100800    242.37856   -178.94346    229018.04   -21079.365    1605.3605   -22684.726    -197.4712    637.01006    78.599693    15.920763    29.648459 
[...]
 5175800     229.0973   -326.13695    229018.04   -23295.444    1517.3939   -24812.837    -784.1599    7119.6311    78.258562    16.281796    29.295315 
 5176000    219.44962   -395.32397    229018.04   -23420.555    1453.4938   -24874.048   -1056.1644    7119.1818    78.258178    16.279765    29.305709 
 5176200    221.50058   -419.17315    229018.04   -23410.393    1467.0781   -24877.471   -1138.0776    7120.4439    78.256972    16.277392    29.302777 
 5176400       226.81   -310.57529    229018.04   -23373.765    1502.2443   -24876.009   -712.02468    7117.5202    78.256897    16.277455    29.301757 
 5176600    228.12842   -392.42481    229018.04   -23335.722    1510.9767   -24846.698   -1034.6562    7120.1311    78.256864    16.277215    29.313435 
 5176800      222.722   -417.44188    229018.04   -23401.607     1475.168   -24876.775   -1152.9794    7120.3505    78.256452    16.276385    29.314766 
 5177000    234.82612   -291.45482    229018.04   -23305.546    1555.3379   -24860.884   -641.20001    7117.3019    78.258815    16.275209     29.31745 
 5177200    230.56141   -396.17402    229018.04   -23298.934    1527.0912   -24826.025   -1071.3652    7119.9035    78.259126     16.27482    29.330768 
 5177400    227.68748   -462.85874    229018.04   -23338.461    1508.0561   -24846.517    -1308.104    7121.9882    78.257951    16.273855    29.306101 
 5177600    220.85528   -324.10786    229018.04   -23321.989     1462.804   -24784.793   -760.58309    7115.8476    78.255612    16.272588    29.309261 
 5177800    226.68223   -382.60145    229018.04   -23282.137     1501.398   -24783.535   -991.65445    7119.1339    78.253666    16.269551    29.309247 
 5178000    227.84659    -405.5671    229018.04   -23376.167      1509.11   -24885.277    -1096.496    7122.7565    78.253193    16.268704    29.304889 
 5178200    219.63086   -286.98869    229018.04   -23374.583    1454.6942   -24829.277   -624.09213    7119.4826    78.253758    16.268686     29.30912 
 5178400    227.90545    -394.9509    229018.04   -23276.891    1509.4998   -24786.391   -1079.9226    7120.2214    78.254008     16.26622    29.311346 
 5178600    227.11204    -404.2994    229018.04     -23338.1    1504.2448   -24842.345   -1063.4464    7120.1941    78.254704    16.264312    29.312301 
 5178800    228.49285   -313.25518    229018.04   -23308.594    1513.3904   -24821.984   -733.88367    7118.6933    78.255981     16.26317    29.314257 
 5179000    228.48167   -415.88069    229018.04   -23264.678    1513.3163   -24777.994   -1143.4607    7120.9607    78.258165    16.264128    29.306734 
 5179200     232.8546   -590.50991    229018.04   -23334.801    1542.2798   -24877.081   -1806.9296    7123.4225    78.257888    16.264066    29.287061 
 5179400    225.10398   -331.52538    229018.04   -23364.223    1490.9447   -24855.167   -786.61381    7118.9795    78.258746    16.262439    29.283402 
 5179600    230.49363    -395.1143    229018.04   -23327.314    1526.6423   -24853.957    -1054.669     7121.327    78.258902    16.261658    29.278523 
 5179800    224.12102   -431.95293    229018.04   -23319.499    1484.4342   -24803.933   -1234.9103    7120.6398     78.25937    16.261409    29.294634 
 5180000    223.28807   -303.46718    229018.04   -23348.041    1478.9173   -24826.958   -733.03824    7119.9042    78.260884    16.261017    29.295789 
 5180200    223.55541   -492.94338    229018.04   -23359.031    1480.6879   -24839.719   -1406.0611    7120.6829    78.260137    16.258619    29.297419 
 5180400    228.25523    -347.5753    229018.04   -23342.294    1511.8165   -24854.111   -881.25844    7120.8073    78.260155    16.258775    29.293298 
 5180600    221.20316    -309.4416    229018.04   -23356.202    1465.1081    -24821.31   -730.14741    7118.1489    78.260217    16.257781    29.297424 
 5180800    224.59226   -437.72757    229018.04   -23369.903    1487.5553   -24857.459   -1237.5959    7120.9443    78.261965    16.256508    29.306152 
 5181000    227.72586   -396.01026    229018.04   -23334.158    1508.3103   -24842.468   -1078.0802    7121.1167    78.261652     16.25775    29.295597 
 5181200    222.66936     -287.588    229018.04   -23304.893    1474.8193   -24779.712   -651.07315    7118.1862    78.261249    16.256792    29.312642 
 5181400    225.85347   -455.97077    229018.04   -23301.247    1495.9088   -24797.156   -1301.9304    7120.6517    78.259605    16.255697    29.303945 
 5181600    238.11866   -462.32664    229018.04   -23312.297    1577.1456   -24889.443   -1311.8068    7120.9683     78.26042    16.255476    29.293916 
 5181800    222.34258   -311.80748    229018.04   -23399.797    1472.6549   -24872.452   -773.12377    7116.9142    78.260851    16.254324    29.301486 
 5182000    220.30192   -476.86578    229018.04   -23391.127    1459.1389   -24850.265   -1351.7747    7119.9541    78.260124     16.25255    29.297627 
 5182200     232.4757   -507.08879    229018.04   -23321.362    1539.7702   -24861.132    -1528.968    7120.9838    78.257401    16.249778     29.29234 
 5182400    231.74907   -207.44612    229018.04   -23327.952    1534.9575    -24862.91   -312.59993    7117.6288    78.256904    16.248389    29.283162 
 5182600     234.2641   -440.90291    229018.04   -23300.015    1551.6155   -24851.631   -1240.1156    7120.4387    78.257482    16.245571    29.290818 
 5182800    224.01266   -458.24195    229018.04   -23302.244    1483.7165   -24785.961   -1285.1344     7123.027    78.255758    16.242144    29.302156 
 5183000     229.6935   -201.51585    229018.04   -23300.879    1521.3427   -24822.221   -304.33645    7115.0124    78.254591    16.240511    29.289891 
 5183200    223.92416   -466.69786    229018.04    -23315.04    1483.1303   -24798.171   -1350.2638    7120.5577    78.255015    16.237234    29.305635 
 5183400    222.17614   -369.32516    229018.04   -23340.075    1471.5525   -24811.628     -897.946    7120.8612    78.257998    16.235729    29.311454 
 5183600    223.71106   -308.28201    229018.04   -23325.153    1481.7189   -24806.872   -701.17986    7116.2055    78.256218    16.234227    29.315412 
 5183800    226.29936   -516.64024    229018.04   -23387.551    1498.8621   -24886.413   -1532.2329     7121.112    78.255106    16.233517    29.318022 
 5184000    230.37056   -474.17821    229018.04   -23353.004    1525.8271   -24878.831   -1358.0182    7122.3725    78.255013    16.233378    29.310345 
 5184200    225.52998   -288.94297    229018.04   -23354.073    1493.7662    -24847.84   -656.42679    7117.1012     78.25568    16.230533    29.302362 
 5184400    222.01067   -447.22881    229018.04   -23329.681    1470.4566   -24800.137   -1277.3588    7120.6897    78.254288    16.228898     29.30384 
 5184600    225.09608   -365.24673    229018.04   -23345.099    1490.8924   -24835.991   -917.22653    7119.8568    78.253175    16.225605    29.300743 
 5184800    224.49092   -299.70422    229018.04   -23322.818    1486.8842   -24809.702   -722.92563    7118.8913    78.255496    16.223842     29.29743 
 5185000    223.45096   -478.96154    229018.04   -23316.313    1479.9961   -24796.309   -1348.2851    7121.5748    78.255658    16.221965    29.282788 
 5185200    226.67327     -386.449    229018.04   -23348.624    1501.3386   -24849.963   -1066.8499    7120.5415    78.255445    16.222987    29.297981 
 5185400    228.10049   -294.15975    229018.04   -23367.697    1510.7916   -24878.488    -665.8526    7120.1153    78.254456    16.223477    29.321654 
 5185600    223.82825   -474.72363    229018.04   -23335.159    1482.4951   -24817.654   -1352.6841    7120.1731    78.255108    16.224415    29.311977 
 5185800     238.5585   -334.42042    229018.04   -23248.272    1580.0588   -24828.331   -818.20279    7121.2502    78.253254    16.224074     29.30184 
 5186000    228.81542   -315.40449    229018.04   -23290.684    1515.5269   -24806.211   -780.62801    7120.6138     78.25147    16.225016    29.303246 
 5186200    226.61619   -405.76095    229018.04   -23355.329    1500.9606    -24856.29   -1069.5924    7120.7505     78.24977    16.225489    29.300916 
 5186400    224.14213   -418.90724    229018.04   -23381.665     1484.574   -24866.239   -1177.0503    7121.3018    78.245757    16.224791    29.303422 
 5186600    223.50418   -245.29868    229018.04   -23302.701    1480.3486   -24783.049   -481.14838    7118.6927    78.243943    16.223556    29.294559 
 5186800    225.07887   -455.08763    229018.04   -23315.159    1490.7784   -24805.938    -1298.648    7123.0934    78.241942    16.225939    29.300127 
 5187000    229.28399   -406.49545    229018.04   -23321.637    1518.6304   -24840.268   -1108.2729    7119.2557    78.242585    16.224751    29.305318 
 5187200    226.45575   -284.87223    229018.04   -23336.293    1499.8979   -24836.191   -634.16766    7118.8968    78.241945    16.224449    29.295006 
 5187400    227.02086   -465.19611    229018.04   -23318.401    1503.6409   -24822.042   -1324.2554    7122.8201    78.241779     16.22443    29.297654 
 5187600    229.71924   -394.44408    229018.04   -23339.004    1521.5132   -24860.517   -1065.2333    7119.0549    78.240687    16.222207    29.295734 
 5187800    228.23107   -315.56874    229018.04   -23334.534    1511.6565    -24846.19    -758.9434    7120.4832    78.239965    16.221592     29.30161 
 5188000    228.49851   -515.16731    229018.04   -23335.046    1513.4279   -24848.474   -1522.9225    7121.9613    78.239309    16.221688    29.298651 
 5188200    228.18952   -347.35836    229018.04   -23314.844    1511.3814   -24826.226   -880.16818    7120.1176    78.236982    16.221742    29.314974 
 5188400    227.00031   -333.17269    229018.04   -23367.032    1503.5048   -24870.537   -793.81907    7119.8665    78.235831    16.221119    29.311782 
 5188600    230.33185   -501.16332    229018.04   -23291.786    1525.5708   -24817.356   -1487.2771    7121.5192      78.2364    16.221738    29.316105 
 5188800    229.20703   -416.80047    229018.04   -23327.788    1518.1207   -24845.909   -1156.7616    7118.9642    78.236936     16.22179    29.315776 
 5189000    228.82813   -441.26109    229018.04   -23317.658    1515.6111   -24833.269   -1238.4384     7121.033    78.235051    16.221143    29.312211 
 5189200     226.7263   -423.30335    229018.04   -23332.398    1501.6899   -24834.088   -1162.1103    7120.9415    78.232858    16.222897    29.327858 
 5189400    225.66015    -296.6404    229018.04   -23319.647    1494.6284   -24814.275   -637.58394    7118.5872    78.229929    16.221983    29.318895 
 5189600    227.86494    -385.4647    229018.04   -23311.164    1509.2315   -24820.395   -1029.6632     7119.764     78.22493    16.221501    29.325426 
 5189800    229.14529   -421.94733    229018.04   -23344.857    1517.7118   -24862.569   -1203.2802    7120.1919     78.22325    16.222508    29.324375 
 5190000    226.46481   -395.30288    229018.04   -23326.309    1499.9579   -24826.267   -1048.0559    7118.2214    78.220614    16.221851    29.332049 
 5190200    230.06434   -517.64237    229018.04   -23316.004    1523.7989   -24839.803   -1556.7261    7121.5815    78.216779    16.221116     29.33115 
 5190400     221.7519   -367.20813    229018.04   -23339.159    1468.7427   -24807.901   -943.75189      7120.48     78.21817    16.220913    29.319994 
 5190600    229.09795   -423.89723    229018.04   -23324.792    1517.3982    -24842.19   -1190.9858    7117.9198    78.217739    16.221222    29.323142 
 5190800    227.56412   -465.25333    229018.04   -23341.035     1507.239   -24848.274   -1364.0053    7118.9759    78.216684    16.221763    29.319294 
 5191000    218.32193    -394.1958    229018.04   -23435.953    1446.0247   -24881.978   -1027.0813    7120.3353    78.215429    16.220987    29.314406 
 5191200     228.2628    -431.6966    229018.04   -23369.758    1511.8667   -24881.625   -1211.8771     7119.086    78.214698    16.220576    29.312176 
 5191400    233.33624   -358.71345    229018.04   -23335.185    1545.4699   -24880.654   -897.18356    7119.1788    78.212801    16.220198     29.31228 
 5191600    224.83005   -404.54763    229018.04   -23364.245    1489.1303   -24853.375   -1121.9712    7120.9494    78.211041    16.218955    29.324142 
 5191800    225.81577   -362.85831    229018.04   -23316.309    1495.6591   -24811.968   -920.73599    7118.7968    78.208439     16.21875    29.330455 
 5192000    227.28642   -412.47457    229018.04   -23314.964    1505.3997   -24820.364   -1094.7055    7120.9763    78.206493    16.218627    29.312062 
 5192200    227.86386   -343.45119    229018.04   -23341.009    1509.2244   -24850.233    -839.0554    7118.3737    78.204639    16.218914    29.315396 
 5192400    221.55687    -425.3947    229018.04   -23383.842    1467.4509   -24851.293   -1173.6881    7120.0705    78.202556    16.218556     29.32922 
 5192600    225.15334   -445.09875    229018.04   -23395.882    1491.2716   -24887.153   -1256.4684    7120.1877    78.199366    16.217454     29.32914 
 5192800    227.45903   -302.79105    229018.04   -23316.816     1506.543   -24823.359   -661.21562    7119.3205    78.197721    16.216758     29.32179 
 5193000    227.54857   -429.66446    229018.04   -23357.721    1507.1361   -24864.857   -1212.6787    7120.8001    78.196142    16.218051     29.33423 
 5193200    224.31303   -394.26859    229018.04   -23358.557    1485.7059   -24844.263   -1061.6349     7118.707    78.194363    16.217133    29.329965 
 5193400    229.36481    -353.0304    229018.04   -23312.017    1519.1657   -24831.183   -876.40882    7121.4587    78.193675    16.217267    29.321359 
 5193600     223.0282    -402.3775    229018.04   -23357.666    1477.1961   -24834.862   -1102.0816     7120.255    78.193234    16.216861    29.322184 
 5193800    222.00846   -415.50099    229018.04   -23370.518     1470.442    -24840.96    -1178.612    7118.7848    78.191187    16.216195    29.309799 
 5194000    223.14455   -292.05409    229018.04   -23357.236    1477.9666   -24835.203   -647.70122    7118.2618    78.188258    16.214542    29.317546 
 5194200     227.1987   -454.74441    229018.04   -23342.578    1504.8188   -24847.397   -1292.9151    7123.0784    78.185885    16.213511    29.323596 
 5194400    224.37721   -326.90336    229018.04   -23335.758     1486.131   -24821.889   -788.67093    7117.9822    78.183598    16.214102    29.318869 
 5194600    221.83254   -352.21381    229018.04    -23372.76    1469.2768   -24842.037   -888.72668    7120.6098     78.17971    16.214687    29.329096 
 5194800    223.12491    -383.9627    229018.04   -23393.191    1477.8366   -24871.028   -1023.2385      7121.52    78.178145     16.21436    29.342619 
 5195000    226.58299   -391.00335    229018.04   -23302.659    1500.7407     -24803.4   -1038.9404    7118.5805    78.177137    16.215332     29.32292 
 5195200    223.51623   -425.65488    229018.04   -23355.263    1480.4285   -24835.692   -1185.2714    7121.2493    78.176267    16.215902    29.329343 
 5195400    231.30413    -382.2663    229018.04   -23283.838    1532.0105   -24815.849   -1013.4478    7122.7794     78.17563    16.217078    29.319941 
 5195600     225.9978   -353.67933    229018.04    -23328.18    1496.8648   -24825.045   -901.17846    7120.0584     78.17471    16.218608    29.312461 
 5195800    232.06832   -400.63741    229018.04    -23283.57     1537.072   -24820.642   -1044.1981     7120.223    78.172936     16.21882    29.316719 
 5196000    228.54858   -312.18505    229018.04    -23286.89    1513.7595    -24800.65   -738.57316    7119.5651    78.170168    16.217695    29.320167 
 5196200    233.44615    -435.9464    229018.04   -23249.721    1546.1979   -24795.919   -1253.5562    7124.3453    78.168058     16.21979    29.324191 
 5196400    227.22024   -307.08498    229018.04    -23300.56    1504.9614   -24805.521   -685.21765    7120.7925    78.164515    16.221818    29.335748 
 5196600    223.85951   -379.92956    229018.04   -23409.872    1482.7021   -24892.574   -1048.5886    7121.0818    78.162983     16.22197    29.328804 
 5196800    232.11884   -482.40308    229018.04   -23307.832    1537.4066   -24845.238   -1394.0492    7122.2793    78.161072    16.223682    29.314663 
 5197000    224.12313    -401.0652    229018.04   -23354.303    1484.4482   -24838.752   -1081.5698    7117.8072    78.159521    16.223627    29.341713 
 5197200    233.61959   -320.34074    229018.04   -23260.448    1547.3466   -24807.794   -753.27796    7118.8722     78.15768    16.223616    29.329904 
 5197400    228.73624   -444.90937    229018.04   -23354.531    1515.0025   -24869.533   -1252.6331    7126.1623    78.158917    16.224361    29.334864 
 5197600    227.95807   -319.06652    229018.04   -23349.085    1509.8484   -24858.934   -739.58129    7118.5788    78.157566    16.224303    29.318382 
 5197800    238.26858   -225.84666    229018.04   -23246.437    1578.1386   -24824.576   -411.70928    7118.1125    78.159299    16.224103     29.32057 
 5198000    235.11564   -449.80718    229018.04   -23249.888    1557.2555   -24807.144   -1265.5549    7125.4393    78.158279    16.225877    29.333441 
 5198200     228.7024   -300.31092    229018.04   -23305.821    1514.7783   -24820.599     -678.992    7117.0637     78.15776    16.227013    29.330878 
 5198400    232.72641   -315.99037    229018.04   -23327.545    1541.4308   -24868.976   -791.59768     7117.795    78.156159    16.227009    29.315847 
 5198600     219.7941   -474.10621    229018.04   -23379.715    1455.7754    -24835.49    -1389.452    7125.2328    78.155309    16.227676    29.319748 
 5198800    222.99942   -323.29413    229018.04    -23379.57    1477.0054   -24856.576   -809.33338    7119.8921    78.156098    16.226787     29.32517 
 5199000    237.91264   -303.43121    229018.04   -23287.356     1575.781   -24863.137   -690.61468    7115.9707    78.153693    16.225986    29.329699 
 5199200    226.60671   -489.63149    229018.04   -23327.604    1500.8978   -24828.502   -1426.9533    7121.7174    78.152385    16.225922     29.31353 
 5199400    224.72973   -342.20024    229018.04     -23358.9    1488.4659   -24847.365   -835.73304    7120.0613    78.154618    16.224369    29.320246 
 5199600    233.02963   -360.83587    229018.04   -23313.803    1543.4391   -24857.242   -930.48471    7117.2277    78.154458    16.224377    29.328817 
 5199800    226.19058   -476.81928    229018.04   -23364.848    1498.1416    -24862.99   -1382.5238    7121.0092    78.151792    16.226061    29.318754 
 5200000    230.07577   -309.54129    229018.04    -23297.48    1523.8746   -24821.354   -746.23462    7122.1709    78.150497    16.225923    29.321822 
Loop time of 7147.61 on 160 procs for 5200000 steps with 8943 atoms

Performance: 628.574 ns/day, 0.038 hours/ns, 727.516 timesteps/s
97.8% CPU use with 160 MPI tasks x no OpenMP threads

MPI task timing breakdown:
Section |  min time  |  avg time  |  max time  |%varavg| %total
---------------------------------------------------------------
Pair    | 0.24658    | 1481       | 5730       |5115.5 | 20.72
Neigh   | 0.34537    | 96.21      | 382.57     |1225.1 |  1.35
Comm    | 11.414     | 1981.9     | 5798.3     |4591.1 | 27.73
Output  | 89.604     | 89.686     | 91.799     |   1.8 |  1.25
Modify  | 215.96     | 3406.4     | 6963.6     |4896.0 | 47.66
Other   |            | 92.4       |            |       |  1.29

Nlocal:    55.8937 ave 177 max 0 min
Histogram: 72 1 47 0 0 0 0 0 4 36
Nghost:    539.7 ave 932 max 0 min
Histogram: 18 6 0 8 8 38 29 15 21 17
Neighs:    0 ave 0 max 0 min
Histogram: 160 0 0 0 0 0 0 0 0 0
FullNghs:  5610.24 ave 22197 max 0 min
Histogram: 91 29 0 0 0 0 0 2 19 19

Total # of neighbors = 897638
Ave neighs/atom = 100.373
Neighbor list builds = 550475
Dangerous builds = 0
write_data 		${DIR}/data.${NAME}_run
write_data 		run_15/data.${NAME}_run
write_data 		run_15/data.ibeam_cooling_15_run
Total wall time: 1:59:22
