
# Set production fixes - Nose/Hoover
#
fix                 4 water temp/csvr ${START_TEMP} ${END_TEMP} 500.0 928347
fix                 4 water temp/csvr 240 ${END_TEMP} 500.0 928347
fix                 4 water temp/csvr 240 227 500.0 928347


## divide "droplet" into core and surface
#region		core_reg cylinder z 135 135 44.6 20 INF units box
#region		surface_reg cylinder z 135 135 44.6 20 INF units box side out
#group		core dynamic all region core_reg
#group		surface dynamic all region surface_reg

## compute pressure core
#compute        peratom_core core stress/atom NULL
#compute        p_core core reduce sum c_peratom_core[1] c_peratom_core[2] c_peratom_core[3]
#variable       press_core equal -(c_p_core[1]+c_p_core[2]+c_p_core[3])/(3*1249982.5)


## compute pressure surface
#compute        peratom_surf surface stress/atom NULL
#compute        p_surf surface reduce sum c_peratom_surf[1] c_peratom_surf[2] #c_peratom_surf[3]
#variable       press_surf equal -(c_p_surf[1]+c_p_surf[2]+c_p_surf[3])/(3*42395)

## compute total pressure of drop
compute        peratom water stress/atom NULL
compute        p water reduce sum c_peratom[1] c_peratom[2] c_peratom[3]
variable       press equal -(c_p[1]+c_p[2]+c_p[3])/(3*50320)


# compute order parameter
compute        3 all orientorder/atom nnn NULL cutoff 3.5

# compute center of mass of bridge
compute 	4 water com

# Run simulation
thermo_style        custom step c_2 press vol etotal ke pe v_press c_1[4] c_4[*]
thermo              200
dump		     1 water custom 400 ${DIR}/prod.${NAME}.dump id type x y z vx vy vz c_3[*] c_peratom[*]
dump		     1 water custom 400 run_6/prod.${NAME}.dump id type x y z vx vy vz c_3[*] c_peratom[*]
dump		     1 water custom 400 run_6/prod.ibeam_cooling_6.dump id type x y z vx vy vz c_3[*] c_peratom[*]
run                 ${STEPS}
run                 5200000
Neighbor list info ...
  update every 1 steps, delay 0 steps, check yes
  max neighbors/atom: 2000, page size: 100000
  master list distance cutoff = 6.67472
  ghost atom cutoff = 6.67472
  binsize = 3.33736, bins = 48 13 11
  2 neighbor lists, perpetual/occasional/extra = 1 1 0
  (1) pair sw, perpetual
      attributes: full, newton on
      pair build: full/bin/atomonly
      stencil: full/bin/3d
      bin: standard
  (2) compute orientorder/atom, occasional, copy from (1)
      attributes: full, newton on
      pair build: copy
      stencil: none
      bin: none
Per MPI rank memory allocation (min/avg/max) = 0.8543 | 5.949 | 7.262 Mbytes
Step c_2 Press Volume TotEng KinEng PotEng v_press c_1[4] c_4[1] c_4[2] c_4[3] 
       0    239.19704   -245.49027    216009.12   -18711.854    1391.0649   -20102.919    -464.5118    34.076149    78.757899    22.617087    25.545726 
     200    233.72974   -401.49037    216009.12   -18749.403    1359.2694   -20108.673   -1157.7439    34.555671    78.755654    22.619111      25.5473 
     400     233.5421   -323.02936    216009.12   -18736.207    1358.1782   -20094.385   -793.93237    35.241785    78.756134    22.617489    25.549476 
     600     242.6619   -313.83666    216009.12   -18581.129    1411.2149   -19992.344    -711.0787    36.066185    78.754852    22.615889    25.566002 
     800    244.63202   -364.99863    216009.12   -18565.572    1422.6723   -19988.245   -977.08592    37.936478    78.755651    22.616611    25.558861 
    1000    232.16267   -289.66208    216009.12   -18643.872     1350.156   -19994.028   -631.12338    38.964024    78.752989    22.614487    25.565603 
    1200    234.81654   -560.72834    216009.12   -18594.207    1365.5898   -19959.797   -1807.0008    40.694363    78.752158    22.613001     25.54194 
    1400    243.36914    -258.1461    216009.12   -18596.052    1415.3279    -20011.38   -525.54676    41.781376    78.750977    22.611608    25.531892 
    1600    237.19869   -349.34855    216009.12   -18631.194    1379.4433   -20010.637   -907.36739    43.059633     78.75165    22.613034     25.54903 
    1800    239.48434    -287.2218    216009.12   -18583.834    1392.7357   -19976.569   -633.76848    45.608079    78.749932    22.613677    25.546033 
    2000    248.10791   -356.26031    216009.12   -18549.846    1442.8865   -19992.732   -967.28339    46.400808     78.74808     22.61245    25.525494 
    2200    242.33489   -323.35518    216009.12    -18607.38    1409.3132   -20016.693   -788.34621    47.604477    78.748007    22.613115    25.516502 
    2400    246.09505   -283.00766    216009.12   -18574.946    1431.1806   -20006.127   -654.76627    49.837337    78.747401    22.614341    25.508207 
    2600    241.23761   -378.43273    216009.12   -18616.403    1402.9319   -20019.335   -1045.7204    52.829073    78.748876     22.61528    25.525333 
    2800    249.59706   -225.09301    216009.12   -18540.975    1451.5468   -19992.522   -378.88874    54.599532    78.747602    22.616695    25.546627 
    3000    240.26147   -280.98163    216009.12   -18562.452    1397.2551   -19959.707   -633.55775    56.404533    78.746749    22.616681    25.542602 
    3200    239.23902   -419.18289    216009.12    -18633.87     1391.309   -20025.179   -1245.3721    57.014916    78.745914    22.618904    25.553497 
    3400    242.13838   -319.59944    216009.12   -18648.302    1408.1704   -20056.473   -823.45147    57.801236    78.743003    22.618428    25.513492 
    3600    237.72653    -335.3087    216009.12   -18648.563     1382.513   -20031.076   -838.74295    59.209838    78.742918    22.616406    25.528754 
    3800    240.31095   -443.29427    216009.12   -18596.068    1397.5428   -19993.611   -1329.2865    60.164094    78.741579     22.61577    25.533137 
    4000    242.96636   -197.04596    216009.12   -18641.498    1412.9855   -20054.484   -240.43206    61.839326    78.742829    22.614475    25.513458 
    4200    236.52596    -282.8591    216009.12   -18572.066     1375.531   -19947.597   -615.26142    62.955563    78.741193    22.613473    25.528916 
    4400    237.83986    -401.5305    216009.12   -18573.567    1383.1721   -19956.739   -1129.9218    63.783766    78.740329    22.612347    25.507731 
    4600    233.95494    -161.8317    216009.12   -18660.743    1360.5791   -20021.322   -84.123939    63.907855    78.738544    22.615234    25.492458 
    4800    247.51806   -309.03712    216009.12   -18547.236    1439.4562   -19986.692   -821.80923    65.939017    78.738092     22.61569    25.483689 
    5000    236.75894   -336.25165    216009.12    -18605.25    1376.8859   -19982.135    -849.3606    66.438985    78.736934    22.615654    25.484563 
    5200    233.91998   -488.41435    216009.12   -18628.777    1360.3758   -19989.153   -1486.9888    67.661735    78.736485    22.616986    25.506628 
    5400    237.39465     -272.101    216009.12   -18656.374    1380.5829   -20036.957   -566.82891    68.485239    78.734271    22.618864    25.528578 
    5600    237.41904   -312.46287    216009.12   -18685.195    1380.7247    -20065.92   -766.01925    69.893729    78.732554    22.622093    25.541896 
    5800    240.72479   -384.01503    216009.12   -18587.328    1399.9496   -19987.278   -1055.8705     71.62213    78.730573    22.623671    25.543967 
    6000    235.29072   -218.26719    216009.12   -18625.828    1368.3474   -19994.176   -347.02216    74.068394    78.730517    22.624955    25.536549 
    6200    241.76761   -314.77472    216009.12   -18633.889    1406.0142   -20039.903   -758.57583    75.515285    78.730508    22.626538    25.540035 
    6400    246.02851   -394.64536    216009.12   -18593.751    1430.7937   -20024.545   -1104.5925    76.568281    78.729292    22.627962    25.546232 
    6600     237.9643   -320.79441    216009.12   -18654.665    1383.8958   -20038.561   -830.80843    77.640928    78.727906    22.629614    25.558103 
    6800    244.12344   -360.98253    216009.12   -18619.942    1419.7146   -20039.656   -972.20904    78.825954    78.728643    22.631404    25.576605 
    7000    238.82727   -359.52991    216009.12   -18595.868    1388.9144   -19984.782   -989.67159    80.235229    78.728657      22.6316    25.620522 
    7200    228.76578   -480.53414    216009.12   -18638.011    1330.4012   -19968.412   -1468.0483    83.007016    78.730067    22.633495    25.637039 
    7400    240.25119   -150.23224    216009.12   -18604.332    1397.1953   -20001.528   -102.37947    83.222553     78.72877    22.632367    25.654047 
    7600    243.98037   -180.12394    216009.12   -18536.931    1418.8826   -19955.814   -171.31342    85.211448    78.726664     22.63362     25.65316 
    7800    231.44773   -307.95474    216009.12   -18644.407    1345.9982   -19990.406   -742.02976    87.226957    78.726475    22.634599    25.639706 
    8000    239.25975   -289.65332    216009.12   -18536.464    1391.4295   -19927.893   -647.80358     87.76172    78.728358    22.635188    25.605088 
    8200    242.82041   -354.04577    216009.12   -18558.107    1412.1368   -19970.244   -941.47303    89.510333    78.726513    22.634899    25.607147 
    8400    237.86163   -424.07734    216009.12   -18513.411    1383.2987    -19896.71   -1260.4713    90.448777    78.728904     22.63077    25.603739 
    8600    243.54539   -416.80716    216009.12   -18587.332    1416.3529   -20003.685   -1142.8838    92.052027    78.729988    22.631224    25.580894 
    8800    240.36576    -163.0666    216009.12   -18588.781    1397.8616   -19986.643   -173.63196    94.739076    78.729329    22.631966    25.596821 
    9000    240.08974   -287.80593    216009.12   -18549.794    1396.2564   -19946.051   -657.49666    94.899218    78.729198    22.631535    25.593343 
    9200    245.67794   -321.06223    216009.12   -18523.121    1428.7549   -19951.876   -748.03294     96.61633    78.729952    22.631167    25.573923 
    9400    240.72521   -263.05703    216009.12   -18573.011     1399.952   -19972.963   -563.98948    97.662975    78.729103    22.630368      25.5484 
    9600    238.55697   -436.87707    216009.12   -18634.405    1387.3425   -20021.748   -1284.0145    99.612346    78.729266    22.629826    25.551828 
    9800    246.08743   -325.67027    216009.12   -18539.378    1431.1363   -19970.514   -819.05101     101.6509    78.730556    22.627648    25.578038 
   10000    241.75121   -482.67798    216009.12   -18558.616    1405.9188   -19964.535    -1459.621    101.72627    78.731841    22.625073    25.560117 
   10200    247.31507   -339.30023    216009.12   -18490.228    1438.2757   -19928.503   -840.90541    101.77617    78.731733    22.624349    25.546744 
   10400    244.18274   -330.59411    216009.12   -18501.796    1420.0595   -19921.855   -794.57079     102.9494    78.730422    22.625371    25.535682 
   10600    240.25928   -370.02619    216009.12   -18593.367    1397.2423   -19990.609   -1028.3093    104.00771    78.729238    22.625267    25.516513 
   10800    238.07102   -332.23529    216009.12   -18613.608    1384.5164   -19998.125   -812.89002    105.73726     78.73169    22.627682    25.502272 
   11000    233.53597   -426.52031    216009.12   -18636.291    1358.1425   -19994.433   -1249.1648    106.67985    78.731787    22.625635    25.503335 
   11200    237.50888   -402.01928    216009.12   -18617.537    1381.2472   -19998.785   -1126.4975     107.9176    78.731818    22.624762    25.505128 
   11400    241.85237   -355.53523    216009.12   -18590.687    1406.5071   -19997.194   -950.76105    108.71791    78.731129    22.621771    25.496206 
   11600    242.18857   -350.63046    216009.12   -18514.826    1408.4623   -19923.288   -950.70714    110.78016    78.730307    22.623545    25.472957 
   11800    237.03359    -345.9697    216009.12   -18523.408    1378.4831   -19901.891    -919.8311    112.73859    78.728251    22.625245    25.466828 
   12000    240.40325   -315.90157    216009.12   -18553.633    1398.0796   -19951.712   -773.15929    114.78363    78.725761    22.622739    25.455032 
   12200    249.65184   -197.60921    216009.12   -18576.517    1451.8654   -20028.383   -250.33107    115.66111    78.724113    22.621122    25.480658 
   12400    243.35838   -262.02309    216009.12   -18563.001    1415.2654   -19978.267    -565.3065    116.77004    78.720172    22.620924    25.515945 
   12600    247.71411   -237.67857    216009.12   -18497.452    1440.5963   -19938.048   -436.94028    118.50948    78.720372    22.620418    25.542857 
   12800    240.94347   -245.40345    216009.12   -18537.465    1401.2213   -19938.686   -480.70058    119.52839    78.717818    22.620229    25.505027 
   13000    238.57389   -397.58185    216009.12   -18570.313    1387.4409   -19957.754   -1091.2158    122.33146    78.716252    22.619463     25.50746 
   13200    231.86154   -257.34222    216009.12   -18626.092    1348.4048   -19974.497   -521.22476    123.32201    78.715302    22.618248    25.514131 
   13400    240.12241   -426.35105    216009.12   -18685.046    1396.4464   -20081.492    -1247.826     125.5809    78.717366    22.615908    25.519565 
   13600    232.17126   -463.21284    216009.12   -18644.887     1350.206   -19995.093   -1418.3069     125.9617    78.716651    22.614099    25.530731 
   13800    239.46114   -390.51241    216009.12   -18586.218    1392.6007   -19978.819    -1105.244    128.42014    78.717151    22.614083    25.537371 
   14000    245.61638    -355.5259    216009.12   -18536.072    1428.3969   -19964.469   -932.63741    129.83087    78.717405    22.614965    25.520689 
   14200    238.53502   -402.64687    216009.12   -18582.769    1387.2148   -19969.984   -1154.7653    131.35307    78.718133    22.616822    25.513464 
   14400    235.88121   -352.03274    216009.12   -18593.185    1371.7814   -19964.966   -955.90954    133.02974    78.718241    22.616493    25.516852 
   14600    239.16729   -387.41812    216009.12   -18572.091    1390.8918   -19962.983   -1108.0127    133.31611    78.719014    22.615856    25.504492 
   14800     237.9063   -180.57868    216009.12   -18548.706    1383.5584   -19932.265   -216.42339    134.50152    78.720142    22.619593     25.47812 
   15000    238.26366    -240.2289    216009.12   -18567.356    1385.6367   -19952.993   -455.22575    137.08235    78.719273    22.619467    25.483931 
   15200    241.93745   -264.41609    216009.12   -18578.549    1407.0018   -19985.551   -561.09955    138.91547    78.719236    22.618353    25.486932 
   15400    240.30745   -352.00513    216009.12   -18649.379    1397.5225   -20046.901   -957.29727    140.71367    78.719878    22.617608    25.494017 
   15600    251.33902   -192.12361    216009.12    -18526.27    1461.6772   -19987.947   -219.20564    141.37523    78.720754    22.616803    25.480021 
   15800    240.99401   -403.66251    216009.12   -18564.488    1401.5152   -19966.003   -1128.5047    141.97468    78.720457    22.617981     25.46122 
   16000    242.52417   -307.67808    216009.12   -18606.474     1410.414   -20016.888   -738.10694    142.45279    78.720333    22.618411    25.451922 
   16200    229.68302    -404.1784    216009.12   -18577.252    1335.7355   -19912.988   -1139.7454    143.52485    78.722725     22.61553    25.460167 
   16400    241.18057   -321.29326    216009.12   -18597.596    1402.6002   -20000.196    -814.1254    145.14423    78.724951    22.614394    25.463442 
   16600    243.96571   -183.74841    216009.12   -18508.485    1418.7973   -19927.282   -218.13418    146.71487    78.725295    22.615966    25.454854 
   16800    245.77126   -251.62105    216009.12   -18564.305    1429.2976   -19993.603   -511.33297    147.30465    78.726013    22.616152     25.45994 
   17000     241.3558   -419.02452    216009.12   -18611.849    1403.6192   -20015.468   -1227.3831    147.96198    78.725889    22.617073    25.473575 
   17200    235.81729   -271.89636    216009.12    -18593.72    1371.4097    -19965.13   -584.05045    150.94082    78.724695    22.618298    25.456149 
   17400    230.80678   -400.32977    216009.12   -18648.971    1342.2708   -19991.241   -1106.3478    152.20563    78.725596    22.614562     25.44324 
   17600    240.65207   -258.22812    216009.12   -18595.449    1399.5266   -19994.976   -524.36241    152.81881    78.727406     22.61474    25.441115 
   17800    237.73581   -347.61672    216009.12   -18595.025     1382.567   -19977.592   -870.09173    154.92861    78.725496    22.613249    25.434396 
   18000    236.78435   -332.06071    216009.12   -18545.542    1377.0337   -19922.576   -843.76137    156.39697    78.725864    22.613264    25.438851 
   18200    236.15969   -431.07842    216009.12    -18563.37    1373.4009   -19936.771   -1285.4736    158.93685    78.726573    22.613556     25.42766 
   18400    239.46184   -277.94082    216009.12   -18532.718    1392.6048   -19925.323   -628.58989     160.9418    78.724771    22.612188    25.432294 
   18600    242.57311   -228.27887    216009.12   -18521.736    1410.6986   -19932.435   -422.52908     162.8347    78.725375    22.613154    25.432808 
   18800    238.59811   -339.16937    216009.12   -18594.557    1387.5817   -19982.138   -878.17962    164.84011    78.723074    22.614728    25.445576 
   19000    249.04213   -253.22991    216009.12   -18537.706    1448.3195   -19986.026    -519.1568    166.49647    78.724047    22.614428    25.445218 
   19200    238.03694   -424.92462    216009.12   -18535.364    1384.3182   -19919.682   -1269.4757    168.78223    78.727158    22.612442     25.43893 
   19400    244.56253    -294.8666    216009.12    -18484.72    1422.2681   -19906.988   -655.78213    170.70494    78.727045    22.611888    25.434183 
   19600    247.91853   -339.42409    216009.12   -18504.205    1441.7852   -19945.991   -875.02001    172.66099    78.726134     22.61384    25.437366 
   19800    243.72392    -268.0819    216009.12   -18508.026    1417.3912   -19925.417    -566.7552    173.86978    78.725153     22.61492    25.428185 
   20000    231.81097   -380.29904    216009.12   -18558.424    1348.1107   -19906.535    -1054.147    176.01628    78.725764    22.616067    25.455088 
   20200    239.02201   -303.33904    216009.12   -18600.957    1390.0469   -19991.004   -758.49884    177.81709    78.723953    22.614197    25.460047 
   20400    248.74599   -399.54224    216009.12   -18548.257    1446.5973   -19994.854   -1164.1139    179.26199     78.72316     22.61287    25.458018 
   20600    242.10459   -248.71398    216009.12   -18648.319    1407.9739   -20056.293   -510.55911    179.78602    78.723975    22.612991    25.453759 
   20800    243.08514   -293.42356    216009.12   -18571.763    1413.6763   -19985.439   -689.09308    181.51191    78.724353    22.613664    25.461727 
   21000    239.63492   -236.18697    216009.12   -18609.956    1393.6113   -20003.567   -432.26195    182.88167    78.727425    22.613188    25.473871 
   21200    240.20082   -365.70964    216009.12   -18581.165    1396.9024   -19978.067   -989.25487    184.20345    78.727195    22.614806    25.494979 
   21400    241.04191   -302.00922    216009.12   -18592.968    1401.7938   -19994.762   -744.83742    187.46403    78.727905    22.614942    25.491236 
   21600    245.02162    -317.3036    216009.12   -18501.492    1424.9381    -19926.43    -763.0045    189.94423    78.729819    22.613824    25.499436 
   21800    239.10182   -320.47552    216009.12   -18626.998    1390.5111   -20017.509   -809.94451    192.13872    78.731373    22.614307    25.509103 
   22000    236.16534   -351.01893    216009.12   -18672.798    1373.4338   -20046.232   -963.03588    193.34359    78.732342    22.616907    25.517417 
   22200    241.01393   -276.34545    216009.12   -18680.378    1401.6311   -20082.009   -602.87917    193.09262    78.731789       22.616    25.524485 
   22400    244.58189   -263.23751    216009.12   -18564.603    1422.3807   -19986.983   -578.97385    194.61246    78.731029    22.616332     25.53116 
   22600     242.0384   -270.61731    216009.12   -18578.594    1407.5889   -19986.183   -594.66774    196.05259    78.731151    22.615739    25.537659 
   22800    245.26409   -80.769718    216009.12   -18520.064    1426.3481   -19946.412    219.92514    197.43511    78.729058     22.61515    25.540336 
   23000    240.78401   -301.17015    216009.12   -18577.764     1400.294   -19978.058   -682.33905     199.9424    78.728312    22.614357    25.578294 
   23200    244.13344   -279.30882    216009.12   -18547.728    1419.7728   -19967.501   -612.36876    200.81672    78.729328    22.616273    25.576436 
   23400    239.67273   -484.30821    216009.12   -18601.732    1393.8312   -19995.563   -1495.9427    202.71946    78.729122    22.617915    25.573697 
   23600    240.98431   -241.97725    216009.12   -18547.409    1401.4588   -19948.868   -437.33511    204.91121    78.731424    22.614413    25.571178 
   23800    238.46742   -293.67774    216009.12   -18578.837    1386.8217   -19965.658    -669.8416    206.40737     78.73148    22.612742    25.555102 
   24000     238.3419   -488.55131    216009.12   -18594.663    1386.0917   -19980.755   -1505.6343    208.02796    78.730703    22.610412     25.53751 
   24200    239.31264   -296.23893    216009.12   -18607.299    1391.7371   -19999.036   -663.22922    209.07695    78.729571    22.607903    25.527837 
   24400    233.10603   -332.34236    216009.12   -18644.176    1355.6422   -19999.818   -869.34448    209.71903    78.730264    22.605974    25.531587 
   24600    229.94282   -121.18656    216009.12   -18650.882    1337.2464   -19988.128    82.606299    209.82262    78.733639    22.606018    25.515591 
   24800    237.64332   -129.53726    216009.12   -18620.587    1382.0291   -20002.616    32.517949    210.88393    78.734103    22.605384    25.495701 
   25000     240.0897   -351.47013    216009.12   -18623.074    1396.2562    -20019.33   -880.37647    212.99529    78.734034    22.602226    25.521928 
   25200    226.05118   -291.56288    216009.12   -18707.303    1314.6143   -20021.917   -651.77817    212.92182    78.733352    22.600118    25.532429 
   25400    231.05072   -310.92131    216009.12   -18603.204    1343.6894   -19946.893   -768.12639     212.9845    78.733274    22.601649    25.533836 
   25600    247.83796   -264.76625    216009.12   -18427.375    1441.3166   -19868.692   -525.02809    213.12909     78.73177    22.599076    25.544991 
   25800    250.87426   -340.98627    216009.12   -18472.448    1458.9744   -19931.422   -897.81838    213.53105     78.73216    22.597829     25.54264 
   26000    243.81133   -520.16559    216009.12   -18539.858    1417.8995   -19957.757    -1612.701    215.38115    78.734767    22.599023    25.532992 
   26200    237.64765   -277.72314    216009.12   -18577.818    1382.0543   -19959.873   -617.60185     214.9535    78.734025    22.600982     25.53202 
   26400    232.86154   -342.78473    216009.12   -18621.235    1354.2203   -19975.455    -882.9077    215.65069    78.731495    22.600873    25.533585 
   26600    242.40705   -202.02017    216009.12   -18526.518    1409.7328   -19936.251   -310.02572    216.78789    78.730845    22.601027     25.55538 
   26800    240.62804   -364.14947    216009.12   -18565.152    1399.3869   -19964.539    -926.9014    217.91192      78.7299    22.598821    25.549517 
   27000    250.76711   -302.01034    216009.12   -18511.046    1458.3513   -19969.398   -720.83856    218.01186     78.73003    22.598505    25.552198 
   27200          240   -352.66208    216009.12   -18564.081    1395.7345   -19959.816   -899.14894    219.50306    78.729825    22.597112    25.546885 
   27400    245.60183   -352.97037    216009.12   -18515.277    1428.3123    -19943.59   -912.49886    219.93442     78.72738    22.600655    25.562037 
   27600    228.73439   -307.82915    216009.12   -18626.318    1330.2187   -19956.537   -692.28107    220.28307    78.726442    22.601716    25.556728 
   27800      242.872   -439.90498    216009.12   -18510.908    1412.4368   -19923.345   -1317.6615     222.1067    78.726669    22.602479    25.569935 
   28000    237.22845   -414.41029    216009.12   -18596.556    1379.6164   -19976.173   -1191.4546    222.07653    78.724988    22.603353    25.592477 
   28200    242.42397    -148.2761    216009.12   -18562.941    1409.8312   -19972.772   -55.696853     223.8393    78.728513     22.60263    25.598875 
   28400    235.17228   -281.67749    216009.12   -18563.183    1367.6586   -19930.841   -604.29634    225.50552    78.729345    22.601418    25.593554 
   28600    241.02639    -434.6219    216009.12   -18594.376    1401.7035   -19996.079   -1278.0281    226.92267    78.731178    22.598311    25.577677 
   28800    239.14491   -347.67024    216009.12   -18590.538    1390.7617     -19981.3   -889.60608    226.98999     78.73087    22.598463    25.567877 
   29000    233.47239   -317.62048    216009.12    -18533.72    1357.7728   -19891.493   -822.86157    228.31438    78.727237     22.59575    25.562637 
   29200     241.9915   -499.36401    216009.12   -18517.658    1407.3162   -19924.974   -1552.9461    229.68641    78.726165    22.593809    25.573295 
   29400    240.63569   -413.33585    216009.12    -18521.25    1399.4314   -19920.682   -1241.1187    231.00554    78.725446    22.593638     25.57558 
   29600    242.15746   -208.10796    216009.12   -18534.092    1408.2813   -19942.373   -291.73149    231.52988    78.727341    22.591778     25.57605 
   29800    238.93755   -363.60937    216009.12   -18628.715    1389.5558    -20018.27   -954.81589    232.43096    78.726331    22.593474    25.550738 
   30000    227.60699   -420.43884    216009.12   -18670.059    1323.6622   -19993.721    -1160.114    234.27494    78.726556    22.591911    25.568733 
   30200    236.54432   -325.76695    216009.12   -18616.797    1375.6378   -19992.435    -855.4071     235.7505     78.72559    22.593131    25.574914 
   30400    237.04038   -377.77495    216009.12   -18604.654    1378.5227   -19983.177   -1014.0117    237.93337    78.723663    22.593869    25.575399 
   30600    238.34614   -207.29605    216009.12   -18653.113    1386.1164    -20039.23   -297.39195    238.76652    78.721378    22.593668    25.572551 
   30800    244.15494   -273.76391    216009.12   -18621.299    1419.8978   -20041.197   -587.05504    239.11119    78.721989    22.593348    25.559462 
   31000    243.56447   -358.89107    216009.12   -18643.902    1416.4639   -20060.366   -929.62256    239.65692    78.721583    22.595855    25.530501 
   31200    237.94331   -219.46659    216009.12   -18613.315    1383.7737   -19997.088   -370.31642    240.04591    78.722794    22.596711    25.545257 
   31400    240.58231   -152.62414    216009.12   -18570.506     1399.121   -19969.627    -49.44655    241.34473    78.724251    22.597392    25.540905 
   31600    231.35626   -394.96329    216009.12   -18595.121    1345.4663   -19940.587   -1095.3786    243.47139    78.725287    22.596159    25.544666 
   31800    245.56988   -385.95505    216009.12   -18523.591    1428.1265   -19951.717   -1104.1827    245.34169    78.726051    22.596832    25.557958 
   32000    242.50864   -323.94076    216009.12    -18644.04    1410.3237   -20054.364   -803.82468    246.25241     78.72435    22.596782    25.544285 
   32200     236.9075   -370.37551    216009.12   -18622.419    1377.7499   -20000.168   -974.22633    249.35551    78.723856     22.59712     25.53323 
   32400    239.88294   -356.65807    216009.12   -18671.635    1395.0537   -20066.689   -886.69892    251.64315    78.723184     22.59664    25.537295 
   32600    243.93226   -227.50194    216009.12   -18603.847    1418.6028    -20022.45   -390.61349     255.6004    78.723608    22.594288    25.552901 
   32800    241.26486   -233.93749    216009.12   -18593.276    1403.0904   -19996.366   -366.38671     256.4573    78.722192    22.594995    25.524044 
   33000    241.60386   -489.10343    216009.12   -18577.868    1405.0619    -19982.93   -1511.0491    258.60553    78.719239    22.598725    25.522677 
   33200    232.71061   -428.74734    216009.12   -18585.922    1353.3426   -19939.265   -1284.4028    258.59002    78.719153      22.5993    25.505346 
   33400    232.89703    -96.68392    216009.12    -18636.85    1354.4268   -19991.276    118.55154    259.37963    78.719087    22.601314    25.493388 
   33600    231.94011   -256.49882    216009.12   -18628.565    1348.8617   -19977.427   -499.33806    261.54162    78.719847    22.596591    25.488382 
   33800    252.05685   -366.68103    216009.12   -18504.521    1465.8518   -19970.373   -960.91515    261.44664    78.718032    22.595116    25.511264 
   34000    239.40523   -415.51372    216009.12   -18620.636    1392.2756   -20012.912    -1190.874    263.14748    78.714466     22.59168    25.521509 
   34200    237.74457   -172.44141    216009.12   -18602.776    1382.6179   -19985.394   -182.89432    262.24891     78.71077    22.589244    25.512046 
   34400    238.40311   -436.23825    216009.12   -18655.886    1386.4477   -20042.334   -1283.5061    263.94474    78.707518    22.587611     25.50592 
   34600    249.02257   -365.00602    216009.12   -18539.398    1448.2058   -19987.604   -984.92461    268.76452    78.705521     22.58594     25.49003 
   34800    237.81171   -253.59755    216009.12   -18597.844    1383.0084   -19980.852   -501.11401    269.01736    78.705092    22.586357     25.48021 
   35000    243.85424   -334.73922    216009.12   -18595.113    1418.1491   -20013.262   -840.71323    271.28173    78.709424    22.584959    25.476871 
   35200    247.98817   -242.50895    216009.12    -18518.68    1442.1902   -19960.871   -477.49662    272.00206    78.710662    22.583249    25.477886 
   35400    242.48419   -254.33759    216009.12   -18544.657    1410.1815   -19954.839   -504.81967    275.16653     78.71196    22.584138    25.473365 
   35600    241.33933    -319.1943    216009.12   -18575.289    1403.5235   -19978.812   -780.46333      277.706    78.712421    22.584053     25.46972 
   35800    242.10587   -310.66622    216009.12   -18506.417    1407.9813   -19914.399   -679.12396    278.96543    78.714884    22.584651      25.4585 
   36000    238.78258   -241.66244    216009.12   -18639.241    1388.6545   -20027.895   -441.02616    283.94537    78.714742    22.586467    25.452991 
   36200    240.70906    -388.6413    216009.12   -18618.045    1399.8581   -20017.903   -1045.2761    285.45788    78.713542    22.584191    25.448185 
   36400    234.40974   -316.38812    216009.12   -18607.782     1363.224   -19971.006    -802.5314    284.82001    78.711245    22.583665    25.435339 
   36600    246.26724   -357.30939    216009.12   -18602.241     1432.182   -20034.423   -944.85508    286.85645    78.709633     22.58611    25.447181 
   36800    238.40385   -370.40863    216009.12   -18679.259     1386.452   -20065.711   -1003.7077    287.96101    78.710293    22.587717     25.44091 
   37000    237.89414   -189.08632    216009.12   -18670.079    1383.4877   -20053.567   -232.46502    287.12057    78.711482    22.590013    25.452969 
   37200     238.9469   -151.39502    216009.12   -18692.637    1389.6101   -20082.247   -100.53679     288.9242     78.70988    22.588869    25.468785 
   37400     238.9216   -342.30314    216009.12   -18683.783     1389.463   -20073.246   -876.43006    291.14871    78.709971    22.587252    25.468781 
   37600    234.94084   -357.30201    216009.12   -18691.609    1366.3126   -20057.921   -927.48245    293.49743     78.70918    22.588001    25.475349 
   37800       233.07   -235.71881    216009.12   -18743.503    1355.4327   -20098.936   -424.88302    293.31218    78.707597    22.589345    25.488333 
   38000    239.22728    -319.5208    216009.12   -18633.752    1391.2407   -20024.993    -768.3116     292.3631    78.709662    22.590423     25.49575 
   38200     247.1613    -463.7895    216009.12   -18645.104    1437.3815   -20082.485   -1392.7374    294.27185    78.708338    22.592833    25.496599 
   38400    238.59819   -330.51717    216009.12   -18598.421    1387.5822   -19986.003   -862.17409    293.66129     78.70709    22.593473    25.499114 
   38600     247.4412   -383.18619    216009.12   -18609.676    1439.0092   -20048.685   -1083.4329    293.71624    78.706678    22.592241    25.504529 
   38800     246.0669   -234.20682    216009.12   -18626.271    1431.0169   -20057.287   -438.55987     293.4423    78.708597    22.590115    25.477473 
   39000    240.55639   -243.12672    216009.12   -18565.871    1398.9702   -19964.841   -467.40865    295.03192    78.709502    22.587026    25.443251 
   39200    232.94269   -340.75152    216009.12   -18624.422    1354.6923   -19979.114   -904.98706    296.78497    78.706821    22.587092    25.435622 
   39400    244.86715   -331.10161    216009.12   -18609.489    1424.0397   -20033.529   -829.51574    298.74514    78.707988    22.588973     25.44885 
   39600    239.51996   -243.80135    216009.12   -18544.205    1392.9428   -19937.147    -448.9245    298.57764    78.709187    22.589614    25.467892 
   39800    244.21108   -379.24264    216009.12   -18616.298    1420.2243   -20036.522   -1063.2954    299.00713    78.710123    22.588572    25.469062 
   40000    241.30729   -379.24744    216009.12   -18562.287    1403.3371   -19965.625   -1037.3127    299.77819    78.709512    22.588762    25.485097 
   40200    235.29464   -119.67777    216009.12   -18587.769    1368.3702   -19956.139    45.821484    302.45854    78.710649    22.589828    25.498722 
   40400     228.5744   -390.80504    216009.12    -18643.91    1329.2883   -19973.199   -1030.2397    303.91658    78.711371    22.589377    25.533076 
   40600    238.39378   -285.15522    216009.12   -18557.582    1386.3934   -19943.975   -611.63258    303.98834    78.710646    22.588435    25.557043 
   40800    237.14459   -192.66455    216009.12   -18620.635    1379.1287   -19999.763   -250.62131    304.32924    78.709901    22.587107    25.551104 
   41000    241.65095   -240.92666    216009.12   -18565.378    1405.3357   -19970.714   -445.12273    306.28989    78.711688     22.58632    25.559644 
   41200    244.74007   -318.88178    216009.12   -18542.501    1423.3007   -19965.801    -813.0518    306.35718    78.711866    22.586497     25.56736 
   41400    239.34893   -195.98834    216009.12   -18592.505    1391.9482   -19984.453   -247.34334    306.53138    78.712401    22.588532    25.570329 
   41600    242.87436   -295.88139    216009.12   -18585.908    1412.4505   -19998.358   -677.46897      306.701    78.713158    22.587435    25.575697 
   41800     242.7727   -277.14946    216009.12   -18570.452    1411.8593   -19982.312   -620.31546    308.64493    78.714061    22.585709    25.571765 
   42000    234.01759   -408.69078    216009.12   -18626.314    1360.9434   -19987.257   -1106.7314    310.62636    78.714136    22.584273    25.566174 
   42200    234.07097   -311.75551    216009.12   -18673.621    1361.2539   -20034.875   -726.28837    311.22249    78.715153    22.584965    25.575996 
   42400    236.77866   -369.79251    216009.12    -18644.47    1377.0006   -20021.471   -1026.5837    313.40354    78.712299    22.587318    25.569049 
   42600    238.49033   -394.49859    216009.12   -18677.638    1386.9549   -20064.593    -1145.597    313.99793    78.712106     22.58704    25.542285 
   42800    241.74884   -245.61676    216009.12   -18603.828     1405.905   -20009.733   -467.45856    314.43487    78.711714    22.586092    25.555153 
   43000    238.61965   -167.91996    216009.12   -18637.318     1387.707   -20025.025   -170.05224    313.90723    78.712399    22.585689    25.569655 
   43200    243.81369   -477.22459    216009.12   -18592.832    1417.9132   -20010.745   -1459.4333    313.99589    78.712141    22.583582    25.566229 
   43400    243.20393   -240.51065    216009.12   -18568.903    1414.3671    -19983.27   -499.40363    316.90865    78.713705    22.579615    25.553501 
   43600    234.22444   -400.96828    216009.12   -18608.154    1362.1464     -19970.3   -1113.4486    318.89396    78.713859    22.579554    25.572932 
   43800    237.75711   -429.12632    216009.12   -18650.895    1382.6908   -20033.586   -1270.8669    320.73115    78.715853    22.580137    25.568389 
   44000    236.52156   -316.35864    216009.12   -18680.971    1375.5054   -20056.476   -822.61836    320.11845    78.719044    22.578472    25.582702 
   44200    242.09811   -368.06898    216009.12   -18630.914    1407.9362    -20038.85   -994.27076    320.16482    78.721686    22.578852    25.551804 
   44400    243.50593   -254.53716    216009.12    -18664.27    1416.1234   -20080.393   -476.88345    318.74701    78.722808    22.576088    25.536157 
   44600    235.09593   -408.90181    216009.12   -18675.826    1367.2146   -20043.041   -1164.3227    320.82512    78.723919     22.57577    25.528167 
   44800    230.37694   -294.45521    216009.12   -18674.702     1339.771   -20014.473   -680.26506    320.11487    78.724044    22.575919    25.508064 
   45000    240.89711   -346.20358    216009.12     -18676.5    1400.9517   -20077.451   -895.51868    322.74936    78.725502    22.575706    25.509356 
   45200    237.41513     -272.465    216009.12     -18609.5     1380.702   -19990.202   -552.97946    323.55652    78.726046     22.57595    25.505058 
   45400    229.28132   -355.32232    216009.12   -18655.116    1333.3994   -19988.516    -906.8582    325.20113    78.727755    22.571749    25.491278 
   45600    245.91086   -323.46112    216009.12   -18574.282    1430.1095   -20004.391    -836.2442    326.09047    78.729208    22.570467     25.48718 
   45800    240.17606   -328.41219    216009.12   -18635.804    1396.7584   -20032.562   -854.56858     326.3185     78.72819    22.568915    25.511967 
   46000    242.94345   -314.76796    216009.12   -18577.298    1412.8523    -19990.15   -805.45328    327.26323    78.727328    22.565397    25.524261 
   46200    245.82266   -417.48551    216009.12   -18562.796    1429.5965   -19992.393   -1225.1917    328.37993     78.72798    22.563593    25.518901 
   46400    235.26951   -342.00725    216009.12   -18619.592     1368.224   -19987.816   -889.93769    330.31719    78.726979    22.563815    25.515804 
   46600    235.91233    -465.2782    216009.12   -18589.241    1371.9624   -19961.204   -1426.6852    333.31608    78.729737    22.564747    25.491109 
   46800    243.82445   -304.92494    216009.12   -18545.935    1417.9758   -19963.911   -721.05397    333.28131    78.730341    22.565124    25.519641 
   47000    244.46129    -226.0131    216009.12    -18511.31    1421.6794   -19932.989   -398.64611    333.95041     78.73232    22.563754    25.493182 
   47200    231.56958   -122.70319    216009.12   -18637.038    1346.7069   -19983.745    75.611236    335.59706    78.733464    22.561429     25.48578 
   47400    244.87659   -283.35758    216009.12   -18570.523    1424.0946   -19994.617   -703.54286    335.27905    78.735557    22.558973    25.489651 
   47600    243.28906   -174.43127    216009.12   -18627.753    1414.8622   -20042.615   -175.85962    336.15357     78.73546    22.561225    25.462121 
   47800    238.26053   -349.16771    216009.12   -18615.426    1385.6185   -20001.044   -940.52272     339.1673    78.734963    22.559039    25.458243 
   48000    238.06053   -152.09366    216009.12   -18629.779    1384.4554   -20014.234   -85.294725    339.77124    78.735496    22.558984    25.453913 
   48200    239.91203   -246.46942    216009.12   -18652.373    1395.2229   -20047.596   -509.37691     342.0353    78.736647    22.559223    25.467709 
   48400    231.59072   -207.48916    216009.12   -18623.735    1346.8298   -19970.565   -262.63982    342.67946    78.735212    22.558852    25.501004 
   48600    230.31801   -425.12066    216009.12   -18679.103    1339.4283   -20018.531   -1235.5008    344.96342    78.733197    22.561259    25.520545 
   48800    233.24166   -298.50659    216009.12   -18642.332    1356.4309   -19998.763   -713.56428    346.71042    78.733207     22.56132    25.529974 
   49000    234.25181   -355.99156    216009.12   -18597.039    1362.3056   -19959.344   -974.37755     346.9587    78.730961    22.560591    25.540939 
   49200     245.8677   -226.59941    216009.12   -18538.198    1429.8585   -19968.056   -439.49134    348.90162    78.732273    22.563909    25.573026 
   49400    240.55856   -422.76797    216009.12   -18613.005    1398.9828   -20011.987   -1174.9047     352.2904    78.733243    22.567131    25.581997 
   49600    239.04309   -244.03346    216009.12   -18601.159    1390.1695   -19991.329   -440.90404    350.41204    78.731927    22.570693    25.582284 
   49800    238.87324    -397.7268    216009.12   -18637.109    1389.1817   -20026.291   -1163.8723    354.23741     78.73349    22.573443    25.574892 
   50000    234.20925   -270.01764    216009.12   -18655.106     1362.058   -20017.165   -608.40884    356.46626    78.735664    22.574425    25.552899 
   50200    243.30098   -357.64963    216009.12   -18587.297    1414.9316   -20002.229   -949.17684    358.80402    78.735073    22.575553    25.566494 
   50400    237.93918   -345.66824    216009.12   -18569.439    1383.7497   -19953.188   -916.08608    358.34196    78.736917    22.575972     25.56149 
   50600    248.76926    -287.9183    216009.12   -18492.391    1446.7327   -19939.124   -631.31184    356.05349    78.736588    22.576348    25.543585 
   50800     235.6397   -265.64997    216009.12   -18668.641    1370.3769   -20039.018    -567.0583    357.53699    78.738421    22.574211     25.54027 
   51000    240.31937   -428.44291    216009.12   -18636.478    1397.5918    -20034.07   -1282.2476    358.73757    78.738545    22.573159    25.543384 
   51200    239.15648   -401.43297    216009.12   -18633.781    1390.8289    -20024.61   -1149.0376    358.80856    78.739695    22.571507    25.536341 
   51400     241.9186    -189.6544    216009.12   -18621.237    1406.8923   -20028.129   -243.51473    359.82155    78.738254    22.570913    25.565773 
   51600    235.92737   -376.41689    216009.12   -18656.473    1372.0499   -20028.523   -1037.2356    363.45783    78.735822    22.567383    25.580375 
   51800    234.27424   -233.20544    216009.12   -18628.984     1362.436    -19991.42   -374.91569    366.15037    78.735304    22.565834    25.583663 
   52000    235.80122   -405.55796    216009.12   -18708.584    1371.3163     -20079.9   -1197.9468    366.76443    78.732939    22.564642    25.559713 
   52200    230.24024   -309.17255    216009.12   -18739.132     1338.976   -20078.108   -703.36057    366.75027    78.733335    22.562825    25.557228 
   52400    229.02142   -235.59028    216009.12   -18742.928    1331.8879   -20074.816   -439.79908    367.99351    78.734527    22.559878    25.550923 
   52600    232.91317   -263.10526    216009.12   -18672.834    1354.5206   -20027.354   -569.65272    369.75523    78.734142    22.560734    25.563262 
   52800    243.62848   -268.76098    216009.12   -18574.459    1416.8361   -19991.295   -565.36679    371.42774    78.734001    22.560133    25.589492 
   53000     249.0284   -212.01831    216009.12   -18559.359    1448.2397   -20007.599    -306.0228    371.50106     78.73393    22.559748    25.571313 
   53200    233.99045   -311.56295    216009.12   -18649.038    1360.7856   -20009.823   -759.22795    372.86987    78.733945    22.558359    25.568204 
   53400    240.50778   -373.85853    216009.12    -18627.64    1398.6875   -20026.327    -1025.604    373.60186     78.73291    22.557596    25.570096 
   53600    235.63197   -302.81014    216009.12   -18675.961     1370.332   -20046.293    -757.4474     371.6424    78.730982    22.557472    25.546099 
   53800    229.28533   -422.11709    216009.12   -18601.684    1333.4227   -19935.107   -1230.7264    372.27364    78.731491     22.55667    25.543172 
   54000    238.27636   -157.39401    216009.12   -18571.834    1385.7106   -19957.544   -99.671618    373.15374    78.733273    22.558248    25.556136 
   54200    246.34414   -375.09418    216009.12   -18523.651    1432.6293    -19956.28    -1041.931    374.86793    78.736912    22.559861    25.558422 
   54400    247.61061   -356.30991    216009.12   -18501.359    1439.9945   -19941.354   -892.74009    376.21164    78.739489    22.561253    25.545957 
   54600    244.91109   -381.10788    216009.12   -18551.643    1424.2952   -19975.938   -1078.4764    379.25605    78.738092    22.559483    25.545327 
   54800    243.87779    -273.9224    216009.12   -18525.425     1418.286   -19943.711   -602.47072    381.62589    78.737265    22.556902    25.544625 
   55000    244.18594   -354.04807    216009.12   -18493.424    1420.0781   -19913.502   -953.04086     383.2668    78.737511    22.557976    25.555249 
   55200    235.94232   -268.22365    216009.12   -18643.311    1372.1368   -20015.448   -587.44289    383.86679    78.739366    22.555565    25.565442 
   55400    244.42026   -378.56778    216009.12   -18607.222    1421.4408   -20028.663   -1087.5966    384.87372    78.740531    22.556361     25.58107 
   55600    237.55161   -180.52983    216009.12    -18621.14    1381.4957   -20002.635   -201.50369    385.60837    78.741236     22.55551    25.594229 
   55800    244.23934   -232.46505    216009.12   -18510.986    1420.3886   -19931.375   -423.64579    386.16593    78.742328    22.553468    25.594219 
   56000    240.43944   -408.98556    216009.12   -18555.319    1398.2901   -19953.609     -1177.37    387.54201    78.743818      22.5534    25.586865 
   56200    244.00759   -339.11964    216009.12   -18547.549    1419.0409    -19966.59   -855.60083    387.42838     78.74335    22.551668    25.578219 
   56400    239.35013   -281.66817    216009.12   -18613.646    1391.9551   -20005.601   -666.47131    390.06603    78.742491    22.550262    25.592004 
   56600    235.35114   -317.79533    216009.12   -18666.288    1368.6988   -20034.986   -738.17781    391.33001     78.74245    22.548447    25.607905 
   56800    242.15693   -243.41419    216009.12   -18602.078    1408.2782   -20010.356   -454.55314    389.42734    78.742297    22.546454    25.620939 
   57000    235.14745   -308.47559    216009.12   -18659.202    1367.5142   -20026.716   -754.87542    389.12035    78.741615    22.546393     25.59069 
   57200    237.40523   -320.11871    216009.12   -18545.142    1380.6445   -19925.786      -788.36    392.05852    78.741748    22.545404    25.587779 
   57400    233.30202   -241.64041    216009.12   -18581.843     1356.782   -19938.625   -459.02624    395.67492    78.742286    22.548378     25.56864 
   57600     232.8165   -340.99589    216009.12   -18607.243    1353.9584   -19961.201   -891.14144    397.98945    78.742598    22.549893    25.562451 
   57800    240.76455   -375.59095    216009.12   -18558.146    1400.1808   -19958.327   -1032.0423    400.06136    78.741508    22.549362    25.553929 
   58000    242.46819   -422.73772    216009.12   -18574.033    1410.0884   -19984.121   -1252.1803    400.67652     78.73909    22.550498    25.578798 
   58200    241.43807   -195.88611    216009.12   -18567.066    1404.0977   -19971.164   -294.19198    401.16223    78.737754    22.551746    25.570961 
   58400    241.78959   -214.53782    216009.12   -18596.147     1406.142   -20002.289   -395.86755    403.61477    78.736314    22.549736    25.584874 
   58600    231.47225   -347.81248    216009.12   -18608.973    1346.1409   -19955.113   -929.59377    405.15927    78.736552    22.546238    25.611836 
   58800    233.94696   -294.88634    216009.12   -18598.939    1360.5327   -19959.472   -706.65384    407.69949     78.73535     22.54507    25.607429 
   59000    240.53197   -298.58825    216009.12   -18546.336    1398.8282   -19945.164   -686.56355    404.96968    78.735835     22.54454    25.586668 
   59200    233.55736   -267.27678    216009.12   -18621.975     1358.267   -19980.242   -540.40378    406.45786    78.734588    22.543232    25.617459 
   59400    238.60106   -330.45394    216009.12   -18636.068    1387.5989   -20023.667   -793.82812    407.65912    78.735674    22.543528    25.608722 
   59600    233.22797   -268.99412    216009.12   -18686.235    1356.3513   -20042.586   -592.39416    406.15395    78.736622    22.543554    25.598045 
   59800     234.3955   -112.32433    216009.12   -18641.708    1363.1412   -20004.849    112.58193    406.35176    78.736641    22.542944    25.588371 
   60000    236.12121   -319.20445    216009.12   -18628.011    1373.1771   -20001.188   -803.78625    408.60933     78.73912     22.54217    25.599502 
   60200    244.48777   -344.96948    216009.12   -18691.733    1421.8334   -20113.566   -903.13269    409.42224    78.739113    22.545216    25.600696 
   60400    241.24196   -303.56844    216009.12   -18640.714    1402.9572   -20043.671   -731.09862    410.85419     78.73779    22.545419    25.611953 
   60600    239.91799   -292.01125    216009.12   -18590.356    1395.2576   -19985.614   -661.44112      412.282    78.737342    22.545978    25.630578 
   60800    245.15348   -303.33771    216009.12   -18526.845    1425.7049    -19952.55   -711.63649    412.79004     78.73588    22.545985    25.635474 
   61000    238.34456   -355.97409    216009.12   -18573.921    1386.1072   -19960.028   -941.87061    415.56694    78.734451    22.546351      25.6326 
   61200    242.62205   -132.26585    216009.12   -18525.709    1410.9832   -19936.692    7.5774093     416.0889    78.733599    22.545263    25.632245 
   61400    239.76856    -315.4976    216009.12   -18554.481    1394.3885   -19948.869    -747.3042    418.44938    78.732621    22.548129    25.612868 
   61600    248.57738   -466.51418    216009.12   -18585.356    1445.6168   -20030.973    -1407.657    420.30302    78.731987    22.546217    25.606509 
   61800    238.03351   -396.88623    216009.12   -18649.093    1384.2983   -20033.391   -1178.1735    421.29806    78.731718    22.546637    25.610403 
   62000    239.10675   -349.05304    216009.12   -18575.399    1390.5398   -19965.938   -915.42796    421.38108    78.729763    22.548316    25.592566 
   62200    241.52078   -339.26665    216009.12    -18554.16    1404.5787   -19958.739   -870.44746    421.88791    78.727843    22.551061    25.570982 
   62400    245.53469   -268.27417    216009.12   -18589.641    1427.9218   -20017.563   -510.70658    424.37521    78.727224    22.551136    25.568472 
   62600    235.73746   -331.16064    216009.12   -18640.313    1370.9454   -20011.259   -832.32243    425.27282    78.726219    22.551401    25.537188 
   62800    231.31352   -246.57967    216009.12    -18719.25    1345.2177   -20064.468   -489.99702     424.0734    78.724665    22.553938    25.552046 
   63000    243.40644   -220.95837    216009.12   -18629.442    1415.5449   -20044.987   -362.01701    425.19802    78.727645    22.553931    25.537735 
   63200    234.95315   -236.74079    216009.12   -18620.491    1366.3842   -19986.875   -475.23869    427.31616    78.726504    22.551991    25.549685 
   63400    235.14741   -451.62167    216009.12   -18639.903     1367.514   -20007.417   -1322.7967    430.45226    78.726393     22.55177    25.562247 
   63600    233.57179   -304.16842    216009.12   -18624.329    1358.3508    -19982.68   -733.61377    431.38782     78.72431     22.55212    25.561166 
   63800    232.14497   -447.43451    216009.12   -18638.644    1350.0531   -19988.697   -1332.0802    433.91446     78.72595    22.551854    25.533778 
   64000     241.7734   -286.34621    216009.12   -18550.396    1406.0478   -19956.443   -650.93409    434.05994    78.725977    22.552141     25.53155 
   64200    240.97462    -284.0586    216009.12   -18592.496    1401.4024   -19993.898   -653.66656    435.07842    78.728037    22.550025    25.545399 
   64400    236.82881   -286.35156    216009.12   -18613.449    1377.2923   -19990.741   -645.25859     436.5677    78.727753    22.550166    25.561193 
   64600    239.94686   -146.50155    216009.12   -18662.629    1395.4255   -20058.055   -52.103663    435.95818    78.727664    22.549045    25.534599 
   64800    250.16382   -347.36704    216009.12   -18629.551    1454.8428   -20084.394   -908.32026    438.92868    78.727352    22.547419    25.524115 
   65000    237.48215   -388.43739    216009.12   -18561.933    1381.0918   -19943.025   -1097.4446    439.03946    78.727509    22.546719    25.518572 
   65200      237.058   -294.96817    216009.12   -18590.732    1378.6251   -19969.357   -660.15595    440.82422    78.727899    22.544385    25.508063 
   65400    241.23825   -148.58988    216009.12   -18608.176    1402.9356   -20011.112    -99.39441       438.56    78.730515    22.541025    25.512759 
   65600    240.07295   -362.12806    216009.12    -18573.34    1396.1588   -19969.499   -961.40952    440.18474    78.730339    22.540795    25.494182 
   65800    237.23451   -428.47607    216009.12   -18625.598    1379.6516    -20005.25   -1251.6694    442.74355     78.73191    22.540725    25.486403 
   66000    241.81039   -293.10556    216009.12   -18601.858    1406.2629   -20008.121   -714.00778    445.10695    78.731356    22.541769    25.501494 
   66200    237.65572   -437.63332    216009.12   -18643.085    1382.1012   -20025.186   -1295.4064    447.27817    78.729956    22.542339    25.492603 
   66400    228.35148     -419.026    216009.12   -18666.844    1327.9918   -19994.836   -1201.1108    452.21709    78.731236     22.54058    25.515929 
   66600      240.399   -154.83703    216009.12   -18655.578    1398.0549   -20053.633   -74.749766    454.64056    78.730203    22.540774    25.513498 
   66800    228.83353    -350.1475    216009.12   -18646.119    1330.7952   -19976.914   -917.98645     457.5914    78.730791    22.541141    25.506585 
   67000    229.28359   -172.11915    216009.12   -18681.634    1333.4126   -20015.046   -128.67573    460.63933    78.731171    22.541364    25.518615 
   67200    235.43025   -329.99844    216009.12   -18585.701    1369.1588    -19954.86   -806.63763    461.54563    78.730755    22.543561    25.514584 
   67400    243.71938   -244.42898    216009.12   -18554.484    1417.3648   -19971.849   -428.16546    460.41033    78.730487    22.544577    25.489054 
   67600    241.90442   -263.43719    216009.12   -18512.382    1406.8098   -19919.192   -538.45141    462.61174    78.727777      22.5402     25.49479 
   67800    241.85487   -375.89011    216009.12   -18554.797    1406.5216   -19961.318   -1013.8578    464.70068    78.725951    22.542582    25.494333 
   68000    237.88825   -287.00279    216009.12    -18606.32    1383.4535   -19989.774   -641.89733    462.93782     78.72542    22.544516    25.509535 
   68200    232.96357   -279.23728    216009.12   -18609.096    1354.8137    -19963.91   -606.55379     465.3334    78.726704    22.545729     25.49542 
   68400    243.94497   -244.88153    216009.12    -18553.46    1418.6767   -19972.137   -434.77011    466.60823    78.728286    22.544597    25.492409 
   68600    239.54913   -329.04942    216009.12   -18553.404    1393.1125   -19946.516   -841.52329    469.64763    78.729389    22.544557    25.483736 
   68800    239.22734   -301.86075    216009.12   -18528.053    1391.2411   -19919.294   -747.94158    469.66907    78.731869    22.542126     25.49303 
   69000    238.96387   -311.89359    216009.12   -18561.742    1389.7088   -19951.451    -777.5744    472.61347    78.733489      22.5392    25.509323 
   69200    236.77562   -360.06496    216009.12   -18635.532    1376.9829   -20012.515    -973.5921    476.26904    78.733239     22.53862    25.530446 
   69400    239.94629   -328.02174    216009.12   -18672.396    1395.4222   -20067.818   -840.05277     479.3447    78.733118    22.540782    25.514751 
   69600    244.42801   -230.62475    216009.12   -18521.192    1421.4858   -19942.677   -401.60445    478.12762    78.732076    22.542715    25.521974 
   69800    238.89079   -184.57916    216009.12   -18649.777    1389.2838   -20039.061   -196.61037    479.03762    78.728066    22.545429    25.509189 
   70000    237.89413    -402.2184    216009.12   -18607.164    1383.4877   -19990.651   -1139.2062    478.86512    78.729732    22.542894    25.528356 
   70200    243.72644   -154.87783    216009.12   -18575.747    1417.4058   -19993.152   -97.341989    477.46993    78.732398    22.544287    25.523783 
   70400    251.31118   -293.39568    216009.12   -18518.904    1461.5154   -19980.419   -623.42074    478.49281    78.732318    22.545328    25.526227 
   70600    244.68381   -289.74051    216009.12   -18613.084    1422.9735   -20036.057   -612.30966    479.56531    78.733356    22.544579     25.51959 
   70800     237.6589   -77.736316    216009.12   -18643.799    1382.1197   -20025.918     283.5707     476.7452    78.730844    22.545083    25.510579 
   71000    234.69403   -243.81696    216009.12   -18622.804    1364.8773   -19987.681   -467.61016    476.76939    78.730835    22.544568     25.48552 
   71200    240.08321   -364.55031    216009.12   -18588.922    1396.2184   -19985.141   -987.96573    478.53716    78.729808    22.543862    25.482847 
   71400    245.52027   -279.72185    216009.12   -18644.405     1427.838   -20072.243   -599.88384    481.79467    78.727613    22.544433    25.467576 
   71600    235.38248    -210.4405    216009.12   -18597.001     1368.881   -19965.882   -281.94536    481.03717    78.725534    22.544234    25.467899 
   71800    223.18051   -226.34687    216009.12   -18639.897    1297.9197   -19937.817   -375.73892          482    78.724359    22.544262    25.491387 
   72000    242.33416   -348.33118    216009.12   -18636.365     1409.309   -20045.674   -896.40415    482.53289    78.723185    22.545839    25.504828 
   72200    247.06122   -192.70768    216009.12   -18501.754    1436.7995   -19938.553   -244.72114    484.44851    78.722385    22.545092    25.512093 
   72400    241.17748   -195.93085    216009.12   -18594.208    1402.5822    -19996.79   -226.18169    487.10641    78.721752    22.546146    25.511446 
   72600    240.83386   -516.89805    216009.12   -18597.391    1400.5838   -19997.975   -1582.7144    489.45047    78.719561    22.546013     25.51185 
   72800    241.25574   -260.36582    216009.12   -18644.553    1403.0373   -20047.591   -521.36867    489.25811    78.717556    22.550011    25.491019 
   73000    235.75276   -451.64732    216009.12   -18666.491    1371.0344   -20037.525   -1341.9929    491.51613    78.718012    22.550535    25.481108 
   73200    239.25074   -153.91663    216009.12   -18555.252    1391.3771    -19946.63   -58.472207    492.68108    78.717296    22.551893     25.47999 
   73400    238.31497   -329.84892    216009.12   -18549.942    1385.9351   -19935.877   -811.22555    493.02774    78.715558    22.551183    25.489461 
   73600    242.29659   -316.69052    216009.12   -18558.724    1409.0905   -19967.814   -791.86621      494.166    78.716392    22.550902    25.485675 
   73800    227.30492    -365.4256    216009.12   -18666.991    1321.9055   -19988.896   -976.90421    497.78298    78.717533    22.550569    25.477502 
   74000    237.72544   -221.61973    216009.12   -18650.894    1382.5066   -20033.401   -394.37404    497.54128    78.716454    22.549746    25.496534 
   74200    239.50415   -217.71864    216009.12   -18583.145    1392.8508   -19975.996   -355.59262    499.25505    78.716791    22.548519    25.522066 
   74400     239.9445   -443.75707    216009.12   -18597.729    1395.4117    -19993.14   -1291.1242    500.40279    78.716521    22.548649    25.527698 
   74600     241.1795   -370.06207    216009.12   -18669.177    1402.5939   -20071.771   -1017.9394    500.18465    78.717018    22.547515    25.546356 
   74800    233.91764   -339.71671    216009.12   -18653.009    1360.3621   -20013.371   -919.28797    500.95308    78.716665    22.547692    25.547525 
   75000    236.95408   -314.33244    216009.12   -18696.177    1378.0207   -20074.198   -783.14679    504.43189    78.717083    22.545364    25.558115 
   75200    241.31309   -157.27515    216009.12   -18649.759    1403.3708    -20053.13   -82.036322    506.18221    78.715312    22.543876    25.592131 
   75400    242.12552   -137.25995    216009.12     -18677.4    1408.0956   -20085.496   -24.670692    503.61205    78.711533    22.543211    25.603883 
   75600     237.1095   -401.01669    216009.12   -18656.509    1378.9246   -20035.434    -1110.066    506.03641    78.710842    22.543727    25.590071 
   75800    245.64846   -254.68529    216009.12    -18606.14    1428.5834   -20034.724   -487.25253    506.16462    78.707849    22.541339    25.595576 
   76000    244.69358     -276.783    216009.12   -18615.052    1423.0303   -20038.082   -600.32859     509.1255    78.706366    22.541933    25.593662 
   76200    231.85729   -422.75517    216009.12   -18703.709      1348.38   -20052.089   -1228.7954    510.11858    78.705309    22.540972    25.564485 
   76400    235.24027   -264.92503    216009.12   -18659.227     1368.054   -20027.281   -564.89354    507.47361    78.704267     22.54066    25.552585 
   76600    243.69685   -292.94509    216009.12   -18626.388    1417.2337   -20043.622   -660.50145    510.37209    78.703752    22.542201      25.5552 
   76800    240.31131   -170.12257    216009.12   -18654.543     1397.545   -20052.088   -168.04221    510.53065    78.702394    22.543771    25.544746 
   77000    242.32752    -177.4482    216009.12   -18632.321    1409.2704   -20041.591   -163.08485    512.39752    78.702072     22.54363    25.532779 
   77200    245.99976   -179.57314    216009.12   -18593.696    1430.6265   -20024.322   -206.14786    511.87151    78.702563    22.543675    25.530526 
   77400    238.88197   -162.77068    216009.12   -18606.935    1389.2325   -19996.168   -140.44318    510.92227    78.699628    22.544843    25.507307 
   77600    234.53093   -350.80777    216009.12    -18628.61    1363.9288   -19992.539    -927.4936    511.53854    78.697259    22.542747     25.54579 
   77800    248.67024   -276.18534    216009.12   -18585.459    1446.1568   -20031.615   -564.19325    511.91709    78.696341    22.542857    25.534092 
   78000     237.2076   -355.91881    216009.12   -18654.205    1379.4951     -20033.7   -954.62112    511.79451    78.694743    22.540629    25.520791 
   78200    240.48086   -455.79692    216009.12   -18593.164     1398.531   -19991.695   -1367.8338    513.56043    78.696126     22.53992    25.514078 
   78400    241.41635   -310.67688    216009.12   -18615.603    1403.9714   -20019.575    -763.3434    513.50553    78.695771    22.543042    25.524432 
   78600    240.57084   -182.97587    216009.12   -18601.533    1399.0543   -20000.587    -160.5579    514.25575    78.694593    22.544974    25.497444 
   78800    230.30141   -527.73507    216009.12    -18606.06    1339.3318   -19945.392   -1648.3416    518.00622    78.694246    22.546026    25.497079 
   79000    242.43448   -374.21069    216009.12   -18544.138    1409.8924    -19954.03   -1055.1944    516.41807    78.695794     22.54656    25.525824 
   79200     236.2071   -361.10039    216009.12   -18540.733    1373.6767   -19914.409   -933.05325    518.66678    78.696316    22.548982    25.514138 
   79400    246.51523   -179.10778    216009.12   -18524.325    1433.6242   -19957.949   -196.57174    518.41206    78.696278    22.548219     25.50103 
   79600     239.4871   -314.85841    216009.12   -18622.079    1392.7517    -20014.83   -712.84588    517.87439    78.694461     22.54793    25.484071 
   79800    238.90557   -364.90698    216009.12   -18602.441    1389.3698   -19991.811   -974.81857    517.20056    78.692843    22.548889    25.463633 
   80000    227.44685   -404.94707    216009.12   -18623.304    1322.7309   -19946.035   -1133.4515    517.90956    78.692808    22.549194    25.470826 
   80200    242.03398   -106.77102    216009.12   -18607.358    1407.5632   -20014.922    118.49799    519.21926    78.694806    22.548748     25.46545 
   80400    234.89604   -330.21594    216009.12   -18617.741    1366.0521   -19983.793   -852.73656    521.89742    78.697549    22.549753    25.472176 
   80600    242.47873   -229.24109    216009.12   -18591.787    1410.1497   -20001.937   -370.03944    519.61482    78.697772    22.550032    25.466422 
   80800     236.5114   -237.94896    216009.12   -18613.677    1375.4463   -19989.123   -426.92354    519.37572    78.697762    22.547993    25.467077 
   81000    243.42475   -324.44049    216009.12   -18594.279    1415.6513    -20009.93   -777.36036    521.92519     78.69668    22.546235    25.467192 
   81200    235.18096    -343.0698    216009.12   -18613.855    1367.7091   -19981.564   -880.13473    523.06781    78.698571    22.545747    25.458556 
   81400    238.01895   -272.04664    216009.12   -18602.562    1384.2136   -19986.775   -566.67858    523.52612    78.698835    22.544346      25.4652 
   81600    235.77003   -346.77567    216009.12   -18647.587    1371.1349   -20018.722   -850.46632     525.9752    78.698302    22.546215    25.425727 
   81800    230.38818   -561.64844    216009.12   -18728.125    1339.8364   -20067.961   -1810.5431    525.35347    78.700649    22.544754    25.435478 
   82000    241.10968   -267.86673    216009.12   -18638.601    1402.1879   -20040.789   -575.01081    523.37013    78.700675    22.546272    25.447547 
   82200    243.52474   -252.00059    216009.12   -18606.676    1416.2329   -20022.909   -507.34562    524.68266    78.701407    22.547065    25.449507 
   82400    243.01712   -355.12523    216009.12   -18631.834    1413.2807   -20045.114   -912.04141     526.7064    78.700599    22.545354    25.448904 
   82600    243.69687    -227.1475    216009.12   -18577.849    1417.2339   -19995.082   -353.73482    527.46543    78.698854    22.544413     25.47196 
   82800    234.10299   -133.71537    216009.12   -18652.257    1361.4401   -20013.697   -2.7599063    528.09059     78.69695    22.544704    25.450855 
   83000    243.80824   -362.99478    216009.12    -18567.03    1417.8815   -19984.912   -943.64401    527.52118    78.695098    22.545549    25.435635 
   83200    241.84926   -431.29107    216009.12   -18577.507     1406.489   -19983.996   -1264.7236    530.54696    78.694596    22.545867     25.41711 
   83400    237.14604   -129.27013    216009.12   -18632.463    1379.1371     -20011.6    62.267806    530.28574    78.695098     22.54707     25.44413 
   83600     234.7414   -395.36888    216009.12     -18686.5    1365.1528   -20051.653   -1110.8679    532.59468    78.697096    22.547675    25.443972 
   83800    241.49867   -265.86422    216009.12   -18644.041    1404.4501   -20048.491   -582.85571    531.83092    78.693823    22.546105    25.435058 
   84000    242.82634   -319.84961    216009.12   -18583.664    1412.1712   -19995.835   -767.02893    531.40082     78.69512    22.548931    25.423229 
   84200     242.7036   -272.99056    216009.12   -18590.003    1411.4574    -20001.46   -549.65651    532.29112    78.692771    22.552721    25.439258 
   84400    234.73204   -449.70862    216009.12   -18601.808    1365.0984   -19966.906   -1367.2059     532.5547    78.693015     22.55442    25.480338 
   84600    241.87192   -367.26303    216009.12   -18551.669    1406.6208   -19958.289   -1043.6919    533.68857    78.693845    22.554601    25.475193 
   84800    242.07428   -415.51697    216009.12   -18589.702    1407.7976     -19997.5   -1256.7384    537.95285    78.694861    22.555759    25.452901 
   85000     232.9528   -409.83499    216009.12   -18589.688    1354.7511   -19944.439   -1146.5293     538.2183    78.695175    22.556197    25.443201 
   85200    243.01761   -270.10804    216009.12   -18632.961    1413.2836   -20046.244   -565.64642    539.29392    78.693994     22.55572    25.439646 
   85400    232.04186      -290.57    216009.12   -18665.888    1349.4534   -20015.342   -626.17798    541.00636    78.694518    22.556106    25.436709 
   85600    232.97413   -210.72946    216009.12   -18627.921    1354.8751   -19982.796   -322.50887    541.74595    78.692921    22.554904    25.425467 
   85800    249.14203   -350.56777    216009.12   -18525.607    1448.9005   -19974.508   -908.63722    546.09022     78.69138    22.554589    25.436136 
   86000    241.31448   -362.26498    216009.12    -18581.16    1403.3789   -19984.539   -978.22639      548.551    78.689474     22.55499    25.445718 
   86200    243.97834   -415.57241    216009.12   -18562.117    1418.8708   -19980.987   -1150.9624    552.51985    78.691557       22.556    25.434632 
   86400    236.31438   -301.11871    216009.12   -18643.221    1374.3006   -20017.521   -671.78742    555.79684     78.69065    22.555849    25.440428 
   86600    243.44358   -147.47365    216009.12    -18562.22    1415.7609   -19977.981   -11.449227     557.6814    78.689377     22.55632    25.456573 
   86800    237.46986   -219.30264    216009.12   -18633.311    1381.0203   -20014.331   -375.98903    557.01799    78.689893     22.55852    25.480938 
   87000    238.40422    -417.6171    216009.12   -18602.791    1386.4541   -19989.245   -1214.8929    556.37273    78.690816    22.558438     25.47051 
   87200    241.13781   -428.68408    216009.12   -18597.229    1402.3515   -19999.581   -1260.5741    556.09169    78.690316    22.557989    25.484249 
   87400    236.39416   -196.78434    216009.12   -18602.704    1374.7645   -19977.469   -314.36935    555.38064    78.691441    22.557558    25.479127 
   87600    235.84587   -335.39921    216009.12   -18559.986    1371.5759   -19931.562   -896.36231    557.07859    78.694656    22.557133    25.467737 
   87800    233.46013    -349.9426    216009.12    -18572.23    1357.7015   -19929.932   -877.97965     559.0704    78.694924    22.558322    25.481052 
   88000    236.25085   -373.98919    216009.12   -18513.044    1373.9311   -19886.975   -1022.8776    558.62508    78.695907    22.561441    25.478505 
   88200     237.4058    -340.1195    216009.12   -18590.825    1380.6478   -19971.473   -885.35024    558.51398     78.69653     22.56317    25.492094 
   88400    247.86591   -399.33607    216009.12   -18561.492    1441.4791   -20002.971   -1160.9304    560.02286    78.695108    22.561661    25.487479 
   88600    239.07057   -234.50597    216009.12   -18570.582    1390.3293   -19960.911   -393.91197    562.03198    78.695072    22.561687    25.462908 
   88800    238.81116   -118.78017    216009.12   -18656.986    1388.8207   -20045.807    1.4025149    560.81024    78.693824     22.56178     25.45877 
   89000    241.35637   -392.59792    216009.12   -18574.087    1403.6226    -19977.71   -1088.5425    562.65119    78.696759    22.562483    25.468073 
   89200    243.56678   -433.94843    216009.12   -18557.302    1416.4773   -19973.779   -1299.6642    564.06132    78.696577    22.562075    25.474339 
   89400    239.08003   -368.16998    216009.12   -18579.511    1390.3844   -19969.896   -976.08313    568.01887    78.694955    22.562574    25.475437 
   89600    235.12451   -322.57863    216009.12    -18694.14    1367.3808    -20061.52   -835.47068    570.42061    78.695309    22.562437    25.465485 
   89800    241.95934   -391.93547    216009.12    -18586.39    1407.1292    -19993.52   -1073.8827    573.13611    78.694693    22.565084    25.446871 
   90000    244.93024   -339.46832    216009.12   -18623.679    1424.4066   -20048.085   -881.13753    573.52705    78.694832    22.565549    25.442425 
   90200    233.87038   -340.15123    216009.12   -18644.141    1360.0873   -20004.228   -902.76864    575.49256    78.695475    22.565962     25.45215 
   90400    235.12995   -484.50256    216009.12   -18587.778    1367.4125   -19955.191   -1494.6858     576.9502    78.694981    22.564996    25.438601 
   90600    239.92237   -265.71581    216009.12   -18617.043     1395.283   -20012.326   -561.62261    575.46347    78.695087    22.566174    25.421617 
   90800    238.77276   -310.42622    216009.12   -18632.132    1388.5974   -20020.729   -724.15797    578.11918    78.690778    22.567722    25.414982 
   91000    238.69033   -294.45926    216009.12   -18645.226     1388.118   -20033.344   -655.71911    579.12817    78.691149    22.569485    25.425212 
   91200    236.73445   -231.21689    216009.12   -18714.114    1376.7435   -20090.858   -402.58377    579.77269    78.691731    22.570538    25.421886 
   91400    243.72021   -364.41642    216009.12   -18619.192    1417.3696   -20036.562   -970.80178    580.00713    78.692622    22.570521    25.428993 
   91600    246.87483   -339.59676    216009.12   -18519.459    1435.7155   -19955.175    -855.1686    578.35754    78.692023    22.569614    25.419469 
   91800    238.19653   -314.27231    216009.12    -18537.48    1385.2463   -19922.726   -745.16554    578.75301     78.69351    22.569324    25.425931 
   92000    237.26856   -257.35217    216009.12   -18527.945    1379.8496   -19907.794   -544.03289    577.13684    78.694245    22.568877    25.414512 
   92200    241.98954   -348.51662    216009.12   -18567.369    1407.3048   -19974.673   -898.72478    577.23773    78.695157    22.568831    25.439083 
   92400     246.3778   -306.76936    216009.12   -18529.884     1432.825   -19962.709   -705.80889    578.95569    78.698293     22.56764    25.432085 
   92600    244.65021   -183.53182    216009.12   -18487.362    1422.7781    -19910.14   -209.26662    578.11899    78.700455    22.567122    25.440324 
   92800    240.83897   -264.00772    216009.12    -18575.56    1400.6136   -19976.173   -562.00827    579.90138    78.699028    22.568004    25.429374 
   93000    239.73791   -366.23198    216009.12   -18599.937    1394.2103   -19994.147    -982.5287    581.36161    78.701647    22.569059    25.453296 
   93200    238.33542   -299.89661    216009.12   -18600.384     1386.054   -19986.438   -710.08466    584.34257    78.704785    22.567912    25.465774 
   93400    233.80811   -231.71917    216009.12   -18686.331    1359.7252   -20046.056   -385.43496    584.71136    78.707176    22.568108     25.45869 
   93600    233.61405   -384.42145    216009.12   -18609.594    1358.5966   -19968.191   -1049.8615    585.57201    78.706864      22.5661    25.453257 
   93800    243.18127   -294.74497    216009.12   -18615.396    1414.2354   -20029.632   -607.03577    586.91754    78.705607    22.564285    25.458485 
   94000     242.4924   -397.42519    216009.12   -18647.572    1410.2292   -20057.802   -1107.3848     586.8057    78.706825    22.564029    25.465092 
   94200    241.64615   -383.34427    216009.12    -18587.25    1405.3078   -19992.557    -1110.129     588.1219    78.707515    22.560457    25.488785 
   94400    237.70478   -332.48409    216009.12   -18606.771    1382.3865   -19989.157   -829.81236     588.9163     78.70688     22.55813    25.491521 
   94600    236.03128   -367.88681    216009.12   -18621.306    1372.6542    -19993.96    -987.2105    590.72633     78.70544     22.55708    25.515713 
   94800     235.5363    -429.0547    216009.12   -18622.447    1369.7756   -19992.223   -1191.1894    590.04853    78.705187    22.556293    25.521668 
   95000    238.24528   -348.39679    216009.12   -18633.564    1385.5298   -20019.094   -868.53923    590.79803    78.705542    22.557103    25.518093 
   95200    239.94174   -285.41327    216009.12   -18614.214    1395.3957    -20009.61    -662.3993    592.33163    78.704969    22.557935    25.512389 
   95400    238.37213   -328.02926    216009.12   -18589.982    1386.2675    -19976.25   -818.61742    591.21773     78.70498    22.555608    25.530187 
   95600    236.54988   -267.61811    216009.12   -18608.861    1375.6701   -19984.531   -569.79321    594.50339    78.702763     22.55774    25.545277 
   95800     245.2056   -272.96542    216009.12   -18585.745     1426.008   -20011.753   -659.42273    593.59135     78.70563    22.559186    25.554625 
   96000    235.18817    -227.4078    216009.12   -18557.855     1367.751   -19925.606   -384.94399    594.60473    78.707107    22.560863    25.529523 
   96200    243.81273   -328.61068    216009.12   -18515.875    1417.9077   -19933.783   -827.08118    595.11912    78.709095    22.560614    25.534706 
   96400     242.5455   -139.03545    216009.12   -18544.347     1410.538   -19954.885    29.976534    596.12417    78.710277    22.559497    25.519551 
   96600    238.16441   -278.92761    216009.12   -18594.086    1385.0595   -19979.145   -591.36669    597.79657    78.710554    22.560326     25.53422 
   96800     235.2727   -541.03466    216009.12   -18573.147    1368.2426    -19941.39   -1728.3252    600.55546    78.710887    22.561214    25.533433 
   97000    240.29613   -275.91811    216009.12   -18656.589    1397.4566   -20054.045   -586.94546    601.08522    78.711976    22.559782    25.536991 
   97200    238.61176   -322.01529    216009.12   -18619.645    1387.6611   -20007.306   -739.10397    601.81819    78.709038    22.558175    25.538001 
   97400    236.19197   -262.89621    216009.12   -18613.866    1373.5887   -19987.454    -563.4971    602.70231    78.708418    22.560781    25.534305 
   97600     248.3698   -379.21231    216009.12   -18526.745    1444.4096   -19971.155   -1029.9468    605.33817    78.708834    22.561441    25.520741 
   97800    237.95277   -258.70147    216009.12   -18567.621    1383.8287    -19951.45   -520.19119    607.20535    78.709138     22.56278    25.544593 
   98000    249.98891   -230.65228    216009.12   -18595.441    1453.8256   -20049.266   -431.47264    607.57134    78.706705    22.564233    25.519106 
   98200     238.7572   -317.97034    216009.12   -18612.582    1388.5069   -20001.089   -790.01731    607.27079     78.70675    22.566859    25.537798 
   98400     243.4876   -269.96712    216009.12   -18586.599    1416.0168   -20002.616   -596.59752    608.05531    78.707844    22.567465    25.542777 
   98600    235.63563   -353.20642    216009.12   -18564.205    1370.3533   -19934.558   -928.29788    607.39841    78.706864    22.567676    25.519919 
   98800    239.48916   -358.69681    216009.12   -18532.984    1392.7637   -19925.748   -996.10317    610.62138    78.705186    22.568085    25.495564 
   99000    241.58848   -363.87611    216009.12   -18587.305    1404.9724   -19992.277   -1006.9544     609.9136    78.705163    22.570397    25.486712 
   99200    239.24391   -433.15266    216009.12   -18582.498    1391.3374   -19973.835    -1347.419    610.30948    78.704438    22.569684    25.513226 
   99400    231.23446   -278.37093    216009.12   -18607.989     1344.758   -19952.747   -625.91735    612.67837    78.705556    22.570283    25.504199 
   99600    241.40815   -271.51789    216009.12   -18558.938    1403.9237   -19962.862   -585.59379    616.01547     78.70616    22.569195     25.51416 
   99800    234.76154   -338.58914    216009.12   -18612.783    1365.2699   -19978.053   -886.28668    615.74043    78.708767    22.570029    25.520846 
  100000    241.20996   -305.02087    216009.12   -18614.774    1402.7711   -20017.545   -701.01723    619.65583    78.708001    22.569462    25.518788 
  100200    234.80636   -232.90449    216009.12   -18681.854    1365.5306   -20047.384    -398.8268    618.65388    78.709415    22.571089    25.506579 
  100400    238.93204   -436.83688    216009.12   -18586.101    1389.5237   -19975.625   -1314.9153    622.51202    78.710647    22.571449    25.494975 
  100600    232.71612    -116.1847    216009.12   -18598.389    1353.3746   -19951.764    55.652113    622.84215    78.713145    22.573252    25.476636 
  100800    233.17696   -307.54458    216009.12   -18610.029    1356.0547   -19966.083   -762.66891    622.35419    78.712391    22.573767    25.473409 
[...]
 5175800    224.44953   -664.56223    216009.12   -20603.348    1305.2998   -21908.648   -2196.0766    8820.1954    78.010349    21.530661    25.387269 
 5176000    219.65226   -593.56034    216009.12   -20594.806     1277.401   -21872.207   -1892.1251    8819.8737     78.01035    21.530034    25.393664 
 5176200    221.42255    -680.1078    216009.12   -20604.408    1287.6962   -21892.105   -2293.6132    8813.4321    78.009895    21.530797     25.39059 
 5176400    222.43807   -691.78105    216009.12    -20626.16     1293.602   -21919.762   -2301.3116    8818.2654    78.009231    21.530964    25.389127 
 5176600    230.79183   -693.93531    216009.12   -20590.933    1342.1838   -21933.117   -2361.9048    8821.8091    78.009164    21.532128    25.389851 
 5176800     227.2745    -579.0217    216009.12   -20561.479    1321.7286   -21883.207   -1830.2775    8816.6249    78.011183    21.533177    25.390642 
 5177000    230.67384   -632.28549    216009.12   -20564.436    1341.4977   -21905.934   -2032.7932    8818.6348    78.009994    21.534282    25.389436 
 5177200    225.32276   -693.25229    216009.12   -20583.247    1310.3781   -21893.625   -2301.5816    8822.7545    78.010561    21.534941    25.387959 
 5177400    228.73212   -574.85521    216009.12   -20606.464    1330.2055   -21936.669   -1847.1761    8816.5918    78.010538    21.534705    25.391682 
 5177600    231.64699   -728.21614    216009.12   -20548.235     1347.157   -21895.393   -2474.3998    8817.8515    78.009583    21.535046    25.390349 
 5177800    224.11334   -628.66029    216009.12   -20592.001    1303.3447   -21895.346   -2008.8619    8820.9024    78.009953    21.534821    25.389053 
 5178000    228.75431   -601.73495    216009.12   -20612.177    1330.3345   -21942.512   -1953.3582    8816.5094    78.009803    21.534543    25.392631 
 5178200    224.71916    -692.6828    216009.12    -20610.41    1306.8679   -21917.278    -2314.432    8818.0208    78.008863    21.533683    25.389015 
 5178400    228.74725   -712.39455    216009.12    -20623.81    1330.2934   -21954.103   -2398.9697    8820.9755    78.008713    21.533758    25.386072 
 5178600    226.26757   -541.88258    216009.12   -20616.986    1315.8727   -21932.858   -1650.6507    8816.0345     78.01012    21.533153    25.388311 
 5178800    233.30497   -673.48031    216009.12   -20565.977    1356.7992   -21922.777   -2252.8459    8817.1123    78.009143     21.53256    25.391715 
 5179000     224.4845   -632.20094    216009.12   -20594.829    1305.5032   -21900.332   -2033.9933    8820.4435    78.009412    21.531449    25.393801 
 5179200      232.873   -615.18084    216009.12   -20569.308     1354.287   -21923.595   -2014.9056    8817.3897    78.009074    21.531717    25.389732 
 5179400    230.12032   -648.99557    216009.12   -20641.617    1338.2786   -21979.895     -2148.96    8816.7042    78.008647    21.532892    25.382859 
 5179600    233.23204    -677.1007    216009.12    -20525.85     1356.375   -21882.225   -2273.3175    8819.7124    78.008767    21.533281    25.392598 
 5179800    229.73431   -684.64199    216009.12   -20580.807    1336.0337   -21916.841   -2268.0461    8816.6665    78.008178    21.532632    25.388207 
 5180000    219.81382   -711.87498    216009.12   -20602.999    1278.3405    -21881.34   -2394.8525    8815.9894    78.007462    21.534574    25.382495 
 5180200    222.45765   -690.08524    216009.12    -20676.66    1293.7159   -21970.375   -2329.9747    8818.4914     78.00753    21.534179    25.386774 
 5180400    223.65102   -637.78668    216009.12   -20644.469     1300.656   -21945.125   -2104.2351    8818.4911     78.00714    21.535714    25.385777 
 5180600    227.98164   -626.83727    216009.12   -20588.728     1325.841   -21914.569   -2045.1027    8817.3407    78.006077    21.535353    25.388149 
 5180800    226.94694   -636.58363    216009.12   -20570.332    1319.8236   -21890.156   -2081.6443    8819.9136    78.005268    21.536566    25.384405 
 5181000    227.74699   -631.92721    216009.12   -20611.778    1324.4764   -21936.255   -2051.1235    8818.6951     78.00562      21.5382    25.390236 
 5181200    225.84758   -704.58118    216009.12   -20615.785    1313.4302   -21929.216   -2387.1711    8815.6379    78.005481    21.538799    25.384754 
 5181400    223.64618   -666.30816    216009.12   -20663.184    1300.6279   -21963.812   -2227.7114    8818.0104    78.003082    21.540258    25.384367 
 5181600    231.21732   -602.97111    216009.12   -20593.488    1344.6583   -21938.146   -1992.8495    8819.3198    78.004124    21.540791    25.384237 
 5181800    227.98181   -606.64966    216009.12   -20673.786     1325.842   -21999.628   -1956.8373    8817.2232    78.004629    21.541676    25.388704 
 5182000    224.53689    -641.6647    216009.12   -20593.522    1305.8078    -21899.33   -2065.4243    8818.9991    78.003128    21.542638    25.386646 
 5182200     227.7311   -615.36213    216009.12   -20592.506     1324.384    -21916.89   -2003.2353    8820.0206    78.004569    21.542757    25.382368 
 5182400    231.72544   -643.70407    216009.12   -20579.963    1347.6133   -21927.577   -2064.8733    8816.4255    78.005331    21.542866    25.384706 
 5182600    222.44069   -639.26634    216009.12   -20667.463    1293.6173    -21961.08   -2066.5136    8817.3223    78.004297    21.543185    25.386745 
 5182800    226.00346   -720.90797    216009.12   -20606.295    1314.3367   -21920.632   -2490.4029    8819.9919    78.004539    21.543397    25.385597 
 5183000    227.87811   -696.44112    216009.12   -20603.054    1325.2389   -21928.293   -2334.0037    8818.4529    78.005292    21.543266    25.385093 
 5183200    229.93995    -654.1385    216009.12   -20560.108    1337.2297   -21897.337   -2174.2521    8817.3775    78.005211    21.543381    25.383517 
 5183400    231.97723   -651.69738    216009.12   -20566.708    1349.0776   -21915.786   -2134.3332    8819.0021    78.005336     21.54369    25.386393 
 5183600      225.868   -624.00621    216009.12   -20647.578     1313.549   -21961.127   -2023.7707    8817.8316    78.006203    21.544429    25.391807 
 5183800    218.90176   -639.76258    216009.12   -20672.477    1273.0364   -21945.513   -2105.2663    8815.5297    78.004992    21.545171    25.388866 
 5184000    220.79589   -675.30372    216009.12   -20673.593    1284.0518   -21957.645   -2241.6048    8820.7184    78.005009    21.546394    25.387911 
 5184200     235.6537    -603.6057    216009.12   -20560.688    1370.4583   -21931.147   -1928.5001    8817.9862    78.006512    21.546348    25.392597 
 5184400    221.70334   -599.95539    216009.12   -20623.117    1289.3292   -21912.446   -1931.4825     8815.297    78.005778    21.547022    25.388689 
 5184600     229.8971   -636.53101    216009.12   -20563.817    1336.9804   -21900.798    -2094.418    8821.4483    78.005804    21.547674    25.389733 
 5184800    227.52756   -656.59947    216009.12   -20614.041    1323.2003   -21937.241   -2156.5465    8817.9422    78.007668    21.548526    25.391389 
 5185000    228.05728   -656.41278    216009.12   -20628.745    1326.2809   -21955.026   -2158.7392    8816.3026    78.006127    21.548023    25.392495 
 5185200    230.26763   -683.09838    216009.12   -20610.692    1339.1353   -21949.827    -2251.273    8821.3373    78.005873    21.548707    25.391939 
 5185400    221.76514   -656.40845    216009.12   -20641.197    1289.6886   -21930.886   -2163.5605    8818.9887     78.00602    21.549089    25.390768 
 5185600    229.36318   -652.21187    216009.12   -20614.455    1333.8754    -21948.33   -2134.2304    8816.9224    78.004775    21.549781    25.390445 
 5185800    223.72959   -679.62756    216009.12   -20618.568    1301.1129   -21919.681   -2263.1989    8817.6181    78.004457    21.549689     25.39167 
 5186000    230.57316    -691.1416    216009.12   -20574.025    1340.9121   -21914.937   -2320.1934    8821.7282    78.004796    21.549975    25.386324 
 5186200    226.79715   -648.26982    216009.12   -20585.233    1318.9525   -21904.185   -2100.1135    8818.3589    78.004187    21.550894    25.392514 
 5186400    226.18635    -603.1501    216009.12   -20594.493    1315.4004   -21909.894   -1943.0332     8817.586    78.003505    21.552054    25.386832 
 5186600    228.51631   -669.36482    216009.12   -20593.284    1328.9504   -21922.234   -2187.4363     8820.276    78.004662    21.551582    25.389353 
 5186800     221.5276   -615.57709    216009.12    -20582.23    1288.3071   -21870.537   -1971.4743    8817.9346    78.005309    21.551105    25.386404 
 5187000    229.51822   -639.07525    216009.12   -20607.791    1334.7771   -21942.568   -2090.0407     8814.239    78.005868    21.549931    25.388223 
 5187200    234.12946   -724.73968    216009.12   -20573.195     1361.594   -21934.789    -2436.304    8819.6838    78.005739     21.54972    25.394507 
 5187400    224.76533   -639.77766    216009.12   -20582.126    1307.1363   -21889.262    -2081.053    8816.8055    78.006272    21.549931     25.39028 
 5187600     220.0543   -641.69972    216009.12   -20621.769    1279.7391   -21901.508   -2065.6016     8816.659    78.006434    21.551017    25.389396 
 5187800    224.21907   -735.12639    216009.12   -20571.712    1303.9595   -21875.671   -2503.6008     8819.597    78.007246    21.549733    25.397539 
 5188000    224.00417   -630.73322    216009.12   -20600.325    1302.7098   -21903.034   -2053.8106    8818.0972    78.007292    21.549674    25.392703 
 5188200    231.81595   -671.17573    216009.12   -20558.291    1348.1396   -21906.431   -2241.2872    8815.7696    78.006974    21.550393    25.395249 
 5188400    225.64106   -729.69398    216009.12   -20583.547    1312.2292   -21895.776   -2464.5838    8819.0435    78.006897    21.551558    25.397634 
 5188600    232.79216   -688.97813    216009.12   -20585.118    1353.8168   -21938.935   -2302.8634    8818.7653    78.006631     21.55133    25.397973 
 5188800    220.21486   -641.57183    216009.12   -20631.313    1280.6728   -21911.986   -2115.2369     8817.026    78.005764    21.551172    25.399553 
 5189000    221.05215   -687.67575    216009.12   -20623.337    1285.5422   -21908.879   -2300.7522    8820.2425    78.005867    21.552543    25.397388 
 5189200    224.81658   -654.95184    216009.12   -20620.526    1307.4344   -21927.961   -2080.0988    8820.1439    78.006575     21.55172    25.395112 
 5189400    220.22565   -563.28542    216009.12    -20676.76    1280.7356   -21957.495   -1740.3399    8817.7497    78.006672     21.55253    25.394839 
 5189600    224.75381   -608.79666    216009.12   -20627.453    1307.0694   -21934.522   -1938.8449    8817.6776    78.005636    21.551026    25.388278 
 5189800    229.99211   -575.46936    216009.12   -20580.557     1337.533    -21918.09   -1837.5672     8819.791    78.006008    21.550682    25.387077 
 5190000    229.34429    -615.5136    216009.12   -20616.481    1333.7656   -21950.246   -2014.8812    8819.9556    78.005905    21.552172    25.389919 
 5190200    228.21763   -655.66106    216009.12   -20592.526    1327.2134    -21919.74   -2148.9542     8818.303    78.005519    21.551384    25.390695 
 5190400    226.44606   -638.99275    216009.12   -20610.091    1316.9108   -21927.002   -2108.8553    8819.1675    78.006031    21.551867    25.389172 
 5190600    232.48836   -635.40478    216009.12   -20544.323    1352.0501   -21896.373   -2042.8006    8820.0113     78.00703    21.552514    25.390899 
 5190800     225.3946   -728.22341    216009.12    -20616.31    1310.7959   -21927.106   -2477.5585    8816.7746    78.006311    21.552929    25.389811 
 5191000    227.30238   -642.16977    216009.12   -20594.593    1321.8907   -21916.484   -2090.1852    8819.6106    78.006592    21.553243    25.387407 
 5191200    228.85802   -677.60577    216009.12   -20580.799    1330.9377   -21911.736   -2243.1685    8819.0514    78.006365     21.55372    25.384988 
 5191400    231.63777   -663.66557    216009.12   -20611.668    1347.1034   -21958.772   -2191.7273    8818.0765    78.006749    21.554784    25.388629 
 5191600    220.80378   -644.91065    216009.12   -20621.864    1284.0977   -21905.962   -2147.6005    8819.1184    78.007281    21.556439    25.386266 
 5191800    226.24243   -688.67479    216009.12   -20618.485    1315.7265   -21934.211   -2329.4822     8818.251    78.007082    21.557361    25.388895 
 5192000    228.24653   -636.03786    216009.12   -20555.501    1327.3815   -21882.883   -2101.2586    8818.3763    78.006397    21.559134    25.391845 
 5192200    235.19485   -627.98086    216009.12   -20530.161    1367.7899    -21897.95   -2038.7221      8818.19     78.00699    21.560041    25.392389 
 5192400     225.6986   -608.07743    216009.12   -20602.827    1312.5638   -21915.391   -1969.3451    8819.3204    78.006948    21.560409    25.395258 
 5192600    224.39375   -643.85231    216009.12   -20591.121    1304.9754   -21896.096   -2101.4419    8816.3472    78.006696     21.56053    25.394088 
 5192800    226.24726   -717.57989    216009.12   -20607.824    1315.7546   -21923.578   -2435.3435    8818.5549    78.007057    21.560518    25.399832 
 5193000    227.32175   -539.97089    216009.12   -20583.079    1322.0034   -21905.082   -1691.8073    8818.0421    78.007712    21.560443    25.393895 
 5193200    223.31617    -637.0075    216009.12   -20656.153    1298.7087   -21954.861   -2071.0052    8817.3147    78.008035    21.562216    25.389869 
 5193400    226.41384   -651.07079    216009.12   -20578.118    1316.7234   -21894.841   -2109.6012    8819.3434    78.007752    21.563154    25.394488 
 5193600    224.40434   -536.67581    216009.12   -20606.282     1305.037   -21911.319   -1638.8426    8818.5539    78.007627    21.564199    25.395517 
 5193800    224.94207   -673.50156    216009.12   -20588.411    1308.1642   -21896.576   -2208.4666    8817.4466    78.007677    21.565683    25.388529 
 5194000    226.24667   -740.10719    216009.12   -20569.672    1315.7512   -21885.423   -2538.3653    8818.7708    78.007948    21.565049    25.388963 
 5194200    218.31872   -641.64839    216009.12   -20653.198    1269.6457   -21922.843   -2109.6583    8820.0449    78.008849    21.565374    25.386873 
 5194400    221.38407    -670.5056    216009.12   -20633.728    1287.4724   -21921.201   -2220.4726    8818.0617     78.00833    21.565355    25.394524 
 5194600     224.1694   -699.03041    216009.12   -20594.265    1303.6707   -21897.936     -2359.52    8816.4152     78.00756    21.566376    25.396616 
 5194800    230.62821   -690.73918    216009.12   -20553.683    1341.2323   -21894.915   -2295.3749    8820.1341    78.007064    21.565564    25.397561 
 5195000    230.35594   -651.98659    216009.12   -20611.563    1339.6489   -21951.212   -2165.8369    8818.4882    78.008302     21.56594    25.395817 
 5195200    226.57828   -711.28677    216009.12   -20538.943    1317.6797   -21856.622   -2405.9022    8817.2333    78.008016    21.565751    25.387827 
 5195400     224.2441   -619.21885    216009.12   -20604.416    1304.1051   -21908.521     -1997.91     8816.427    78.008663    21.567135    25.383496 
 5195600    232.45852   -623.21432    216009.12   -20562.074    1351.8766   -21913.951   -2026.1202    8817.5307    78.008771    21.568212    25.385245 
 5195800    216.63489   -731.50255    216009.12   -20631.376    1259.8533   -21891.229   -2478.4918    8818.5438    78.008851    21.567952    25.385534 
 5196000    234.14396   -612.11294    216009.12   -20545.542    1361.6784    -21907.22    -1975.971    8816.6226    78.009524    21.568936    25.392511 
 5196200    227.08432   -617.83569    216009.12   -20575.451    1320.6226   -21896.073    -2000.366    8818.7428    78.010178    21.568969    25.392312 
 5196400    226.51182   -741.29116    216009.12   -20622.374    1317.2932   -21939.667   -2521.9755     8819.246    78.009957    21.569771    25.382657 
 5196600    231.10603   -625.07399    216009.12   -20585.111    1344.0111   -21929.122   -2025.2721    8815.7484    78.008096     21.57081    25.385662 
 5196800    225.52495   -587.11517    216009.12   -20603.641     1311.554   -21915.195   -1862.6421    8816.9442    78.007544    21.570737     25.38673 
 5197000    224.70643   -767.40999    216009.12   -20591.979    1306.7938   -21898.773   -2649.2452    8820.4033    78.008188       21.571    25.388841 
 5197200     232.9336   -655.47114    216009.12   -20571.889    1354.6394   -21926.529   -2164.4553    8817.3798    78.009146     21.57126     25.38971 
 5197400    225.92851   -649.26202    216009.12   -20621.643    1313.9009   -21935.544   -2127.9578    8817.2248    78.009618    21.572716    25.390453 
 5197600    224.44266   -734.73056    216009.12   -20626.048    1305.2599   -21931.307   -2525.6707    8817.5733    78.009586    21.573156    25.385363 
 5197800     225.9681   -652.32701    216009.12   -20634.014    1314.1311   -21948.145   -2172.1885     8818.589    78.009379    21.572146     25.38005 
 5198000    221.28196   -639.24833    216009.12   -20675.677    1286.8786   -21962.556   -2096.5407    8819.9199    78.008997    21.571889    25.376907 
 5198200    223.92698   -717.48552    216009.12   -20581.518    1302.2609   -21883.779   -2422.7858    8820.0421    78.009234    21.570935    25.387611 
 5198400    228.75042   -693.94582    216009.12   -20577.337    1330.3119   -21907.649   -2330.4106    8815.5996     78.00875    21.571631    25.391574 
 5198600    227.85457   -640.26702    216009.12   -20594.276     1325.102   -21919.378   -2076.1783    8817.4741    78.008946    21.570576     25.38768 
 5198800    221.01437   -698.93457    216009.12   -20668.748    1285.3224    -21954.07   -2327.4302    8820.7258    78.009611    21.570946    25.383889 
 5199000    224.85037    -679.9105    216009.12   -20636.363    1307.6309   -21943.993   -2239.4583    8816.9175     78.00864    21.572316    25.378729 
 5199200    233.84083   -587.50144    216009.12    -20538.05    1359.9155   -21897.966   -1890.2817     8817.603    78.009643     21.57243    25.383681 
 5199400    218.84808   -699.72014    216009.12   -20642.369    1272.7242   -21915.094    -2359.699     8820.492    78.009824    21.572627    25.383606 
 5199600    222.04136   -644.35647    216009.12   -20634.127    1291.2949   -21925.422   -2129.1996    8814.9197    78.009485    21.572794    25.379909 
 5199800    235.24685   -593.94459    216009.12   -20604.755    1368.0922   -21972.847   -1906.9125    8817.9223    78.009594    21.574275    25.387625 
 5200000    222.32515   -754.33115    216009.12   -20619.426    1292.9453   -21912.371   -2530.4419    8822.5592    78.010634    21.573015    25.384198 
Loop time of 7170.84 on 160 procs for 5200000 steps with 9248 atoms

Performance: 626.538 ns/day, 0.038 hours/ns, 725.159 timesteps/s
97.7% CPU use with 160 MPI tasks x no OpenMP threads

MPI task timing breakdown:
Section |  min time  |  avg time  |  max time  |%varavg| %total
---------------------------------------------------------------
Pair    | 0.23932    | 1431.1     | 5748.3     |5141.4 | 19.96
Neigh   | 0.31536    | 90.615     | 395.36     |1237.1 |  1.26
Comm    | 11.24      | 1795.6     | 5755.4     |4605.9 | 25.04
Output  | 89.787     | 89.868     | 91.7       |   1.6 |  1.25
Modify  | 199.84     | 3659.7     | 6970.1     |4766.4 | 51.04
Other   |            | 104        |            |       |  1.45

Nlocal:    57.8 ave 196 max 0 min
Histogram: 72 27 21 0 0 0 0 0 13 27
Nghost:    533.431 ave 905 max 0 min
Histogram: 20 4 0 8 8 32 34 13 26 15
Neighs:    0 ave 0 max 0 min
Histogram: 160 0 0 0 0 0 0 0 0 0
FullNghs:  5850.44 ave 23476 max 0 min
Histogram: 114 6 0 0 0 0 0 1 20 19

Total # of neighbors = 936070
Ave neighs/atom = 101.219
Neighbor list builds = 547273
Dangerous builds = 0
write_data 		${DIR}/data.${NAME}_run
write_data 		run_6/data.${NAME}_run
write_data 		run_6/data.ibeam_cooling_6_run
Total wall time: 1:59:46
