

### IMPORT ATOMS ###
read_data ../Box_Setup/data.Ibeam_240K
  orthogonal box = (0 0 0) to (157.504 40.4305 33.9212)
  10 by 4 by 4 MPI processor grid
  reading atoms ...
  9248 atoms
  reading velocities ...
  9248 velocities
group water type 2
1952 atoms in group water
group graphite type 1
7296 atoms in group graphite


# Define potential
#
pair_style          sw
pair_coeff * * MLC_e.sw C mW

# Add velocity/set timestep
#

fix		1 graphite setforce 0.0 0.0 0.0
velocity 	graphite set 0.0 0.0 0.0
velocity            water create ${START_TEMP} ${SEED} rot yes dist gaussian
velocity            water create 240 ${SEED} rot yes dist gaussian
velocity            water create 240 17234 rot yes dist gaussian
timestep            5.0

# Define output
#
compute 1 water msd
compute 2 water temp


thermo	            100
thermo_style custom step c_2 press vol etotal ke pe c_1[4] density

# Neighbor lists
#
neigh_modify        delay 0 every 1 check yes


# Set fixes
#
fix                 2 water momentum 10 linear 1 1 1 rescale
fix                 3 all nve
fix                 4 water temp/csvr ${START_TEMP} ${START_TEMP} 500.0 928347
fix                 4 water temp/csvr 240 ${START_TEMP} 500.0 928347
fix                 4 water temp/csvr 240 240 500.0 928347

# Run 0.05 ns equilibration
#
dump                1 all custom 100 ${DIR}/eq.${NAME}.dump id type x y z vx vy vz
dump                1 all custom 100 run_6/eq.${NAME}.dump id type x y z vx vy vz
dump                1 all custom 100 run_6/eq.ibeam_cooling_6.dump id type x y z vx vy vz
run                 10000
Neighbor list info ...
  update every 1 steps, delay 0 steps, check yes
  max neighbors/atom: 2000, page size: 100000
  master list distance cutoff = 6.67472
  ghost atom cutoff = 6.67472
  binsize = 3.33736, bins = 48 13 11
  1 neighbor lists, perpetual/occasional/extra = 1 0 0
  (1) pair sw, perpetual
      attributes: full, newton on
      pair build: full/bin/atomonly
      stencil: full/bin/3d
      bin: standard
Per MPI rank memory allocation (min/avg/max) = 0.4647 | 3.681 | 4.743 Mbytes
Step c_2 Press Volume TotEng KinEng PotEng c_1[4] Density 
       0          240   -299.33439    216009.12   -18704.344    1395.7345   -20100.079            0   0.94393226 
     100    243.35065   -319.83693    216009.12   -18715.526    1415.2204   -20130.746   0.80321521   0.94393226 
     200    239.66071   -167.90059    216009.12   -18761.081    1393.7614   -20154.843    1.1816811   0.94393226 
     300    239.43523    -347.2156    216009.12   -18743.622      1392.45   -20136.072    1.4583221   0.94393226 
     400    243.09173   -245.28637    216009.12   -18766.278    1413.7146   -20179.993    1.8110646   0.94393226 
     500    233.44663   -279.10715    216009.12   -18736.405     1357.623   -20094.028    2.1397784   0.94393226 
     600    243.22196   -365.25603    216009.12   -18644.847     1414.472   -20059.319    2.3919711   0.94393226 
     700    246.38252   -249.47922    216009.12   -18645.076    1432.8524   -20077.928    2.6711803   0.94393226 
     800    247.24523   -229.34809    216009.12   -18623.382    1437.8696   -20061.251    2.9810708   0.94393226 
     900    234.73055   -408.88454    216009.12   -18661.759    1365.0897   -20026.848    3.3709644   0.94393226 
    1000     241.8492   -424.10288    216009.12   -18701.806    1406.4886   -20108.295    3.5747109   0.94393226 
    1100    237.19879   -323.58363    216009.12   -18676.493    1379.4439   -20055.937     3.868442   0.94393226 
    1200    242.48594   -359.60817    216009.12   -18662.663    1410.1916   -20072.855    4.1474945   0.94393226 
    1300    249.48268   -311.03235    216009.12   -18620.213    1450.8816   -20071.095    4.5526726   0.94393226 
    1400    239.70819   -212.33696    216009.12   -18641.591    1394.0375   -20035.628    4.9306439   0.94393226 
    1500     242.0118   -384.39029    216009.12   -18660.331    1407.4343   -20067.765    5.3407843   0.94393226 
    1600    238.30082   -389.78371    216009.12   -18648.082    1385.8528   -20033.935    5.7088784   0.94393226 
    1700    234.23377   -307.73633    216009.12    -18637.67    1362.2006   -19999.871     5.990618   0.94393226 
    1800    240.87121   -194.70972    216009.12   -18599.487    1400.8011   -20000.288    6.3365732   0.94393226 
    1900    245.48546   -392.22191    216009.12   -18574.642    1427.6355   -20002.278    6.4844964   0.94393226 
    2000     249.5126   -231.65638    216009.12   -18544.266    1451.0556   -19995.322    6.9142696   0.94393226 
    2100    234.00761   -371.99503    216009.12   -18632.188    1360.8854   -19993.073    7.4172351   0.94393226 
    2200    244.72812    -323.1653    216009.12   -18614.942    1423.2312   -20038.173    7.6596402   0.94393226 
    2300    241.38971   -226.39915    216009.12   -18600.467    1403.8164   -20004.284    7.9541148   0.94393226 
    2400     243.9928   -280.19497    216009.12   -18608.856    1418.9549   -20027.811    8.6264523   0.94393226 
    2500    235.07598   -252.05715    216009.12   -18641.925    1367.0986   -20009.024    9.0546512   0.94393226 
    2600    237.42158   -470.84772    216009.12   -18626.707    1380.7395   -20007.447    9.2514271   0.94393226 
    2700    242.81909   -411.62125    216009.12   -18621.519    1412.1291   -20033.648    9.6708378   0.94393226 
    2800    248.66021   -384.95446    216009.12   -18576.712    1446.0985   -20022.811    9.9872717   0.94393226 
    2900     239.7635   -482.15224    216009.12   -18579.696    1394.3591   -19974.055    10.403185   0.94393226 
    3000    240.92443   -356.17562    216009.12    -18562.33    1401.1106   -19963.441    10.759061   0.94393226 
    3100    249.35407   -395.33903    216009.12   -18556.328    1450.1337   -20006.462    11.103198   0.94393226 
    3200    242.14658   -361.15276    216009.12   -18607.236     1408.218   -20015.454    11.418833   0.94393226 
    3300    237.87749   -328.36138    216009.12   -18683.094    1383.3909   -20066.485    11.605581   0.94393226 
    3400    241.34419   -262.10078    216009.12   -18627.484    1403.5517   -20031.036    11.878994   0.94393226 
    3500    238.82267   -312.40414    216009.12   -18617.762    1388.8877    -20006.65     12.22837   0.94393226 
    3600    243.53589   -353.90191    216009.12   -18621.803    1416.2977     -20038.1    12.754209   0.94393226 
    3700    244.84776   -364.66143    216009.12   -18606.787    1423.9269   -20030.714    12.993805   0.94393226 
    3800    243.40569   -105.52766    216009.12   -18594.901    1415.5405   -20010.442    13.318117   0.94393226 
    3900    245.38783   -362.20392    216009.12    -18601.09    1427.0677   -20028.158    13.682995   0.94393226 
    4000    235.77295   -272.24683    216009.12   -18632.178    1371.1518    -20003.33    13.844157   0.94393226 
    4100    237.32794   -429.94802    216009.12   -18594.781     1380.195   -19974.976     14.26137   0.94393226 
    4200    237.62147   -350.08181    216009.12   -18573.668     1381.902    -19955.57    14.792567   0.94393226 
    4300    239.90294   -322.10459    216009.12   -18627.798    1395.1701   -20022.968    15.058553   0.94393226 
    4400    234.28165   -166.79194    216009.12    -18593.49    1362.4791   -19955.969    15.792074   0.94393226 
    4500    244.22156   -365.10535    216009.12   -18634.359    1420.2852   -20054.644    15.864056   0.94393226 
    4600    235.57715   -324.23292    216009.12   -18675.045    1370.0132   -20045.058    16.155656   0.94393226 
    4700    240.25868   -322.43972    216009.12   -18591.734    1397.2389   -19988.973    16.403541   0.94393226 
    4800    243.61006   -319.38107    216009.12   -18570.245     1416.729   -19986.974     16.89333   0.94393226 
    4900    244.57518   -341.69004    216009.12   -18517.994    1422.3417   -19940.336    17.248136   0.94393226 
    5000     240.0232   -219.05447    216009.12   -18558.934    1395.8694   -19954.803     17.63797   0.94393226 
    5100    233.86944   -264.80725    216009.12   -18532.214    1360.0818   -19892.296    18.181744   0.94393226 
    5200    239.62244   -332.98374    216009.12   -18559.433    1393.5388   -19952.972    18.676686   0.94393226 
    5300    231.03462    -367.4406    216009.12   -18618.002    1343.5958   -19961.598    19.197011   0.94393226 
    5400    238.26631    -256.2456    216009.12    -18620.03    1385.6521   -20005.683    19.585163   0.94393226 
    5500     235.4187   -254.38335    216009.12   -18610.795    1369.0917   -19979.887    20.188246   0.94393226 
    5600    238.63272   -338.26479    216009.12   -18648.888     1387.783   -20036.671    20.549597   0.94393226 
    5700    241.18159   -411.03538    216009.12   -18617.197    1402.6061   -20019.803    21.120485   0.94393226 
    5800    246.84673   -329.78669    216009.12   -18628.814    1435.5521   -20064.366    21.533042   0.94393226 
    5900    238.89414    -328.1634    216009.12   -18662.228    1389.3033   -20051.531    21.774817   0.94393226 
    6000    245.28075   -151.26092    216009.12   -18674.795     1426.445    -20101.24    22.153298   0.94393226 
    6100    239.55396     -194.437    216009.12   -18702.615    1393.1405   -20095.755    22.785238   0.94393226 
    6200    239.36648   -281.14766    216009.12   -18698.394    1392.0502   -20090.444    22.888505   0.94393226 
    6300    245.33036   -218.43526    216009.12   -18647.606    1426.7335    -20074.34    23.001508   0.94393226 
    6400    238.34829   -339.65093    216009.12   -18670.106    1386.1289   -20056.235    23.422375   0.94393226 
    6500    244.06487   -388.05566    216009.12   -18687.589     1419.374   -20106.963    23.536645   0.94393226 
    6600    236.31906    -354.9546    216009.12   -18723.397    1374.3278   -20097.724    23.975111   0.94393226 
    6700    238.81401    -363.6463    216009.12   -18733.168    1388.8373   -20122.006    24.114596   0.94393226 
    6800    246.58968   -280.26533    216009.12    -18720.66    1434.0572   -20154.717    24.429046   0.94393226 
    6900    234.64571   -342.75555    216009.12   -18686.819    1364.5963   -20051.416    24.870724   0.94393226 
    7000      240.731   -482.06247    216009.12    -18673.51    1399.9857   -20073.496    25.368171   0.94393226 
    7100    238.56094     -399.238    216009.12    -18685.75    1387.3656   -20073.116    25.603484   0.94393226 
    7200    230.71413    -286.6874    216009.12   -18733.782     1341.732   -20075.514    25.786542   0.94393226 
    7300    235.68218   -319.87544    216009.12   -18763.123    1370.6239   -20133.747    26.089055   0.94393226 
    7400    239.11769   -325.57355    216009.12   -18725.718    1390.6034   -20116.321    26.307688   0.94393226 
    7500    235.25729   -338.27846    216009.12   -18706.364     1368.153   -20074.517     26.38805   0.94393226 
    7600     236.2226   -331.54857    216009.12   -18671.001    1373.7668   -20044.767    27.108929   0.94393226 
    7700    244.38693   -316.41113    216009.12   -18677.258     1421.247   -20098.505    27.697195   0.94393226 
    7800    232.84529   -349.00883    216009.12   -18728.237    1354.1259   -20082.363    27.787241   0.94393226 
    7900    244.74656   -315.50435    216009.12   -18702.787    1423.3384   -20126.126     27.88184   0.94393226 
    8000    238.26241   -348.57819    216009.12   -18641.369    1385.6294   -20026.999     28.47472   0.94393226 
    8100    239.19477   -347.51578    216009.12   -18624.736    1391.0516   -20015.788    28.862693   0.94393226 
    8200    237.81601   -187.71846    216009.12   -18642.603    1383.0334   -20025.637    29.165492   0.94393226 
    8300    247.55296   -215.99908    216009.12   -18597.752    1439.6592   -20037.411    29.271971   0.94393226 
    8400     244.6896   -343.71061    216009.12   -18581.424    1423.0072   -20004.432    29.564395   0.94393226 
    8500    239.28085   -355.08962    216009.12   -18610.381    1391.5522   -20001.933    29.609562   0.94393226 
    8600    240.86459   -451.87713    216009.12   -18627.177    1400.7626    -20027.94    29.988535   0.94393226 
    8700    238.25502   -456.44803    216009.12   -18647.584    1385.5865    -20033.17    30.514311   0.94393226 
    8800    241.99915   -109.33384    216009.12   -18640.341    1407.3607   -20047.702    30.883303   0.94393226 
    8900    234.76489   -262.76954    216009.12   -18672.853    1365.2894   -20038.143    31.498292   0.94393226 
    9000     236.5329   -239.08206    216009.12   -18660.759    1375.5714   -20036.331    31.796891   0.94393226 
    9100    236.41377   -345.79573    216009.12   -18690.023    1374.8785   -20064.902    31.940717   0.94393226 
    9200    245.40383   -254.19895    216009.12   -18668.125    1427.1608   -20095.286     32.07569   0.94393226 
    9300    232.01166   -364.79458    216009.12   -18736.065    1349.2778   -20085.343    32.581921   0.94393226 
    9400    239.59676   -381.94274    216009.12     -18717.4    1393.3895    -20110.79    33.013353   0.94393226 
    9500    235.09771   -386.53535    216009.12   -18754.773    1367.2249   -20121.998    33.251161   0.94393226 
    9600    234.59519   -356.62076    216009.12   -18755.957    1364.3025   -20120.259    33.228957   0.94393226 
    9700    241.29966   -294.98428    216009.12   -18716.797    1403.2927    -20120.09    33.177276   0.94393226 
    9800    244.59522     -347.683    216009.12   -18674.732    1422.4583    -20097.19    33.693079   0.94393226 
    9900    237.98344   -385.44089    216009.12   -18707.751    1384.0071   -20091.758    33.908714   0.94393226 
   10000    239.19704   -245.49027    216009.12   -18711.854    1391.0649   -20102.919    34.076149   0.94393226 
Loop time of 14.8291 on 160 procs for 10000 steps with 9248 atoms

Performance: 291.318 ns/day, 0.082 hours/ns, 674.348 timesteps/s
97.7% CPU use with 160 MPI tasks x no OpenMP threads

MPI task timing breakdown:
Section |  min time  |  avg time  |  max time  |%varavg| %total
---------------------------------------------------------------
Pair    | 0.00044823 | 2.9981     | 12.157     | 238.9 | 20.22
Neigh   | 0.00035048 | 0.095473   | 0.36391    |  39.3 |  0.64
Comm    | 0.017965   | 3.5982     | 12.028     | 221.7 | 24.26
Output  | 0.17702    | 0.1772     | 0.18393    |   0.1 |  1.19
Modify  | 0.36202    | 7.7852     | 14.486     | 222.6 | 52.50
Other   |            | 0.175      |            |       |  1.18

Nlocal:    57.8 ave 196 max 0 min
Histogram: 72 20 28 0 0 0 0 0 13 27
Nghost:    534.812 ave 920 max 0 min
Histogram: 23 1 0 8 6 42 32 16 13 19
Neighs:    0 ave 0 max 0 min
Histogram: 160 0 0 0 0 0 0 0 0 0
FullNghs:  5912 ave 23739 max 0 min
Histogram: 101 19 0 0 0 0 0 2 20 18

Total # of neighbors = 945920
Ave neighs/atom = 102.284
Neighbor list builds = 571
Dangerous builds = 0
write_data 	    ${DIR}/data.${NAME}_eq
write_data 	    run_6/data.${NAME}_eq
write_data 	    run_6/data.ibeam_cooling_6_eq

undump              1
unfix               4



################################################
#######         Run Simulation         #########
################################################

reset_timestep      0
timestep	    10.0
log                 ${DIR}/log.run_${NAME}
log                 run_6/log.run_${NAME}
log                 run_6/log.run_ibeam_cooling_6
