
# Set production fixes - Nose/Hoover
#
fix                 4 water temp/csvr ${START_TEMP} ${END_TEMP} 500.0 928347
fix                 4 water temp/csvr 235 ${END_TEMP} 500.0 928347
fix                 4 water temp/csvr 235 225 500.0 928347


## divide "droplet" into core and surface
#region		core_reg cylinder z 135 135 44.6 20 INF units box
#region		surface_reg cylinder z 135 135 44.6 20 INF units box side out
#group		core dynamic all region core_reg
#group		surface dynamic all region surface_reg

## compute pressure core
#compute        peratom_core core stress/atom NULL
#compute        p_core core reduce sum c_peratom_core[1] c_peratom_core[2] c_peratom_core[3]
#variable       press_core equal -(c_p_core[1]+c_p_core[2]+c_p_core[3])/(3*1249982.5)


## compute pressure surface
#compute        peratom_surf surface stress/atom NULL
#compute        p_surf surface reduce sum c_peratom_surf[1] c_peratom_surf[2] #c_peratom_surf[3]
#variable       press_surf equal -(c_p_surf[1]+c_p_surf[2]+c_p_surf[3])/(3*42395)

## compute total pressure of drop
compute        peratom water stress/atom NULL
compute        p water reduce sum c_peratom[1] c_peratom[2] c_peratom[3]
variable       press equal -(c_p[1]+c_p[2]+c_p[3])/(3*58187)


# compute order parameter
compute        3 all orientorder/atom nnn NULL cutoff 3.5

# compute center of mass of bridge
compute 	4 water com

# Run simulation
thermo_style        custom step c_2 press vol etotal ke pe v_press c_1[4] c_4[*]
thermo              200
dump		     1 water custom 400 ${DIR}/prod.${NAME}.dump id type x y z vx vy vz c_3[*] c_peratom[*]
dump		     1 water custom 400 run_8/prod.${NAME}.dump id type x y z vx vy vz c_3[*] c_peratom[*]
dump		     1 water custom 400 run_8/prod.ibeam_cooling_8.dump id type x y z vx vy vz c_3[*] c_peratom[*]
run                 ${STEPS}
run                 4000000
Neighbor list info ...
  update every 1 steps, delay 0 steps, check yes
  max neighbors/atom: 2000, page size: 100000
  master list distance cutoff = 6.6747184
  ghost atom cutoff = 6.6747184
  binsize = 3.3373592, bins = 24 22 12
  2 neighbor lists, perpetual/occasional/extra = 1 1 0
  (1) pair sw, perpetual
      attributes: full, newton on
      pair build: full/bin/atomonly
      stencil: full/bin/3d
      bin: standard
  (2) compute orientorder/atom, occasional, copy from (1)
      attributes: full, newton on
      pair build: copy
      stencil: none
      bin: none
Per MPI rank memory allocation (min/avg/max) = 6.106 | 6.733 | 7.324 Mbytes
Step c_2 Press Volume TotEng KinEng PotEng v_press c_1[4] c_4[1] c_4[2] c_4[3] 
       0    232.23997   -240.51564       229892   -22583.039    1651.0478   -24234.087   -377.27882    31.988107    39.444136    35.564436    26.661467 
     200    231.55329   -274.45196       229892   -22620.354    1646.1661    -24266.52   -542.97818    33.750292    39.444849    35.563463    26.675342 
     400     234.1656   -232.94132       229892   -22622.631    1664.7376   -24287.369    -368.5489    34.948697    39.444773    35.563797    26.688578 
     600    233.51297   -143.92509       229892   -22525.848    1660.0979   -24185.946    8.5438948    35.404726     39.44274    35.564818    26.688922 
     800    234.19203   -435.07332       229892   -22545.331    1664.9255   -24210.256   -1178.7445    35.546738    39.440376     35.56552    26.698674 
    1000    235.03072   -400.90135       229892   -22604.796    1670.8879   -24275.684   -1014.6554      36.4322    39.438332    35.567787    26.699899 
    1200    235.74704    -455.5553       229892    -22570.79    1675.9804   -24246.771   -1226.5273    37.429063    39.438882    35.567537    26.706647 
    1400    229.74309   -505.06668       229892   -22518.082     1633.297   -24151.378   -1396.7966    39.516354    39.440361    35.566062    26.699912 
    1600    234.85319   -548.24396       229892   -22511.709    1669.6258   -24181.335   -1559.7523    40.486869    39.439502    35.564885     26.70517 
    1800    237.12829   -347.33424       229892   -22486.685       1685.8   -24172.485   -804.81839     42.36275    39.438757    35.564825    26.695097 
    2000     240.7402   -345.05856       229892   -22424.322    1711.4779     -24135.8   -823.75547    44.195033    39.439281    35.567194    26.684473 
    2200    231.74554   -448.33647       229892   -22542.755    1647.5328   -24190.288   -1229.3847    44.924156    39.439496     35.56799    26.687272 
    2400    242.29358   -415.11035       229892   -22505.839    1722.5213   -24228.361   -1023.1398    46.227726    39.441825    35.564737    26.719161 
    2600    226.64425   -245.79625       229892   -22565.483    1611.2666    -24176.75    -383.1339    47.975535    39.439591    35.564333    26.711583 
    2800     241.0183   -414.12885       229892   -22488.576     1713.455   -24202.031   -1098.6929    49.029456    39.439218    35.565507    26.717503 
    3000    241.04894   -296.61934       229892   -22521.125    1713.6728   -24234.798   -653.14027    49.391377    39.436773     35.56398    26.699282 
    3200    233.55615   -298.50831       229892   -22573.259    1660.4049   -24233.664   -582.43613    50.783648    39.435596    35.566176    26.667838 
    3400    232.75236   -429.20494       229892   -22550.314    1654.6905   -24205.005   -1138.0209    51.404668    39.435381     35.56879    26.668432 
    3600    235.55885   -360.15357       229892   -22587.688    1674.6425    -24262.33   -930.33763     53.41223    39.433912    35.568642    26.675602 
    3800    243.30007   -406.53074       229892   -22567.554    1729.6767    -24297.23   -1086.7897    54.965104    39.432194    35.567817    26.659135 
    4000     229.3442   -455.01353       229892   -22609.585    1630.4611   -24240.046   -1243.3218    57.111252    39.430992    35.567497    26.643095 
    4200    235.37286    -204.0058       229892   -22567.343    1673.3202   -24240.663   -269.05818     58.55731    39.431083    35.568418    26.641307 
    4400    231.28955   -252.46963       229892   -22585.139    1644.2911    -24229.43   -459.82231    59.268407    39.432098    35.568435    26.654807 
    4600    230.01289   -491.95227       229892   -22682.394     1635.215   -24317.609   -1404.3479    60.473452     39.43574     35.56903    26.633242 
    4800    232.27941   -295.75594       229892   -22540.974    1651.3282   -24192.302   -625.16114    61.942892    39.435706    35.570229    26.643935 
    5000    236.06827   -174.07242       229892    -22602.46    1678.2641   -24280.724   -130.64799    62.402905    39.436926    35.569555    26.653234 
    5200    231.65816   -418.50422       229892   -22604.983    1646.9116   -24251.895   -1110.5434    63.065895    39.438241    35.567846    26.661591 
    5400    235.58477   -308.32011       229892   -22596.028    1674.8267   -24270.855   -703.94323    64.324123    39.437224    35.566307    26.675848 
    5600    239.40876   -178.55145       229892   -22606.774    1702.0124   -24308.786   -165.29954    64.837001     39.43623    35.566062    26.684372 
    5800    229.33758   -271.32303       229892   -22546.641    1630.4141   -24177.055   -557.04703    66.381258    39.438322    35.568004    26.666183 
    6000    232.30893   -343.56578       229892   -22583.126    1651.5381   -24234.664   -835.94057    67.173311    39.436197     35.56838    26.636863 
    6200    227.99675    -376.2041       229892   -22594.988    1620.8818   -24215.869   -957.68073    68.191049    39.435121    35.569293    26.623369 
    6400    228.68237   -342.10424       229892   -22567.124     1625.756    -24192.88   -800.92735    68.753698    39.434823     35.56878    26.635824 
    6600    230.21847    -311.8118       229892   -22557.401    1636.6765   -24194.078   -662.13027    70.400714    39.432934    35.570981    26.660836 
    6800    233.24985   -361.61915       229892   -22563.599    1658.2273   -24221.826   -890.78925     71.16516    39.432883    35.573034    26.637535 
    7000    232.09309   -243.22721       229892   -22533.987    1650.0036   -24183.991   -420.56471    73.314826    39.430234    35.571732    26.653072 
    7200    228.25805   -284.54243       229892   -22625.254    1622.7395   -24247.993   -550.52416    74.126308     39.42746    35.573131    26.652823 
    7400    228.25505   -478.16245       229892   -22571.971    1622.7181   -24194.689   -1351.3334    75.063938    39.428842    35.573614    26.661502 
    7600    242.45171   -309.40114       229892   -22517.939    1723.6455   -24241.584    -633.4579    76.312898    39.427784    35.575944     26.66302 
    7800    231.84034   -418.78534       229892   -22636.805    1648.2067   -24285.012   -1071.0533     77.99423    39.422354    35.576322    26.670881 
    8000    236.96047   -299.13193       229892   -22504.083    1684.6069    -24188.69   -607.79169    78.919249    39.421995    35.573417    26.662048 
    8200     239.0822    -320.5491       229892   -22540.108    1699.6909   -24239.799   -708.44936    80.176418    39.422729    35.572872    26.657289 
    8400     238.6776   -419.49515       229892   -22484.759    1696.8144   -24181.574   -1089.5355    80.529034    39.423523    35.571773    26.674445 
    8600    237.00864   -332.44904       229892   -22549.167    1684.9494   -24234.117   -747.80889    82.140562    39.425751    35.572002    26.692064 
    8800    230.70683   -195.12036       229892   -22597.066    1640.1483   -24237.214   -198.19132    83.246231    39.426922    35.575304    26.688996 
    9000    236.57732   -293.31909       229892   -22565.437    1681.8831   -24247.321   -593.27393     83.67303    39.425031    35.575182    26.696005 
    9200    244.01504   -363.11366       229892    -22515.26    1734.7595    -24250.02   -886.44321    85.607181    39.425825    35.574231    26.707833 
    9400    243.04658   -384.58229       229892   -22566.135    1727.8745   -24294.009   -928.71845    86.324501    39.426905    35.573982    26.709034 
    9600    235.71493   -309.36569       229892   -22610.682    1675.7521   -24286.434   -691.78185    87.607529    39.427164    35.573564    26.700908 
    9800    235.80278   -322.50589       229892   -22518.508    1676.3767   -24194.884   -708.42134    88.993088    39.425194    35.574179    26.677917 
   10000    235.01673   -367.04151       229892   -22560.484    1670.7885   -24231.273   -896.16789    91.063151    39.423136    35.575208     26.66483 
   10200    238.75023   -268.55151       229892   -22488.277    1697.3308   -24185.608   -533.65304    91.272259    39.423063    35.575952    26.656849 
   10400    236.03236   -255.50458       229892   -22488.421    1678.0088    -24166.43   -476.32278    92.970001    39.427247    35.578042    26.652209 
   10600    228.91931    -377.7432       229892   -22531.804    1627.4405   -24159.244   -932.77484    94.111274    39.426935    35.576463    26.635719 
   10800    233.24408    -304.7831       229892   -22592.434    1658.1863    -24250.62   -672.18779     94.58722    39.428571    35.576178    26.661225 
   11000    236.56796   -438.41602       229892    -22647.04    1681.8165   -24328.856   -1214.0075    96.544262    39.429708     35.57536    26.679076 
   11200    236.08971   -355.15468       229892   -22632.814    1678.4165    -24311.23   -845.64075    96.472947    39.427538    35.573533    26.699027 
   11400    231.36768   -258.13383       229892   -22575.212    1644.8465   -24220.058   -485.39601    97.752797    39.428267    35.572492    26.703458 
   11600    240.48282   -367.29651       229892   -22523.072    1709.6481    -24232.72   -892.01592    97.630716    39.427801    35.574203     26.70075 
   11800    240.13529   -410.21371       229892   -22514.206    1707.1775   -24221.384    -1096.252    99.501545    39.427631     35.57305    26.720959 
   12000    230.84119   -347.67759       229892   -22478.898    1641.1036   -24120.001   -826.59176    101.81148    39.426497    35.572303     26.74075 
   12200    232.67027   -254.81143       229892   -22478.391    1654.1069   -24132.498   -419.71798    102.68407    39.425516    35.572879    26.736979 
   12400     235.3976   -462.77859       229892   -22507.577    1673.4961   -24181.074    -1261.958    103.00609     39.42555    35.574439    26.735912 
   12600    243.73438   -212.22044       229892   -22487.725    1732.7643   -24220.489   -280.07427    104.24986    39.426324    35.575078    26.746491 
   12800     235.9481   -245.29692       229892   -22549.762    1677.4097   -24227.172   -403.64543     104.3523    39.429722    35.578449    26.756339 
   13000    235.21891   -463.71933       229892   -22586.126    1672.2258   -24258.352   -1301.1618    106.08101    39.428923    35.578113    26.774898 
   13200    234.45617    -229.0423       229892   -22587.577    1666.8033    -24254.38   -319.28529    106.90783    39.428062    35.579499    26.779258 
   13400    231.12155   -388.21815       229892   -22663.752    1643.0967   -24306.849   -964.53143    107.13623    39.428095    35.581062    26.784968 
   13600    235.84144   -389.33675       229892   -22613.951    1676.6515   -24290.603   -945.32859    107.47311      39.4283    35.583327    26.781116 
   13800     234.2049    -235.2477       229892   -22568.529     1665.017   -24233.546   -369.86528    108.69333    39.428674    35.586963    26.775342 
   14000    231.87275   -439.93587       229892   -22505.198    1648.4372   -24153.636   -1224.1546    108.40323    39.428364     35.58923     26.78753 
   14200    233.32107   -515.90168       229892   -22539.846    1658.7336    -24198.58   -1452.6444    109.31699    39.428244    35.590832    26.790791 
   14400    237.33263   -381.34661       229892   -22579.675    1687.2527   -24266.928   -983.13535    109.39122    39.428527    35.593067    26.789861 
   14600     238.0621   -443.04747       229892   -22557.301    1692.4387    -24249.74   -1206.2838    111.13025    39.428958    35.593529    26.790588 
   14800    233.07578   -363.24208       229892   -22491.638    1656.9898   -24148.628    -873.6456    112.11742    39.429656     35.59375    26.806128 
   15000    234.96903   -364.69676       229892   -22552.231    1670.4494    -24222.68   -901.86341    112.51507    39.428907    35.595584    26.822835 
   15200    236.05912   -417.15887       229892   -22537.467     1678.199   -24215.666    -1032.139    113.15711      39.4287     35.59718    26.817253 
   15400    237.06468   -340.09488       229892   -22640.207    1685.3478   -24325.555   -797.02613    114.47741    39.430534      35.5959     26.82899 
   15600    241.60517   -328.91154       229892   -22515.376    1717.6272   -24233.003   -715.50932    116.52822    39.429877     35.59703      26.8462 
   15800    231.16034   -304.26281       229892   -22527.306    1643.3725   -24170.678   -649.39556     117.4315    39.428565    35.598201    26.839921 
   16000    232.24605   -293.82584       229892   -22553.599     1651.091    -24204.69   -570.30199    119.22266    39.430284    35.596848    26.847914 
   16200    232.31202   -486.86984       229892   -22510.281      1651.56   -24161.841   -1335.0895    120.48536    39.430013    35.594731    26.864068 
   16400    239.79241   -387.36034       229892   -22522.444    1704.7399   -24227.184   -948.56177    121.81829    39.428684    35.593979    26.870306 
   16600    243.64388   -292.85309       229892   -22471.197    1732.1209   -24203.318   -573.23269    121.73931    39.427462    35.593432     26.87544 
   16800    236.39599    -230.8505       229892   -22530.017    1680.5939   -24210.611    -344.8812    123.39292     39.42707    35.590361    26.872351 
   17000    232.56032   -297.56902       229892   -22546.396    1653.3252   -24199.721    -616.5413    123.78673    39.426648    35.591238    26.875695 
   17200    235.62507   -431.27651       229892   -22519.783    1675.1133   -24194.897   -1127.6672    123.85202    39.426674    35.589512    26.880352 
   17400    232.29316   -314.79417       229892   -22606.559     1651.426   -24257.985   -696.12172    125.09947    39.429427    35.587675    26.877838 
   17600     237.2629    -301.6125       229892   -22534.202     1686.757   -24220.959   -629.21415     125.5077    39.430415    35.587794    26.865703 
   17800    233.49338   -378.53388       229892   -22565.349    1659.9586   -24225.308   -939.05172    126.17607    39.429621    35.584733    26.841137 
   18000    230.89076   -308.19721       229892   -22538.054     1641.456    -24179.51   -691.91865    126.76492    39.430154     35.58357    26.860484 
   18200    234.94062   -462.09718       229892   -22568.195    1670.2473   -24238.442   -1240.2899    127.73588    39.430537    35.581169    26.879141 
   18400    228.88755   -278.19969       229892   -22558.531    1627.2147   -24185.746   -539.73311    129.03406    39.431995    35.579333    26.890036 
   18600    234.56264   -312.89762       229892   -22535.908    1667.5602   -24203.468   -642.68992    129.85672    39.432079    35.578237    26.884442 
   18800    231.06408   -308.17921       229892   -22559.357    1642.6882   -24202.045   -648.91864    131.35038    39.431708    35.578188    26.892292 
   19000    233.86351   -358.29405       229892   -22493.258      1662.59   -24155.848   -845.24957    132.65095    39.432943    35.577689    26.884945 
   19200    230.95153   -275.07728       229892   -22537.771     1641.888   -24179.659   -514.74444    133.44276    39.433715    35.576721    26.853115 
   19400    237.07493   -311.52512       229892   -22475.927    1685.4206   -24161.348   -683.01487    134.20452    39.432269    35.578043    26.850171 
   19600    233.87163    -335.7314       229892   -22509.122    1662.6477   -24171.769   -789.03603    134.82973    39.432341    35.578587    26.839589 
   19800    234.06891   -278.70917       229892   -22493.099    1664.0502   -24157.149   -564.59407    136.48558    39.431567    35.584077    26.834193 
   20000    235.54622    -218.9708       229892   -22551.647    1674.5527     -24226.2   -317.31261     136.7052    39.432119    35.586982    26.825622 
   20200     233.0732   -321.23447       229892   -22631.239    1656.9714   -24288.211   -724.75257    137.66056    39.432266    35.587983    26.836356 
   20400    233.83885    -460.3398       229892   -22549.809    1662.4146   -24212.224   -1218.4194     138.4272    39.432441    35.590398    26.823457 
   20600    236.67772   -271.72136       229892   -22640.078    1682.5968   -24322.675   -491.26811    139.71779    39.433044    35.591639    26.808157 
   20800    230.58562   -347.41192       229892   -22601.241    1639.2866   -24240.528   -835.99013    140.88895    39.433191     35.59131    26.820193 
   21000    234.61936   -444.24381       229892   -22610.786    1667.9635   -24278.749   -1185.1553    140.53839     39.43057    35.591514    26.796453 
   21200     231.9564   -452.97094       229892   -22577.221    1649.0319   -24226.253   -1250.3815     141.5172    39.431534    35.592418     26.81183 
   21400    232.26816   -322.27376       229892   -22545.933    1651.2482   -24197.181   -699.62915    141.82028    39.429995    35.596252    26.809044 
   21600    238.38909   -425.26178       229892   -22460.495    1694.7633   -24155.258   -1122.9755    142.95543    39.431699    35.596867    26.802239 
   21800    232.10002   -428.70567       229892   -22581.095    1650.0529   -24231.148   -1139.3427    144.80103    39.432701    35.596598    26.817567 
   22000    226.42011   -354.95181       229892   -22624.399    1609.6731   -24234.072   -843.41736    144.27631    39.435322    35.595644    26.829631 
   22200    232.64687   -411.81204       229892   -22633.906    1653.9406   -24287.847   -1040.7888    146.63488     39.43637    35.597408    26.817884 
   22400    239.54847   -324.37674       229892   -22500.559    1703.0057   -24203.565   -734.39386    147.66937    39.437749    35.597105    26.797957 
   22600    229.08303   -426.57447       229892   -22584.918    1628.6044   -24213.522   -1105.6039    148.32335    39.439265    35.594608    26.792002 
   22800    240.95645   -261.28241       229892   -22576.405    1713.0153   -24289.421   -469.78407    150.30735    39.440223    35.595134    26.784397 
   23000    232.60525   -275.02991       229892   -22650.361    1653.6447   -24304.006    -526.8411    151.68827    39.443264    35.595354    26.774706 
   23200    236.93348    -166.2686       229892   -22585.541    1684.4151   -24269.956   -104.71663    153.10825    39.446956    35.598144    26.777296 
   23400    234.57731   -394.74932       229892   -22568.258    1667.6645   -24235.923   -995.05928    154.80665    39.446873    35.597578    26.771318 
   23600     240.2168   -432.13965       229892   -22489.492     1707.757   -24197.249   -1128.5092    155.50381    39.444485    35.598038    26.768952 
   23800    238.33636   -394.14223       229892   -22502.274    1694.3885   -24196.662   -1004.0949    156.82302    39.446374    35.598081    26.785555 
   24000     234.9834   -419.38061       229892   -22549.303    1670.5515   -24219.855   -1086.5111    156.70937    39.446291     35.59743    26.812933 
   24200     234.9531   -378.83948       229892   -22542.345    1670.3361   -24212.681   -971.04111    157.44782     39.44432    35.597565    26.812368 
   24400    228.56221   -378.52988       229892   -22597.075    1624.9018   -24221.977    -919.0913    158.18712    39.444521    35.597473    26.831446 
   24600    229.25524   -282.11651       229892   -22606.964    1629.8287   -24236.793   -534.75149    159.12953     39.44768    35.596572    26.832027 
   24800    226.23007   -227.56123       229892   -22589.307    1608.3221   -24197.629   -335.29374    160.21931    39.448645    35.599014    26.860367 
   25000    235.37632   -449.63336       229892    -22616.08    1673.3448   -24289.425   -1230.3592    161.41324    39.447577    35.600729    26.880067 
   25200    224.47229   -443.95771       229892   -22750.104    1595.8256    -24345.93   -1186.9949    161.92395    39.447085    35.600368    26.875434 
   25400    230.26153   -337.73564       229892   -22621.218    1636.9826   -24258.201   -811.50903    163.39444    39.447922    35.598814    26.881107 
   25600    238.73099   -413.00199       229892    -22519.77     1697.194   -24216.964   -1061.6434    164.17824    39.446839    35.599339    26.892616 
   25800    243.31683   -326.22594       229892   -22573.972    1729.7958   -24303.767   -729.82386    164.43348    39.445757    35.599725    26.890626 
   26000    234.75973   -366.71265       229892   -22648.731    1668.9614   -24317.693   -921.88149    164.56136    39.444421    35.600602    26.866604 
   26200    237.52603   -226.38421       229892   -22611.245    1688.6277   -24299.873   -328.03433    165.71212    39.444748    35.601003    26.834474 
   26400    226.18046    -300.6447       229892   -22653.286    1607.9694   -24261.256   -658.51158    166.93362    39.441418    35.601775    26.813898 
   26600    234.19651   -448.96456       229892   -22563.957    1664.9573   -24228.914   -1219.1157    168.06202    39.441873    35.602523    26.812108 
   26800    229.36283   -347.57492       229892   -22602.504    1630.5936   -24233.098   -815.83093    168.54619    39.444096    35.601721    26.805765 
   27000    239.51667   -261.31182       229892   -22533.682    1702.7796   -24236.462    -494.1592    170.59204    39.444455     35.59999    26.809899 
   27200    233.79437   -282.67837       229892   -22573.645    1662.0984   -24235.744   -569.53103    172.26192    39.441162    35.599282    26.805523 
   27400    236.54814   -368.84567       229892   -22516.275    1681.6756   -24197.951   -904.14087    172.87981     39.43701     35.59782    26.823993 
   27600    232.92032   -161.38855       229892   -22661.627    1655.8846   -24317.512   -98.863446    173.57226    39.436225    35.600954    26.831993 
   27800    232.97034   -394.50663       229892    -22523.62    1656.2402    -24179.86   -1018.8904    174.35291    39.436363    35.601308    26.818548 
   28000    235.67533   -384.08492       229892   -22618.055    1675.4706   -24293.526   -991.58119    175.42593    39.436437    35.603019    26.819991 
   28200    234.58758   -358.51812       229892   -22594.841    1667.7376   -24262.579    -820.3329    175.56884    39.435521     35.60302    26.836437 
   28400    238.26387   -386.08531       229892   -22610.269    1693.8731   -24304.143   -922.86341    176.13645    39.434922    35.601405    26.839979 
   28600    233.33107   -158.56319       229892   -22602.808    1658.8047   -24261.613   -79.574135    177.82538    39.435878    35.599549    26.858471 
   28800     235.2816   -381.15375       229892   -22599.702    1672.6715   -24272.373    -965.0563    179.87098    39.434942    35.600432    26.877315 
   29000    232.56092   -379.45364       229892   -22591.168    1653.3295   -24244.498   -970.98174    179.58514    39.434047    35.599729    26.880721 
   29200    232.32638   -190.21836       229892   -22562.793    1651.6622   -24214.455    -234.6273    180.06119    39.431985    35.600638    26.881119 
   29400    241.03766   -316.30064       229892   -22580.391    1713.5926   -24293.984   -693.17552    182.19634    39.433724     35.60315    26.872717 
   29600    233.45445   -443.30747       229892   -22559.632    1659.6818   -24219.314   -1194.5411    182.74524    39.435799    35.601643      26.8663 
   29800     234.4657   -305.38385       229892   -22610.228     1666.871   -24277.099   -661.92038    183.14485    39.437881    35.599602    26.866987 
   30000    235.98101   -345.69377       229892   -22690.725    1677.6437   -24368.368   -834.11943     182.9456    39.438424    35.599885    26.884622 
   30200    233.00982   -495.55451       229892   -22611.825    1656.5208   -24268.346   -1425.5278    184.96966     39.43834    35.601351    26.878954 
   30400    227.70292   -350.65845       229892   -22637.693    1618.7929   -24256.486   -864.43507    185.73462    39.438405    35.603958     26.87969 
   30600     225.5258   -296.99943       229892   -22656.621    1603.3153   -24259.936   -638.71717    184.61025    39.437814    35.605545    26.875678 
   30800    228.76745   -454.26839       229892   -22590.779    1626.3608   -24217.139   -1233.4354    185.41161    39.440846    35.605497    26.880708 
   31000    229.76096   -251.49635       229892   -22561.403     1633.424   -24194.827    -460.6828    186.69144    39.441903    35.604939    26.904174 
   31200    234.01079   -454.48772       229892   -22543.824     1663.637   -24207.461   -1218.7584    188.75627    39.442598    35.605691    26.892172 
   31400    231.79132   -328.46249       229892   -22507.109    1647.8583   -24154.968   -740.60092    191.79468    39.442665    35.606241    26.904509 
   31600    234.15151   -383.25782       229892    -22542.18    1664.6374   -24206.818   -989.21199     192.4512    39.441086    35.606314    26.893117 
   31800    239.93921   -468.94062       229892   -22481.081    1705.7835   -24186.865   -1312.5316    194.09295    39.440929    35.606144     26.88871 
   32000    231.79929   -431.86013       229892   -22578.073    1647.9149   -24225.988    -1132.687      195.217    39.441116    35.605138    26.888422 
   32200    232.85986   -374.77432       229892   -22596.695    1655.4548    -24252.15   -919.04459    196.48329    39.442157    35.604807    26.883347 
   32400    232.54572    -355.9577       229892   -22587.828    1653.2215   -24241.049   -822.68195     198.7612    39.440167     35.60535    26.898954 
   32600    237.65533    -312.6266       229892   -22503.749    1689.5469   -24193.296   -660.95521    198.65172    39.439875    35.604349    26.898022 
   32800    238.66412   -446.14037       229892   -22486.512    1696.7186    -24183.23   -1223.3803    197.52081    39.439748    35.604667    26.879628 
   33000     241.2447   -472.69662       229892   -22453.788    1715.0645   -24168.853   -1318.6012    197.63683    39.440482    35.604972    26.864853 
   33200    233.09184   -407.99173       229892    -22510.27     1657.104   -24167.373   -1074.9688    202.61664    39.439655     35.60353    26.865328 
   33400    231.62762   -350.88608       229892   -22577.578    1646.6945   -24224.272   -799.11086    205.28898    39.439687    35.605012    26.884609 
   33600    236.90917   -266.18193       229892   -22574.393    1684.2422   -24258.636   -547.97943    205.87345    39.441287    35.603773    26.895235 
   33800     236.3628   -269.21981       229892   -22502.775     1680.358   -24183.133   -537.71735    207.20851    39.442205    35.604886    26.906095 
   34000    233.39736    -290.6022       229892   -22626.613     1659.276   -24285.889   -601.29496    208.91615     39.44278    35.607399     26.91221 
   34200     233.0759   -370.03567       229892   -22607.044    1656.9907   -24264.035    -973.1019    210.22953    39.441859     35.60587    26.903554 
   34400    234.56922   -295.90087       229892   -22632.839     1667.607   -24300.446   -650.76566    210.64389    39.440403     35.60644      26.8959 
   34600     241.2445    -468.7141       229892   -22472.915    1715.0631   -24187.979   -1328.0215    211.43306    39.438917    35.605727    26.907733 
   34800    234.56176   -299.81909       229892    -22561.99     1667.554   -24229.544   -678.25382    212.80973    39.438753    35.605223    26.895926 
   35000    235.55758   -496.11638       229892   -22623.221    1674.6334   -24297.854   -1446.6004    214.21016    39.438204    35.603879    26.894323 
   35200     239.5526   -449.05337       229892   -22524.781     1703.035   -24227.816   -1235.5762    214.88714    39.437137    35.605842    26.867931 
   35400    236.39745   -392.33659       229892   -22523.598    1680.6043   -24204.202   -981.77075    216.79672     39.43698    35.606517    26.865614 
   35600    231.46899   -558.88422       229892   -22532.555    1645.5667   -24178.122   -1689.0199     217.8991     39.43543    35.607052     26.85333 
   35800    239.72557   -333.95512       229892   -22435.166    1704.2647   -24139.431   -770.26361    217.25606    39.433581     35.60621    26.817712 
   36000      228.515   -431.11104       229892   -22590.465    1624.5661   -24215.031   -1127.5486    219.51585    39.430887     35.60502    26.805258 
   36200    234.42333   -350.12981       229892   -22597.058    1666.5699   -24263.628   -883.21031     219.0096    39.430404    35.604808    26.777761 
   36400    234.11701    -407.4854       229892   -22565.691    1664.3922   -24230.083   -1059.8645    219.55008    39.429919     35.60358    26.768125 
   36600    233.25881   -629.50725       229892   -22561.027     1658.291   -24219.318   -1908.2908    220.17374    39.429364    35.602795    26.758784 
   36800    232.73361   -340.05853       229892   -22585.693    1654.5572   -24240.251   -763.05655    220.33779    39.428441    35.600373    26.750279 
   37000    233.11578   -420.74192       229892   -22584.983    1657.2742   -24242.257   -1106.5726     222.7075    39.430273    35.601695    26.753491 
   37200    230.72604   -327.83624       229892   -22600.597     1640.285   -24240.882   -790.93548    222.57377    39.430951    35.602332    26.762887 
   37400    230.82732   -484.60348       229892   -22616.274     1641.005   -24257.279   -1374.7658    224.44211    39.431936    35.602261    26.764104 
   37600     233.4187   -458.72758       229892   -22615.338    1659.4277   -24274.765   -1264.4127    226.22695    39.433553    35.601894    26.760259 
   37800    230.62652    -624.9941       229892   -22635.325    1639.5774   -24274.902   -1902.5383     228.5497    39.435469    35.600415    26.768901 
   38000    244.47825   -352.74167       229892   -22556.846    1738.0526   -24294.899   -830.85117     229.8677    39.435893    35.598888    26.768291 
   38200    232.88302   -334.72757       229892   -22588.555    1655.6194   -24244.175   -764.65368    230.74331    39.437421    35.599169    26.773499 
   38400    242.66968    -231.8026       229892   -22505.471    1725.1951   -24230.666    -329.0313    232.95051    39.436726    35.598019    26.791535 
   38600    232.27597   -312.66435       229892   -22572.989    1651.3037   -24224.293   -726.80209    235.70535    39.435146    35.599259    26.814807 
   38800    237.05319   -318.95842       229892   -22567.682    1685.2661   -24252.948   -690.96099    236.68575    39.435388     35.59947     26.81328 
   39000    237.47093   -415.44072       229892   -22520.618    1688.2359   -24208.854   -1113.7131    238.24434    39.434716    35.599371    26.810864 
   39200    227.56755   -373.92826       229892   -22601.607    1617.8305   -24219.438   -894.80362    237.41757    39.436412     35.59805     26.79413 
   39400    233.72265   -318.75035       229892   -22577.777    1661.5885   -24239.365   -726.44719    237.91327    39.436196    35.596973    26.787592 
   39600     235.3721   -315.69234       229892   -22512.424    1673.3148   -24185.739   -669.08898    238.78343    39.437158    35.597123    26.793024 
   39800    233.38473   -367.03056       229892    -22572.41    1659.1862   -24231.596    -874.9122    240.17783    39.437643    35.597727    26.778009 
   40000    234.79848   -333.48245       229892   -22553.312    1669.2368   -24222.549   -766.13884    240.48905    39.438447    35.598192    26.779915 
   40200    233.97262   -413.51363       229892   -22571.014    1663.3656   -24234.379   -1051.8883    240.59439    39.437703    35.596613    26.792309 
   40400    225.93849    -575.6906       229892   -22618.504    1606.2491   -24224.753   -1717.0262    241.44188    39.436375    35.595607    26.791794 
   40600     236.7722    -470.5847       229892   -22514.649    1683.2685   -24197.917   -1297.9533    243.01132    39.436176    35.591114    26.790054 
   40800    233.19714   -407.28801       229892   -22582.157    1657.8526   -24240.009   -1053.1831    244.70029    39.437129    35.591317    26.774044 
   41000     237.7832   -306.83571       229892   -22542.457    1690.4559   -24232.913   -635.53409    244.70231    39.438377    35.589588    26.789527 
   41200    242.88721   -446.30234       229892   -22467.147    1726.7415   -24193.888   -1205.1697    246.24087    39.439925    35.587725    26.792286 
   41400    237.17452   -369.86687       229892   -22533.122    1686.1287   -24219.251   -916.56614    248.11901    39.440004    35.588422    26.797939 
   41600    240.04594   -344.80858       229892   -22512.692    1706.5423   -24219.235   -807.53674    248.64275      39.4404    35.590334    26.772528 
   41800    241.78428   -431.50696       229892   -22555.685    1718.9005   -24274.585   -1160.8289    250.18992    39.441598    35.592068    26.765976 
   42000    234.09604   -295.93744       229892   -22608.654     1664.243   -24272.897   -607.08894     250.8648     39.44264    35.593114     26.79559 
   42200    230.48906   -237.24115       229892   -22646.805    1638.6002   -24285.405   -406.96589    253.37051    39.441973     35.59425    26.800677 
   42400     231.1924   -403.03777       229892   -22571.125    1643.6004   -24214.726   -1028.7399    252.76177    39.441466    35.595408    26.800286 
   42600     236.0652   -246.21211       229892   -22600.691    1678.2422   -24278.933   -372.48652     252.9792    39.442767    35.596309    26.806909 
   42800    237.94947   -416.78857       229892   -22571.163     1691.638   -24262.801   -1056.1901    253.16197      39.4409    35.595528    26.808349 
   43000    233.60318   -385.73787       229892    -22597.74    1660.7392   -24258.479   -952.53451    254.63514    39.438907    35.595672    26.793215 
   43200    236.85745    -312.8751       229892   -22633.965    1683.8745   -24317.839   -659.34408    254.61037    39.437365    35.597652    26.778728 
   43400    233.49821   -494.36423       229892   -22607.203    1659.9929   -24267.196   -1382.9827    254.26528    39.439762    35.596892    26.793502 
   43600    232.37687   -510.57199       229892   -22641.504    1652.0211   -24293.525    -1436.663    256.09543    39.441279     35.59784    26.792604 
   43800    233.34322   -315.59319       229892   -22647.694     1658.891   -24306.585   -709.29695    256.64806    39.443034    35.599387    26.796239 
   44000    233.93877   -202.47684       229892   -22671.318     1663.125   -24334.443   -210.62895    254.94679    39.444103    35.599517    26.790838 
   44200    233.95683   -331.29884       229892   -22597.952    1663.2534   -24261.205   -749.25839     257.8474    39.443869    35.599749    26.797086 
   44400    232.46102   -249.77664       229892   -22633.257    1652.6193   -24285.876   -455.58091    258.88415    39.442744    35.598991    26.787206 
   44600     229.9371   -165.84805       229892   -22641.706    1634.6762   -24276.382   -48.421976    260.75686    39.444497    35.600153    26.779542 
   44800    235.59467   -346.27304       229892   -22652.365    1674.8972   -24327.262   -800.11522    261.50306    39.444225    35.600208    26.748852 
   45000    232.60062   -450.87388       229892   -22659.007    1653.6118   -24312.618     -1198.26    261.99795    39.443891    35.601155     26.74372 
   45200    236.19356   -471.26741       229892   -22605.229    1679.1548   -24284.384   -1287.7455    262.55254    39.442758    35.602218    26.737386 
   45400    227.94741   -454.76942       229892   -22729.738     1620.531   -24350.269    -1244.825     260.6553    39.444643    35.604079     26.74103 
   45600    235.71926    -302.0163       229892    -22620.75    1675.7829   -24296.533   -617.05651     260.4799    39.444705     35.60441    26.740021 
   45800     231.8303   -286.67184       229892   -22669.221    1648.1354   -24317.356    -580.9478    260.44197     39.44435    35.604289    26.728293 
   46000    240.58736   -265.76784       229892   -22610.004    1710.3913   -24320.396   -495.16653    260.32299    39.444201    35.604149    26.741117 
   46200    238.25705   -347.07759       229892   -22558.044    1693.8246   -24251.869   -828.25101    261.91447    39.442829    35.605052    26.756213 
   46400    232.79032   -448.57801       229892     -22641.7    1654.9604    -24296.66   -1186.7256    261.97967     39.44111    35.604529    26.755284 
   46600    230.86378   -324.02374       229892   -22609.658    1641.2641   -24250.922   -775.73661    262.44864    39.442268    35.602132    26.749158 
   46800    237.37545   -490.35532       229892   -22599.606    1687.5572   -24287.163   -1423.9621     263.2301    39.443209    35.601412    26.746755 
   47000    232.33788   -329.14944       229892    -22590.44    1651.7439   -24242.184   -734.07511    262.96277    39.445208    35.600957    26.745699 
   47200    228.25275   -360.23594       229892    -22676.88    1622.7018   -24299.582   -875.23287    263.79743    39.443227    35.602008    26.752347 
   47400    229.76421   -293.94205       229892   -22623.404    1633.4471   -24256.851   -599.90825    263.82036    39.443503    35.602355    26.773208 
   47600    234.77872   -324.46128       229892    -22603.35    1669.0964   -24272.447   -681.08431    262.29831    39.442536    35.602613    26.786513 
   47800    230.84077   -251.06618       229892   -22610.181    1641.1006   -24251.282    -432.0448    264.27387    39.439818    35.602447    26.819796 
   48000    239.09418   -281.75645       229892   -22631.732     1699.776   -24331.508   -522.41369    264.22007    39.440316    35.604126     26.80921 
   48200     233.4596   -401.54849       229892    -22650.69    1659.7184   -24310.409   -1041.7628    264.07387    39.441188    35.604678    26.820627 
   48400     232.1505   -313.56673       229892   -22636.723    1650.4117   -24287.135   -684.07571     264.1341     39.44255    35.603218    26.790052 
   48600    229.16551    -354.4157       229892    -22724.27    1629.1908    -24353.46   -857.92483    264.87431    39.443217    35.602888      26.8022 
   48800    233.70204   -500.38371       229892    -22670.73     1661.442   -24332.172   -1437.4393    266.14077    39.442146    35.602083    26.826687 
   49000    237.26176   -318.25383       229892   -22635.622    1686.7489   -24322.371   -720.06328    266.67816     39.44246    35.601395    26.824677 
   49200    234.23074   -344.00165       229892   -22576.964    1665.2006   -24242.165   -803.09655     268.1533    39.441785     35.60114    26.823444 
   49400    235.41344   -310.61361       229892   -22602.213    1673.6088   -24275.822   -664.37662    267.63588    39.440905    35.604626    26.840508 
   49600     234.3896   -278.46204       229892   -22584.088      1666.33   -24250.418   -500.01628    269.48368    39.439595    35.603643    26.837093 
   49800    231.07556   -384.58487       229892   -22552.453    1642.7698   -24195.223   -950.87642     268.8865     39.44083    35.602963    26.851384 
   50000    240.90103    -371.6727       229892   -22600.296    1712.6213   -24312.918   -881.41526    270.86355    39.440063    35.600581    26.874233 
   50200    238.56257   -307.99991       229892    -22570.14    1695.9966   -24266.136   -718.74644    271.13916    39.441176    35.602208    26.877725 
   50400    233.25437   -258.67589       229892   -22611.117    1658.2594   -24269.376   -456.46188    271.98555    39.442107    35.602128    26.867611 
   50600    244.25089   -422.09862       229892   -22506.857    1736.4362   -24243.293   -1107.9297    272.96746    39.443505    35.600017     26.85945 
   50800    233.33251   -424.13857       229892    -22652.26    1658.8149   -24311.075   -1125.0356     273.7912    39.444108    35.600977    26.858886 
   51000    234.80031   -386.86601       229892   -22597.487    1669.2499   -24266.736   -939.31057    275.64518      39.4459    35.601241     26.86938 
   51200    234.43156   -316.24891       229892   -22604.698    1666.6283   -24271.327   -670.23519    277.19862    39.445735    35.603098    26.869433 
   51400    240.41238   -272.11565       229892   -22577.091    1709.1474   -24286.238   -513.32209    277.10042    39.446998    35.602398    26.880464 
   51600    230.77121   -373.07357       229892   -22579.414    1640.6061    -24220.02   -906.15879    278.23023    39.446005     35.60188    26.888306 
   51800     235.7024   -221.84076       229892   -22547.295    1675.6631   -24222.958   -301.16459    279.48401    39.447721    35.599526    26.887717 
   52000    231.67129   -286.00505       229892   -22605.832    1647.0049   -24252.837   -570.24322    279.77689     39.44681    35.598315    26.890864 
   52200    230.64124   -506.53458       229892    -22624.23    1639.6821   -24263.912   -1425.6998     281.6023    39.445928    35.598516    26.887794 
   52400    227.64941   -466.59508       229892    -22691.68    1618.4125   -24310.093   -1228.2128    282.28268    39.446636    35.600093    26.880048 
   52600    236.97232   -370.76115       229892   -22601.964    1684.6912   -24286.655   -880.17461    283.96136     39.44641    35.603799    26.865116 
   52800    240.37334   -392.03751       229892   -22538.235    1708.8699   -24247.105   -964.29474    282.97414    39.446025    35.606241    26.864834 
   53000    238.85311   -454.15334       229892   -22489.501    1698.0622   -24187.563   -1220.3676    283.02889    39.448934     35.60823    26.878203 
   53200    231.57686   -437.53994       229892    -22573.72    1646.3336   -24220.053   -1165.8927    285.07012     39.45125    35.609488    26.893024 
   53400    236.48643   -244.38367       229892   -22557.153    1681.2369    -24238.39   -385.61135    285.70543    39.451492    35.608507    26.914694 
   53600    223.76721   -536.72455       229892   -22645.875     1590.813   -24236.688   -1556.8441    287.31977    39.451329    35.609218    26.918794 
   53800    238.02146   -247.71602       229892   -22581.942    1692.1498   -24274.092   -388.88107      288.525    39.451299    35.607942     26.92392 
   54000    236.36151   -376.58762       229892   -22575.502    1680.3488   -24255.851   -915.41551    289.89945    39.451199    35.609227    26.940217 
   54200    244.60994   -441.81838       229892   -22574.532    1738.9888    -24313.52    -1156.868    290.47589    39.450797    35.608298    26.950022 
   54400    241.20087   -425.21264       229892   -22527.586    1714.7529   -24242.339   -1050.3527    290.83981     39.44969    35.609666    26.937506 
   54600    237.34326    -385.3405       229892    -22587.32    1687.3283   -24274.648   -941.01404    289.89079    39.450656    35.611016    26.933606 
   54800    236.35279   -319.08742       229892   -22589.373    1680.2868    -24269.66   -686.23154    289.97853    39.452166    35.612217     26.93902 
   55000    234.91066   -367.40611       229892   -22541.561    1670.0344   -24211.595   -903.13549    290.93029    39.452807    35.614128    26.927035 
   55200    231.91413   -354.27772       229892   -22693.382    1648.7314   -24342.113   -835.82641    293.87087    39.451306    35.612091    26.916107 
   55400    230.74753   -395.52356       229892   -22661.988    1640.4377   -24302.426   -1010.6846    294.16167    39.449302    35.608099    26.920528 
   55600    235.31478   -389.35273       229892   -22637.751    1672.9074   -24310.659   -966.47008    294.11128    39.448875     35.60628    26.922093 
   55800     245.1765   -438.68906       229892   -22516.435    1743.0166   -24259.451   -1191.3671    292.86566    39.447388    35.603576    26.903224 
   56000    243.82416   -400.87008       229892   -22542.701    1733.4025   -24276.104   -1030.4738    292.95367    39.449356    35.604692    26.902275 
   56200    235.30685   -381.64941       229892   -22517.868     1672.851   -24190.719   -912.73045    293.86744    39.450527    35.606909    26.887871 
   56400    237.51368   -395.12416       229892   -22561.998    1688.5399   -24250.537   -992.55192    294.56148    39.451938    35.607201    26.881086 
   56600    226.46023   -418.06666       229892   -22637.936    1609.9583   -24247.895   -1105.9842    296.58498    39.450438    35.605621    26.888193 
   56800     228.6348   -173.79018       229892    -22558.41    1625.4178   -24183.828   -137.22413    295.77881    39.450934    35.608796    26.882613 
   57000    229.93932   -305.93467       229892   -22617.988     1634.692    -24252.68   -671.88827    296.60827    39.450257     35.61126    26.883122 
   57200    229.85998   -460.87916       229892   -22532.255    1634.1279   -24166.383   -1244.3514    296.44491    39.450839    35.614008    26.881258 
   57400    234.73127   -335.87838       229892   -22590.318     1668.759   -24259.077   -760.14702    295.82055    39.452516    35.610753    26.868545 
   57600    234.00873   -295.18444       229892   -22610.928    1663.6223    -24274.55    -592.8706    297.43455    39.453405    35.611058    26.862065 
   57800    241.43824   -140.00937       229892    -22575.15    1716.4405    -24291.59   -3.4865151    298.16863    39.455221    35.610975     26.86488 
   58000    233.91724   -285.62514       229892   -22579.436    1662.9719   -24242.408   -558.05871    300.72766    39.457102    35.613558    26.873819 
   58200    235.46237   -243.55754       229892   -22538.917    1673.9566   -24212.873   -389.76036    300.81961    39.457928    35.617782    26.870795 
   58400    240.30405   -399.06022       229892   -22585.007    1708.3772   -24293.384   -1059.9691    301.20586     39.45889    35.617399    26.879661 
   58600     227.3987   -439.73992       229892   -22572.287    1616.6301   -24188.918   -1211.4998    301.67764    39.458984    35.616146    26.865821 
   58800    233.25954   -435.34763       229892   -22564.238    1658.2962   -24222.534   -1176.2053    302.61804    39.457871    35.615925    26.870208 
   59000    236.90207   -535.00852       229892   -22516.184    1684.1918   -24200.376   -1571.9045    303.54455    39.456087    35.616732    26.860599 
   59200    238.28877   -348.40794       229892   -22588.849    1694.0502   -24282.899   -853.02068    302.54574    39.454896    35.615386    26.874683 
   59400    233.43325   -377.27839       229892   -22595.076    1659.5311   -24254.607     -966.864    303.46532    39.453615    35.614757    26.884367 
   59600    232.43766   -290.88525       229892   -22620.198    1652.4532   -24272.651   -623.93603    304.69533    39.452056    35.613586    26.890792 
   59800    239.06728   -279.68149       229892   -22557.783    1699.5848   -24257.368   -530.55995    305.71425    39.450648    35.612235    26.905517 
   60000    238.69659   -280.69103       229892   -22555.799    1696.9494   -24252.748   -583.46951    307.50086    39.449605     35.61072    26.918656 
   60200     231.7708   -187.92968       229892   -22587.733    1647.7124   -24235.446   -213.02748    307.75137    39.449783    35.609172    26.934755 
   60400    239.27612   -301.74899       229892   -22552.598    1701.0695   -24253.668   -624.90616    306.59939    39.448064    35.611237    26.933706 
   60600    238.10594   -245.97016       229892   -22539.097    1692.7504   -24231.848   -438.71181    309.40439    39.449616     35.61089    26.941669 
   60800    241.37647   -383.45559       229892   -22460.463    1716.0013   -24176.464   -976.45169    311.29126    39.450968    35.608642    26.926168 
   61000    241.14466     -323.845       229892   -22561.038    1714.3533   -24275.391   -773.45368    313.90553    39.450346    35.607236    26.917655 
   61200    235.59374   -280.34743       229892   -22552.744    1674.8905   -24227.634   -562.49645    315.67805     39.44974    35.604077    26.895967 
   61400    239.81497   -441.64102       229892   -22560.403    1704.9003   -24265.303     -1197.39    315.83823    39.451117     35.60507    26.876541 
   61600    233.65991    -473.6557       229892   -22577.748    1661.1425   -24238.891   -1323.6194    316.56479    39.451136    35.605693    26.891017 
   61800    231.07042   -369.23241       229892   -22612.552    1642.7332   -24255.285    -941.2493    318.11096    39.450073    35.604304    26.892242 
   62000    231.46093   -465.93032       229892   -22550.985    1645.5094   -24196.494    -1253.499    318.88778    39.449238    35.604132    26.868761 
   62200    234.24625   -302.47154       229892   -22542.119    1665.3109    -24207.43   -640.41156    320.96979    39.449168    35.603319    26.863072 
   62400    238.53392   -310.87691       229892    -22542.81     1695.793   -24238.603   -696.19488    322.82243    39.450667    35.601724    26.859991 
   62600    234.59283    -197.3735       229892    -22572.29    1667.7749   -24240.065   -273.17926    322.67708    39.452763    35.601331    26.848304 
   62800    230.18624   -255.97982       229892   -22626.339    1636.4474   -24262.786   -485.67792    323.83064    39.452795    35.601174    26.838006 
   63000    238.59972   -256.40917       229892   -22590.807    1696.2608   -24287.067   -430.13787    324.31971    39.453136    35.603668    26.851118 
   63200    236.82147   -236.92681       229892   -22668.632    1683.6187   -24352.251    -423.3475    325.67922    39.450424    35.606725    26.842194 
   63400    228.48571   -154.30776       229892   -22671.614    1624.3579   -24295.972   -73.949494    328.86987    39.449709    35.610725    26.833013 
   63600    233.01507   -490.08388       229892   -22690.675    1656.5582   -24347.233   -1379.6227     328.5536    39.448176    35.612102    26.822395 
   63800    228.08775   -203.57556       229892   -22725.194    1621.5287   -24346.722   -271.82074    329.89792    39.448762    35.614264    26.817662 
   64000    236.32313   -246.44794       229892    -22612.91     1680.076   -24292.986   -433.58161    330.49239    39.446425     35.61593    26.806711 
   64200    234.02536   -328.95674       229892    -22607.37    1663.7406    -24271.11   -739.14932    329.44459    39.444862     35.61717    26.807663 
   64400    230.34899   -336.58314       229892   -22671.578    1637.6044   -24309.183   -747.50884     332.9479    39.445099    35.615398    26.829144 
   64600    229.69228   -400.66872       229892   -22651.365    1632.9357   -24284.301   -1038.1735    334.62672    39.444903    35.614266    26.828835 
   64800    234.81379   -334.21999       229892   -22665.259    1669.3457   -24334.605    -765.3169    334.15299    39.443571     35.61367    26.841372 
   65000    237.03496   -373.87834       229892   -22529.528    1685.1365   -24214.665   -863.65567    335.15073    39.443917    35.612377    26.874537 
   65200    235.85814   -389.67242       229892   -22560.546    1676.7703   -24237.316   -977.84235    336.76324     39.44198    35.612398    26.899252 
   65400    232.40761   -374.17777       229892   -22575.485    1652.2396   -24227.724    -912.7249    338.32873    39.438799    35.613684    26.898159 
   65600    237.98891   -339.53412       229892   -22494.627    1691.9183   -24186.545   -763.59491    337.34174    39.438901    35.613769    26.878292 
   65800    237.57382   -497.69949       229892   -22551.012    1688.9674   -24239.979   -1368.4816    337.59687    39.441503      35.6133    26.873953 
   66000    236.40937   -134.51394       229892   -22541.986    1680.6891   -24222.675    23.162168    337.20071    39.443358    35.613914    26.878014 
   66200    235.91529   -340.23857       229892   -22592.606    1677.1765   -24269.783   -788.06022    338.45628     39.44429    35.613373    26.868137 
   66400    229.31162   -235.84815       229892   -22596.538    1630.2295   -24226.768   -380.85875    338.26874    39.444555    35.613871     26.84909 
   66600    231.20259   -263.03018       229892   -22638.474    1643.6729   -24282.147   -458.81836    339.03191    39.445693    35.613627     26.85335 
   66800    231.19333   -432.19261       229892   -22613.232     1643.607   -24256.839   -1156.6802    341.30155    39.443827    35.612233    26.871084 
   67000    227.47576   -403.34759       229892   -22673.486    1617.1779   -24290.664   -1025.6815    344.39219    39.443217    35.612526    26.866815 
   67200    233.59572   -339.48807       229892   -22585.313    1660.6861       -24246    -800.0115    344.96194    39.441259    35.612484    26.852605 
   67400    239.54158   -380.34215       229892   -22540.629    1702.9567   -24243.586   -940.00384    345.33996    39.442086    35.613161    26.846445 
   67600     240.9277   -339.53152       229892   -22508.787    1712.8109   -24221.598   -790.61077     347.3756    39.442995    35.612095     26.82694 
   67800    237.84613   -162.30206       229892   -22535.744    1690.9033   -24226.647   -98.364474    346.91283    39.445485     35.61139    26.822216 
   68000    231.48492   -383.29366       229892   -22577.955      1645.68   -24223.635   -1010.4987    347.53577    39.445117     35.60771    26.847031 
   68200    232.29234   -250.80039       229892   -22516.193    1651.4201   -24167.613    -446.5368     348.8068     39.44429    35.605941    26.863149 
   68400    232.22197    -412.9156       229892   -22448.525    1650.9199   -24099.445   -1082.2352    348.51034    39.443711     35.60522     26.85902 
   68600    233.16345   -363.39639       229892   -22513.417    1657.6131    -24171.03   -914.33806    350.47922    39.443388    35.603558    26.865078 
   68800    236.33926   -345.67177       229892   -22465.363    1680.1906   -24145.554   -818.33817    352.23733    39.444961    35.603096    26.852249 
   69000    240.96682   -451.10767       229892   -22488.245    1713.0891   -24201.334   -1254.6519    352.98031    39.444425     35.60107    26.853143 
   69200    231.28943   -390.78459       229892   -22589.229    1644.2902   -24233.519   -944.37828    353.17828    39.445081    35.601382    26.830076 
   69400    227.31855   -372.40626       229892   -22607.279    1616.0603   -24223.339   -929.01181    354.35796    39.446258    35.599555    26.849388 
   69600    235.42745   -536.52571       229892   -22449.479    1673.7084   -24123.187   -1542.4875    355.75651    39.445043    35.602114    26.841548 
   69800    239.16805   -526.39762       229892   -22481.097    1700.3012   -24181.398   -1556.2424    356.77474    39.445049    35.602165    26.838622 
   70000    235.84446   -382.02103       229892   -22543.034     1676.673   -24219.707   -954.44576    356.79627    39.444154    35.602758    26.848175 
   70200    239.93573   -342.53599       229892   -22441.454    1705.7587   -24147.212   -784.84955    357.11153    39.444254    35.604033    26.854582 
   70400    239.47905   -476.29857       229892   -22451.619    1702.5121   -24154.132   -1327.2779    358.33507    39.444582    35.604428     26.85534 
   70600       228.47    -355.7962       229892   -22491.126    1624.2462   -24115.372   -851.96559    358.17107    39.447229    35.603694    26.858433 
   70800    237.01335   -342.16545       229892   -22494.748    1684.9829   -24179.731   -834.00659    358.90829      39.4477    35.605393    26.874691 
   71000    233.64439   -464.16969       229892   -22518.456    1661.0321   -24179.488   -1282.7871    359.01503    39.447742    35.604901    26.876456 
   71200    239.28477    -309.3655       229892   -22530.806    1701.1309   -24231.937   -660.32084    360.44853    39.446327    35.603479    26.890741 
   71400    234.92906   -310.37013       229892   -22560.142    1670.1652   -24230.307   -677.62943    360.39236    39.448955    35.602418    26.892076 
   71600    238.37043   -373.82863       229892   -22477.734    1694.6307   -24172.365   -957.48831    360.86993    39.449197    35.602766    26.903575 
   71800    233.35686   -210.85927       229892   -22569.135     1658.988   -24228.123   -279.89647    360.23968    39.450522    35.602514    26.891098 
   72000    231.91382   -407.03447       229892    -22610.03    1648.7291   -24258.759   -1054.0076    362.32724    39.447177    35.602594    26.870867 
   72200    242.56563   -287.29885       229892   -22473.266    1724.4553   -24197.721   -586.23499    361.79406    39.443854    35.602984    26.889618 
   72400    233.79646   -386.82722       229892   -22522.453    1662.1133   -24184.566   -955.79948    363.80466    39.446959    35.604746    26.900506 
   72600    236.35002   -397.37005       229892   -22512.827    1680.2671   -24193.094   -1039.5414    365.81074    39.447554    35.607808    26.880608 
   72800    234.22835   -495.03263       229892   -22548.714    1665.1837   -24213.898   -1365.1652    365.60265    39.444449    35.609682    26.879823 
   73000    234.87783   -342.74071       229892   -22595.791     1669.801   -24265.592   -769.96657    366.09213    39.444103    35.611554     26.84569 
   73200     232.8321   -296.55731       229892   -22527.031    1655.2574   -24182.289   -598.85933    366.72983     39.44334    35.610423    26.826979 
   73400    236.68644   -462.59119       229892   -22490.579    1682.6588   -24173.238   -1271.2799    367.67952    39.444125    35.608308    26.822935 
   73600    233.34585     -409.864       229892   -22506.771    1658.9098   -24165.681   -1086.2249    366.42464    39.442595    35.607716    26.827113 
   73800    233.48216   -378.47912       229892   -22608.471    1659.8788    -24268.35   -917.81695    367.06885    39.441437    35.607599    26.825364 
   74000     233.5934   -318.56798       229892    -22600.73    1660.6697     -24261.4   -734.84485    368.13816    39.440419    35.606827    26.839409 
   74200    235.51338    -376.7896       229892   -22494.626    1674.3193   -24168.945   -940.89874     369.5468    39.441052    35.605244    26.817549 
   74400    239.29026   -346.37966       229892    -22481.55    1701.1699    -24182.72   -845.27686    369.79916    39.444026    35.606075    26.838452 
   74600    235.14985   -437.41819       229892   -22539.446    1671.7348    -24211.18   -1196.2823    370.58205    39.446259    35.608491    26.858244 
   74800    230.73375   -308.57207       229892   -22575.772    1640.3397   -24216.111   -708.50999    371.70278    39.446526    35.608693    26.880227 
   75000    236.36838   -340.31341       229892   -22578.407    1680.3977   -24258.804     -803.751    373.43213    39.445501    35.607438    26.888314 
   75200    236.62565   -281.63447       229892   -22475.393    1682.2266   -24157.619   -612.75253    373.41747    39.443735    35.606345    26.877368 
   75400     231.7491   -413.36269       229892   -22532.483    1647.5581   -24180.041   -1117.9957    374.50492    39.444191    35.604558    26.873151 
   75600    232.31334   -427.74644       229892   -22533.567    1651.5694   -24185.137    -1103.524    375.52462    39.443753    35.603249    26.862603 
   75800    234.58212   -410.59238       229892   -22484.032    1667.6987   -24151.731    -1054.483    375.59768    39.443893    35.603631    26.892146 
   76000    244.69429   -461.01068       229892   -22488.342    1739.5884   -24227.931   -1328.8039    375.15874    39.443949     35.60134    26.896326 
   76200    234.64571   -364.07687       229892   -22635.475    1668.1508   -24303.625   -872.62343    375.29243     39.44359    35.600336    26.885495 
   76400    229.81982   -432.32265       229892   -22600.052    1633.8424   -24233.895   -1155.1093    376.65643    39.444637    35.598311    26.877655 
   76600    231.25149   -405.92297       229892   -22560.857    1644.0205   -24204.878   -1057.5676    376.59025    39.445597    35.597874    26.882983 
   76800    234.21352   -505.95723       229892    -22551.36    1665.0782   -24216.438   -1476.1489    377.31436     39.44556    35.600003    26.874907 
   77000    237.49994   -546.50107       229892   -22542.483    1688.4422   -24230.925   -1628.6354    377.20393    39.446827    35.601652    26.898888 
   77200    235.84256   -379.14728       229892   -22529.962    1676.6595   -24206.621   -943.51715    378.85148    39.447285    35.603582    26.900313 
   77400    235.90553   -296.66367       229892   -22537.444    1677.1071   -24214.551   -600.46001    380.10232    39.446259    35.603487     26.90007 
   77600    234.99331   -384.58548       229892   -22573.344     1670.622   -24243.966   -924.93122     381.5271    39.446863    35.604552    26.914642 
   77800    237.64888   -385.99222       229892   -22591.174     1689.501   -24280.675   -951.38137    382.31642    39.445037    35.605651    26.912492 
   78000    238.04505   -356.03924       229892   -22584.768    1692.3174   -24277.085   -898.24349      383.448    39.444675     35.60662    26.912515 
   78200    231.88412   -376.86883       229892   -22595.615     1648.518   -24244.133   -862.94072     383.2787    39.445833    35.608345    26.901896 
   78400    236.25389   -415.72269       229892   -22551.724    1679.5837   -24231.308   -1075.1762     383.5256    39.447854     35.60756    26.883422 
   78600    230.50137   -389.02097       229892   -22596.307    1638.6877   -24234.995   -939.81799    385.42725    39.447594    35.608236     26.88045 
   78800    238.78672   -362.68445       229892   -22568.387    1697.5902   -24265.977   -882.52533    385.24999    39.448101    35.608045    26.866006 
   79000    235.49702   -503.40518       229892   -22558.789    1674.2029   -24232.992   -1439.6973    386.06079    39.445704     35.60907    26.872457 
   79200    236.67887   -472.64835       229892   -22503.967     1682.605   -24186.572   -1315.0799    386.18732    39.445458    35.608855    26.862093 
   79400    234.71107   -411.12042       229892    -22517.16    1668.6154   -24185.775   -1111.3773    387.39164    39.445074    35.612019    26.866731 
   79600     225.9915   -311.09452       229892   -22612.346     1606.626   -24218.972   -672.09584    387.26698    39.444674    35.611024    26.849196 
   79800    232.22926   -374.78884       229892   -22592.405    1650.9717   -24243.377   -930.40537      387.786    39.443288    35.609166      26.8522 
   80000    235.92095   -465.53786       229892   -22623.963    1677.2168    -24301.18    -1283.433    389.34375    39.444453    35.608589    26.859564 
   80200    231.09411    -369.1836       229892   -22677.213    1642.9016   -24320.114   -908.19421    389.82437    39.443476    35.606499    26.872958 
   80400    229.67227   -284.87851       229892   -22697.518    1632.7935   -24330.311   -553.55038    390.17405    39.443475    35.606372    26.859564 
   80600    233.17445   -409.24031       229892   -22663.621    1657.6913   -24321.312   -1076.6783    390.18611    39.440018    35.604962    26.832546 
   80800    239.97324   -328.57109       229892   -22630.075    1706.0254     -24336.1   -751.20687    392.19168    39.437721    35.606762    26.819663 
   81000    233.16849   -262.18712       229892   -22652.395    1657.6489   -24310.044    -502.2306    392.39161    39.436534    35.610678    26.816695 
   81200     233.8685   -242.14235       229892   -22613.062    1662.6254   -24275.687   -422.58114    392.00376    39.437574    35.612714    26.811704 
   81400    240.28496   -399.76666       229892   -22609.271    1708.2415   -24317.512   -1022.6852    391.69032    39.437356    35.613698    26.798516 
   81600    230.93503   -294.83839       229892   -22673.062    1641.7707   -24314.833   -581.18225    392.72917    39.436728    35.611232    26.792275 
   81800    228.42162   -322.06319       229892   -22704.783    1623.9023   -24328.685   -698.98117    393.79767    39.436382    35.610449     26.79797 
   82000     231.9022   -262.15077       229892    -22603.26    1648.6465   -24251.907   -482.13968    393.57344    39.436806    35.612053    26.788316 
   82200    235.57119   -242.10201       229892   -22581.709    1674.7302    -24256.44   -396.34131    393.71065    39.436802    35.613212    26.786678 
   82400    235.29059   -349.16344       229892    -22593.52    1672.7354   -24266.255   -830.91806    393.69391    39.437359    35.612408    26.802707 
   82600     240.0536   -386.20165       229892   -22491.845    1706.5967   -24198.442   -963.67133    394.78689     39.43955    35.611008    26.780837 
   82800    230.33887   -287.11921       229892   -22595.459    1637.5324   -24232.992   -570.51827    395.17123    39.441341    35.609347    26.754904 
   83000    236.87272   -388.71632       229892   -22488.722    1683.9831   -24172.706   -986.70298    396.81151    39.442127     35.60883    26.735184 
   83200    237.77348   -243.55818       229892   -22528.544    1690.3868   -24218.931   -387.37338    397.87869     39.44442    35.605225    26.736943 
   83400    237.85507   -378.64264       229892   -22506.016    1690.9669   -24196.983   -939.74776      400.085    39.445972    35.604694    26.736225 
   83600    231.42182   -257.15236       229892   -22631.883    1645.2314   -24277.114    -451.8166    400.50489    39.446255    35.601625    26.749283 
   83800    237.81607     -313.804       229892   -22620.038    1690.6896   -24310.728   -668.30525    401.87709     39.44763    35.602123    26.744081 
   84000    232.97502    -245.2837       229892   -22587.702    1656.2734   -24243.976   -435.10127    401.85602    39.450587    35.604715    26.743936 
   84200    240.02835   -253.08016       229892   -22599.988    1706.4172   -24306.406   -433.98971     403.0731    39.449377    35.605842    26.736868 
   84400     231.8271    -554.3502       229892   -22671.568    1648.1127    -24319.68   -1617.1701    404.06039    39.449142    35.606702    26.743914 
   84600    237.67605   -228.47972       229892   -22602.895    1689.6942   -24292.589   -349.50348    404.01762    39.449439    35.607942    26.774711 
   84800    233.15517   -257.17701       229892   -22595.888    1657.5542   -24253.442     -417.178    404.31664    39.449576     35.60985     26.77933 
   85000    235.20185   -423.31717       229892   -22533.254    1672.1045   -24205.359   -1084.0746    404.73068    39.450126    35.611993    26.792668 
   85200    231.92128    -447.9317       229892   -22501.996    1648.7822   -24150.778   -1283.0182    406.62699    39.452364     35.61156    26.791616 
   85400    230.39115   -347.64277       229892   -22614.879    1637.9041   -24252.783   -823.65803    407.11694    39.455355     35.61007    26.779163 
   85600     229.4431   -417.25842       229892   -22590.369    1631.1642   -24221.533    -1098.514    408.25342    39.453443     35.60797    26.791001 
   85800    231.32699   -469.83568       229892    -22605.87    1644.5573   -24250.428    -1289.677    409.58012    39.453565     35.60592    26.789898 
   86000    232.73653   -334.19948       229892   -22567.839     1654.578   -24222.417   -781.70249    410.09358    39.453177    35.604444    26.774658 
   86200    231.56913   -463.75939       229892   -22503.537    1646.2787   -24149.816   -1282.5479    411.76889    39.451673    35.603628    26.764687 
   86400    233.08221   -446.54152       229892   -22585.647    1657.0355   -24242.683   -1188.0471    412.23877    39.451043    35.602097    26.777173 
   86600    235.22801   -281.12709       229892   -22546.956    1672.2905   -24219.246   -534.01504    411.65553    39.449921    35.600446    26.772334 
   86800    230.10062   -535.96181       229892   -22607.694    1635.8387   -24243.533   -1517.2854    413.17663     39.44939    35.601001    26.773721 
   87000    233.79165   -366.77186       229892   -22566.683    1662.0791   -24228.762   -866.72144    415.59834    39.448398    35.600453    26.769244 
   87200    236.31302   -288.67137       229892   -22521.241    1680.0041   -24201.245   -549.04943    415.46717    39.450145    35.597037    26.776253 
   87400    230.53973   -473.71785       229892   -22614.114    1638.9604   -24253.074   -1308.2156    416.54808    39.449482     35.59588    26.773453 
   87600    240.32909   -368.98989       229892   -22503.724    1708.5553   -24212.279   -893.48157    417.09057    39.450848    35.597168    26.786253 
   87800    240.39698   -379.83258       229892   -22557.661    1709.0379   -24266.699   -887.88192    417.18072    39.454449    35.594829    26.791794 
   88000    235.46771   -202.21226       229892   -22575.269    1673.9946   -24249.264   -237.14184    419.00781    39.454532    35.592964    26.807113 
   88200    238.05075   -271.78601       229892   -22562.079     1692.358   -24254.437    -514.1479    420.56992    39.453135    35.590886    26.799175 
   88400    237.56187   -321.88168       229892   -22518.833    1688.8824   -24207.715   -708.15003    422.74875    39.450364    35.591607    26.786857 
   88600    232.54849   -251.05584       229892   -22581.872    1653.2412   -24235.113   -436.22667    423.50696    39.449615     35.59067    26.755284 
   88800    233.58813   -371.55444       229892   -22596.584    1660.6322   -24257.216   -889.72485    423.65992    39.449495    35.593065    26.732309 
   89000    231.78016   -417.95525       229892   -22543.051    1647.7789   -24190.829   -1068.3342    424.71525    39.446174    35.595428    26.741935 
   89200    235.42138   -147.63145       229892   -22579.786    1673.6652   -24253.452    -24.27683    426.26037    39.445285    35.598958     26.73407 
   89400     232.5353   -285.71597       229892   -22600.627    1653.1474   -24253.774    -600.1614    426.85742    39.443858    35.599818    26.741672 
   89600    229.02842   -454.33496       229892   -22703.815    1628.2162   -24332.031   -1230.8725    426.05419    39.443241    35.601017    26.736682 
   89800    234.26369   -276.11304       229892   -22598.165    1665.4349     -24263.6    -553.9641    427.34012    39.443232    35.598733    26.748828 
   90000    236.01119   -227.03607       229892   -22611.967    1677.8583   -24289.826    -313.0663    427.34734    39.442059     35.59752    26.747446 
   90200    230.79475   -476.27443       229892   -22618.871    1640.7734   -24259.644   -1318.1371    429.16589    39.441621    35.597888    26.755029 
   90400    237.43612    -161.5688       229892   -22587.696    1687.9885   -24275.685   -44.339646    429.50592    39.442072    35.595408    26.754858 
   90600    232.71238   -344.23206       229892   -22606.817    1654.4063   -24261.223   -824.85871    429.38737    39.444227    35.596248    26.747807 
   90800    235.24299   -414.27056       229892   -22629.049     1672.397   -24301.446   -1029.7168    430.74318    39.443572    35.594469    26.748555 
   91000     230.4388   -448.59705       229892   -22648.468    1638.2429   -24286.711   -1185.8812    431.41046    39.441622    35.593254    26.762215 
   91200    226.84173   -183.50598       229892   -22728.213    1612.6705   -24340.883   -165.54778     432.3082    39.439963     35.59159    26.789134 
   91400    230.30719   -379.60785       229892   -22662.163    1637.3072    -24299.47   -976.08094     433.2878     39.44027    35.590797    26.794624 
   91600    239.64544   -429.78539       229892   -22570.389    1703.6951   -24274.085   -1121.1166     434.3987    39.441179    35.588242    26.804224 
   91800    237.80032   -235.50339       229892   -22601.236    1690.5777   -24291.814   -369.59593    433.51527    39.438654    35.585914    26.796786 
   92000     236.5385    -528.1766       229892    -22581.32    1681.6071   -24262.927   -1515.4789    434.96955    39.437918    35.587034    26.803894 
   92200    234.53157   -443.46342       229892   -22575.182    1667.3394   -24242.521   -1182.2406    436.46577    39.438381     35.58843    26.807606 
   92400    240.88675   -412.94845       229892   -22554.253    1712.5198   -24266.772   -1061.8303    436.84695    39.439126    35.586194    26.779427 
   92600    243.84075   -475.67745       229892   -22524.511    1733.5205   -24258.031   -1297.1809    436.47429    39.439036    35.586801     26.77216 
   92800    235.84079   -406.22088       229892   -22618.315    1676.6469   -24294.962   -1005.3248    436.51081    39.439202     35.58815    26.767283 
   93000    227.97429   -454.81986       229892   -22629.873    1620.7221   -24250.595   -1227.0774    436.39856    39.439163    35.586433    26.757673 
   93200     232.3968   -373.69063       229892   -22636.578    1652.1627   -24288.741   -881.04302    435.35152    39.437858    35.585563    26.749035 
   93400    233.80473   -426.66524       229892   -22701.006    1662.1721   -24363.178   -1129.8819    435.22133     39.43702    35.585772    26.751616 
   93600    232.95883   -423.50493       229892   -22643.077    1656.1583   -24299.235     -1137.39    436.10239    39.434789    35.585126    26.773537 
   93800    228.43243   -346.71217       229892   -22668.358    1623.9791   -24292.337   -776.86015    436.29249    39.432353     35.58499    26.782559 
   94000    230.57149    -435.6493       229892   -22654.385    1639.1862   -24293.571    -1141.686    437.61496    39.434023    35.585729     26.77764 
   94200    241.92869    -329.9131       229892   -22573.569    1719.9272   -24293.496   -731.64554    438.10897    39.434594    35.583897    26.778702 
   94400     229.7984   -254.14361       229892   -22627.628    1633.6901   -24261.318   -439.45755    439.16589    39.432354    35.583321     26.77301 
   94600    233.79141   -369.07498       229892   -22576.103    1662.0774   -24238.181   -865.73563    440.02539    39.432173    35.586189    26.767255 
   94800    235.20132   -425.39709       229892    -22613.12    1672.1007   -24285.221   -1157.6203    441.45493    39.433148    35.587687    26.759871 
   95000    234.36181   -366.42649       229892   -22663.864    1666.1325   -24329.996   -884.33312    441.34851    39.433573    35.588408    26.758446 
   95200    231.46569   -373.02851       229892   -22653.955    1645.5433   -24299.498   -933.63409    440.92339    39.436231     35.58972    26.763446 
   95400    233.48812   -393.22365       229892   -22586.039    1659.9212    -24245.96   -1001.8466     441.4062    39.434273    35.591522    26.774546 
   95600    231.17951   -215.28792       229892   -22570.718    1643.5087   -24214.226   -294.04925    442.70437    39.434821    35.589419    26.806975 
   95800    240.04236   -285.83953       229892    -22594.01    1706.5169   -24300.527   -566.14157    444.71218    39.433735      35.5906    26.817076 
   96000    242.49201   -408.20516       229892   -22587.513    1723.9319   -24311.445   -1098.1573    444.72625    39.431497    35.591418    26.799588 
   96200    238.49534   -248.03251       229892   -22482.616    1695.5187   -24178.134   -425.07663    442.98913    39.430739    35.592223    26.780906 
   96400    230.16364   -425.57531       229892   -22572.297    1636.2867   -24208.584   -1131.9626    445.23715    39.430755    35.592995    26.768487 
   96600    234.69844   -461.38927       229892   -22609.527    1668.5257   -24278.052   -1268.7425    443.92163    39.430926    35.592687    26.777097 
   96800    238.71798   -347.17393       229892   -22543.182    1697.1015   -24240.284   -864.71001    443.78706    39.431965    35.594542    26.770465 
   97000    234.16847   -330.34445       229892   -22575.716     1664.758   -24240.474    -710.6685    445.55023     39.43123    35.593524    26.757147 
   97200    236.00837   -424.93207       229892   -22591.306    1677.8383   -24269.145   -1146.2246    446.49852     39.43136    35.592553    26.740746 
   97400     237.0055   -413.84678       229892   -22561.981    1684.9271   -24246.908   -1080.9031    448.53898    39.430149    35.590622    26.739812 
   97600     235.8913   -373.77085       229892   -22525.743     1677.006   -24202.749   -885.33769     448.4507    39.429876    35.590771    26.734438 
   97800    236.56886   -442.42332       229892   -22574.556    1681.8229   -24256.379   -1154.5656    448.09214    39.430085    35.589624    26.724454 
   98000    231.27364   -410.11046       229892   -22614.554     1644.178   -24258.732   -1052.7021     449.6381    39.427498    35.588774    26.716962 
   98200    228.32067   -331.75769       229892   -22621.888    1623.1846   -24245.072   -754.16573    450.75929    39.427193    35.588588    26.733935 
   98400    234.00808   -369.05912       229892   -22538.192    1663.6177    -24201.81   -910.97287    450.70377    39.428893    35.590091    26.727576 
   98600    234.52446    -380.8008       229892   -22553.127    1667.2888   -24220.416   -958.74126    452.26488    39.427229    35.590553    26.744516 
   98800    234.06757   -289.61403       229892   -22548.835    1664.0407   -24212.876   -535.47851    452.63069    39.426378     35.59242    26.760638 
   99000    233.01423   -443.02693       229892   -22593.265    1656.5522   -24249.817   -1142.1529    453.38769    39.425973    35.593046     26.75032 
   99200    232.73194   -452.93367       229892   -22550.036    1654.5454   -24204.581   -1215.3287    454.70184     39.42735    35.591556    26.727128 
   99400    237.40003   -214.89892       229892   -22544.168    1687.7319     -24231.9   -338.80456    455.30205    39.427053    35.590181    26.734901 
   99600    235.77373   -414.32014       229892   -22561.045    1676.1701   -24237.215    -1067.994    456.05426    39.424869    35.589329     26.74057 
   99800    232.55159   -339.88064       229892   -22559.234    1653.2632   -24212.498   -807.65994    457.94118    39.423649    35.588427    26.778308 
  100000    228.43178    -291.6367       229892   -22545.117    1623.9745   -24169.091   -565.74667     458.0457    39.424055     35.58857    26.791282 
  100200     233.6181    -396.5631       229892   -22605.002    1660.8453   -24265.847   -994.05403    458.13494    39.423978    35.591742     26.81021 
  100400    240.36706   -399.15354       229892    -22529.01    1708.8252   -24237.835   -961.83535    459.37303    39.423429    35.591368     26.80378 
  100600    235.73211   -231.98863       229892   -22508.134    1675.8743   -24184.008   -370.79017    460.06029    39.420108    35.592023    26.798583 
  100800    229.61887   -365.10331       229892   -22547.195    1632.4138   -24179.609   -888.15542    459.80561    39.418631    35.594248     26.78147 
[...]
 3976000    222.38059   -396.02298       229892   -24758.578    1580.9552   -26339.533   -998.93853    5797.9043    39.314154    32.744848    26.834604 
 3976200      223.386   -454.38929       229892   -24758.255    1588.1029   -26346.358   -1295.5204    5798.7745    39.315005    32.745314    26.831671 
 3976400    221.86528   -487.44051       229892   -24779.006    1577.2918   -26356.298   -1407.4937    5799.1696    39.315208    32.745333    26.828315 
 3976600    220.58344   -387.55415       229892   -24758.976    1568.1789   -26327.154   -1038.0257    5798.5916    39.314316    32.744887    26.836993 
 3976800    228.47936   -428.17937       229892    -24684.57    1624.3128   -26308.883   -1193.2037    5798.0236    39.313437    32.745508    26.839456 
 3977000    218.17861   -400.06443       229892     -24803.6    1551.0824   -26354.683   -1090.1176    5798.2648    39.313631    32.745287    26.841304 
 3977200    226.22153   -327.23033       229892   -24706.821    1608.2613   -26315.082   -765.65699    5798.3315    39.313316    32.745609    26.845179 
 3977400    227.38981   -389.16409       229892   -24721.351    1616.5669   -26337.918   -1033.3135    5799.3622    39.313226    32.745698    26.849886 
 3977600    222.22657   -444.97979       229892   -24744.871    1579.8602   -26324.732   -1237.6834    5799.5838    39.312443    32.745091    26.840222 
 3977800    224.75443    -496.9255       229892   -24718.518    1597.8314   -26316.349    -1439.393    5799.1038    39.313001    32.745684    26.837362 
 3978000    220.15835   -396.96148       229892   -24760.139    1565.1568   -26325.296   -1035.8789     5799.303    39.313986    32.746825    26.834958 
 3978200    230.22327   -397.04079       229892   -24698.488    1636.7106   -26335.199   -1062.5415    5799.2178    39.314566    32.747279    26.836224 
 3978400    223.08435   -375.46722       229892   -24755.484    1585.9584   -26341.442   -942.56822    5798.4837    39.316205    32.747147     26.82372 
 3978600    221.45272   -422.02714       229892   -24735.926    1574.3588   -26310.285   -1144.7545    5799.4364    39.317109    32.746106    26.820317 
 3978800    226.76095   -394.27541       229892   -24703.435    1612.0962   -26315.531   -1035.6805    5799.8913    39.317825    32.745642    26.829484 
 3979000      222.895   -325.49624       229892   -24717.823    1584.6123   -26302.435   -780.87375    5797.4994    39.318299    32.744868    26.825412 
 3979200    220.14282   -435.65552       229892   -24753.637    1565.0464   -26318.684   -1190.9358    5799.9156    39.319812    32.744576    26.835748 
 3979400    224.04946   -438.32459       229892   -24723.559    1592.8196   -26316.379   -1146.8178    5799.1508    39.320284    32.744371    26.827394 
 3979600    226.90428    -383.1486       229892   -24713.306    1613.1152   -26326.422   -991.79405    5798.9681    39.320684    32.744203    26.826581 
 3979800    224.34926   -422.95256       229892   -24714.472    1594.9509   -26309.423   -1157.6609      5799.78    39.321084    32.744511    26.836005 
 3980000    219.24298   -366.96274       229892   -24721.836    1558.6492   -26280.485   -884.32166    5798.4528    39.320187    32.744938    26.837802 
 3980200     222.9998   -390.77115       229892   -24709.544    1585.3573   -26294.901    -1033.534    5799.5873    39.320454    32.745395    26.835156 
 3980400    222.26188   -363.21617       229892    -24722.03    1580.1113   -26302.141   -901.01354    5797.3994    39.320421    32.746252    26.838606 
 3980600    228.00369   -427.89466       229892    -24669.91    1620.9311   -26290.841   -1209.5309    5798.8784    39.320973    32.747258    26.845356 
 3980800    226.56964   -536.77461       229892   -24673.373    1610.7361   -26284.109   -1587.4583    5799.0809    39.320538    32.747474    26.831801 
 3981000    229.05446   -411.37116       229892   -24692.435    1628.4013   -26320.836   -1091.5554    5797.8389    39.320088    32.746944    26.835235 
 3981200     225.6748   -331.35719       229892   -24677.817    1604.3745   -26282.192   -815.46491    5799.3516    39.322242    32.747691    26.840691 
 3981400    222.67155   -405.85096       229892   -24683.818    1583.0237   -26266.842   -1064.8927    5798.3909    39.321331    32.746641    26.851788 
 3981600    228.48419   -421.43702       229892   -24716.275    1624.3471   -26340.622    -1134.151    5799.0032    39.321785    32.747181    26.843427 
 3981800    224.55062   -335.70804       229892   -24699.165    1596.3824   -26295.547   -830.29527    5799.6323    39.321373    32.746505    26.832765 
 3982000    223.94129   -266.11851       229892   -24737.754    1592.0506   -26329.804   -571.44817    5798.3141    39.321254    32.746106    26.815545 
 3982200    223.80947   -367.95411       229892   -24755.168    1591.1135   -26346.281   -933.67021    5797.9752    39.321429    32.746228    26.814672 
 3982400    227.33197   -325.51587       229892   -24693.395    1616.1557   -26309.551   -771.67389    5797.4398    39.321259    32.746623    26.832178 
 3982600      223.799    -314.4826       229892   -24732.252     1591.039   -26323.291   -749.02544    5797.0932    39.321457    32.745566    26.821987 
 3982800    227.08122   -385.95993       229892   -24666.916    1614.3731   -26281.289   -1009.1475    5796.8465    39.322004    32.745303    26.832434 
 3983000    222.86672   -288.26065       229892   -24665.961    1584.4112   -26250.373   -621.91918    5797.9509    39.321846    32.744696    26.847779 
 3983200    224.06689   -242.03299       229892    -24690.33    1592.9435   -26283.273   -435.49737     5798.308    39.321348    32.743607    26.848351 
 3983400    233.23926   -382.90023       229892   -24641.714     1658.152   -26299.866    -975.6074    5798.2813    39.320489    32.743628    26.853949 
 3983600    222.32348   -389.91451       229892   -24699.776    1580.5492   -26280.325   -1037.7028    5798.6891    39.319865    32.743002    26.856464 
 3983800    227.04415   -347.25498       229892   -24687.739    1614.1096   -26301.848   -869.91907    5799.1338    39.319364    32.742775    26.856824 
 3984000    225.20808   -418.70946       229892   -24717.513    1601.0565    -26318.57   -1133.7416    5798.1017    39.319303    32.741798    26.853604 
 3984200    222.12625   -429.57524       229892   -24696.558     1579.147   -26275.705   -1189.7721    5799.5195    39.319565    32.740525    26.861747 
 3984400    224.27025   -409.31553       229892   -24720.409    1594.3893   -26314.798   -1082.7155    5799.3045    39.320206    32.740637    26.871187 
 3984600    220.63936      -380.73       229892   -24715.812    1568.5764   -26284.388   -986.79411    5797.6033    39.320248     32.74033    26.858085 
 3984800    227.12719   -272.18945       229892   -24705.742    1614.6999   -26320.442   -542.38685    5798.4544    39.320642    32.739905    26.858647 
 3985000    227.85321   -305.52325       229892   -24735.045    1619.8613   -26354.906   -675.77611    5797.6845    39.320528    32.740351    26.837887 
 3985200    228.47123   -451.56854       229892   -24710.222     1624.255   -26334.476    -1282.082     5799.122     39.32053    32.739046    26.833396 
 3985400    220.14523   -378.74286       229892   -24710.583    1565.0635   -26275.646   -972.39366    5798.6213    39.320294    32.738739    26.828872 
 3985600    222.24918    -285.6973       229892   -24686.801     1580.021   -26266.822   -607.20246    5798.1765     39.32057    32.739213    26.836025 
 3985800    225.42715   -327.15085       229892   -24710.931    1602.6139   -26313.545   -757.10183    5798.2488    39.320643    32.739815    26.840013 
 3986000    231.95175   -366.83534       229892    -24609.52    1648.9988   -26258.519   -903.04233    5798.3743    39.322389    32.740189    26.845739 
 3986200    232.60476   -344.09511       229892    -24635.18    1653.6412   -26288.821   -859.61633    5798.3358    39.323633    32.739825    26.854721 
 3986400    218.66339   -412.86111       229892   -24752.702    1554.5287   -26307.231   -1134.0772    5797.8542    39.324036    32.739989    26.856481 
 3986600    222.19773   -478.19504       229892   -24731.905    1579.6552    -26311.56   -1370.5877    5800.4529    39.324043    32.740602    26.873733 
 3986800    222.66849   -467.51267       229892   -24704.106    1583.0019   -26287.108     -1333.27    5800.6593    39.324742    32.741112    26.886393 
 3987000    227.80636   -331.57478       229892   -24684.319    1619.5283   -26303.847   -783.99906    5799.2163    39.325652    32.740975    26.890445 
 3987200    218.21142   -300.13598       229892   -24804.939    1551.3156   -26356.254   -654.52325     5799.534     39.32586    32.741271    26.894016 
 3987400    225.09239   -403.76878       229892   -24728.043     1600.234   -26328.277    -1106.448    5800.0258     39.32598    32.741463    26.885193 
 3987600    226.32225    -466.1833       229892   -24673.365    1608.9774   -26282.343   -1327.7645    5799.9357    39.326177    32.741837    26.891401 
 3987800    225.56021   -305.76998       229892   -24701.536    1603.5598   -26305.095   -653.40498    5800.2414    39.326562    32.741745    26.881506 
 3988000     229.3176   -317.23454       229892   -24683.362     1630.272   -26313.634   -756.01237    5800.2241    39.326607    32.741488    26.874717 
 3988200     227.3057   -341.92526       229892   -24689.035     1615.969   -26305.004   -805.63376    5800.2584    39.325891    32.741295    26.877635 
 3988400    227.02509   -330.24093       229892   -24694.936    1613.9741    -26308.91   -784.06344    5799.0826    39.325245    32.741827    26.884425 
 3988600    221.76989   -299.93132       229892   -24747.502    1576.6136   -26324.116   -671.10869    5798.6978    39.325731    32.741272    26.886545 
 3988800    222.46317   -314.53215       229892   -24735.912    1581.5423   -26317.454   -730.34165    5799.7903    39.325574    32.741058      26.8978 
 3989000    226.43237   -379.09581       229892   -24671.297    1609.7603   -26281.058   -934.42548     5800.859    39.325751     32.74067    26.897513 
 3989200    219.36542   -543.93335       229892    -24731.21    1559.5197    -26290.73   -1610.1183    5800.7415    39.325928    32.740536    26.896685 
 3989400    221.32981   -355.46079       229892   -24743.189    1573.4849   -26316.674   -871.44168    5799.6431    39.325571    32.741318    26.898325 
 3989600      234.314   -239.07565       229892   -24640.393    1665.7926   -26306.185   -429.72084     5799.157    39.326133    32.741409    26.903225 
 3989800     222.9848   -424.73737       229892   -24670.568    1585.2507   -26255.819   -1174.5626    5801.6632    39.326147    32.741855    26.894422 
 3990000    223.65919   -443.66515       229892   -24707.923     1590.045   -26297.968   -1198.7627    5801.3131    39.326875    32.741729    26.889836 
 3990200    222.67759   -373.69606       229892   -24736.464    1583.0666   -26319.531   -995.36871    5801.0712    39.326499    32.742051    26.896863 
 3990400    226.93297   -416.93306       229892   -24695.975    1613.3192   -26309.294   -1124.0811     5800.723    39.326571    32.741352    26.892264 
 3990600    225.15731   -448.85646       229892   -24730.466    1600.6955   -26331.161   -1257.5976    5800.7365    39.326229    32.739595    26.905805 
 3990800    228.84646   -274.74789       229892   -24685.586    1626.9226   -26312.509   -558.76201    5799.1026    39.325948    32.739192    26.887753 
 3991000     224.8444   -251.93579       229892   -24686.306     1598.471   -26284.777   -460.95459    5799.6086    39.324666     32.73795    26.885316 
 3991200    227.71654   -378.25695       229892   -24660.707    1618.8897   -26279.596   -975.23474    5799.8454    39.324726    32.736111    26.885113 
 3991400     231.0748   -262.93707       229892   -24646.107    1642.7643   -26288.871   -536.11305    5798.4163    39.325042    32.735609    26.883724 
 3991600    221.22715   -307.26634       229892   -24711.701    1572.7551   -26284.456   -660.74954     5798.735    39.325166    32.735329    26.884379 
 3991800    216.25027   -345.36928       229892   -24778.672    1537.3733   -26316.045   -842.61021    5799.7796    39.325294    32.735013    26.876747 
 3992000    225.43095   -423.76331       229892   -24701.866    1602.6409   -26304.507    -1158.261    5800.1406    39.325538    32.735096    26.864184 
 3992200    222.89335   -442.64973       229892    -24702.23    1584.6005    -26286.83   -1233.3883    5800.4029    39.326107    32.734758    26.861031 
 3992400    227.44129    -285.7835       229892   -24713.482    1616.9329   -26330.415   -604.83805    5799.6875    39.326406    32.736366    26.856211 
 3992600    223.59646   -351.09001       229892   -24699.896    1589.5991   -26289.495   -833.65901    5799.1534    39.326246    32.736371    26.875145 
 3992800    224.85896   -278.20223       229892   -24704.137    1598.5745   -26302.711   -587.50106    5799.1003    39.326743    32.736967    26.876627 
 3993000    217.98958   -366.64498       229892   -24805.181    1549.7385    -26354.92   -914.36275    5798.9896    39.327565    32.737051    26.887314 
 3993200    227.52054   -475.92295       229892   -24698.863    1617.4963   -26316.359   -1367.2932    5798.8802    39.328069     32.73607    26.891122 
 3993400    230.88264   -390.19254       229892   -24673.547    1641.3983   -26314.945   -986.83466    5800.1444    39.327942    32.736873    26.872493 
 3993600    227.56366   -370.57761       229892   -24695.579    1617.8028   -26313.382   -958.83136    5800.3509     39.32818    32.736369    26.890302 
 3993800    223.06327   -374.66887       229892   -24692.278    1585.8085   -26278.087   -978.60311    5800.8393    39.327921      32.7372    26.875553 
 3994000    228.04836   -454.60957       229892   -24714.274    1621.2487   -26335.522   -1245.1159     5799.277    39.326994    32.736865    26.870168 
 3994200    222.54283   -305.99491       229892   -24761.926    1582.1086   -26344.035   -687.41384    5800.9034    39.327448    32.736338    26.872054 
 3994400    222.47012   -202.38248       229892   -24714.569    1581.5917    -26296.16   -308.54163    5799.7104    39.327564     32.73646    26.859377 
 3994600    224.56186   -362.85003       229892    -24770.39    1596.4623   -26366.852   -890.60768    5798.3736    39.328369    32.736141    26.861902 
 3994800    222.11749   -415.01874       229892   -24707.593    1579.0848   -26286.677   -1140.8279    5800.8846    39.329023    32.735735    26.865853 
 3995000    229.47385   -244.20874       229892   -24679.559    1631.3828   -26310.941   -421.69535    5798.5384    39.329993    32.735528    26.873965 
 3995200    227.13727   -296.16887       229892   -24776.139    1614.7716   -26390.911   -643.77538    5799.9679    39.330154    32.734958    26.887194 
 3995400    229.97603   -462.24173       229892   -24691.696    1634.9529   -26326.649   -1285.4784     5800.387    39.330976    32.734791    26.889038 
 3995600     230.3103   -377.27176       229892   -24644.109    1637.3294   -26281.438   -954.20783    5799.8207    39.331213    32.734728    26.870744 
 3995800    233.40807   -356.96831       229892   -24654.833    1659.3521   -26314.185   -878.96457    5800.6941     39.33124    32.735048    26.880297 
 3996000    233.09048    -292.4552       229892   -24589.872    1657.0943   -26246.967   -641.32232    5799.8741    39.330503    32.733939    26.868018 
 3996200    231.48811   -290.17471       229892   -24653.735    1645.7027   -26299.438   -628.50164    5799.3159    39.330985     32.73525    26.873805 
 3996400    225.56861   -407.02798       229892   -24737.699    1603.6195   -26341.319   -1102.7274    5799.3704    39.330751    32.735687    26.876468 
 3996600    227.14146   -327.84165       229892   -24693.872    1614.8013   -26308.674   -807.23697    5797.8207    39.331078    32.736423    26.866986 
 3996800    221.59143   -372.27747       229892   -24739.832    1575.3448   -26315.177   -935.55259    5801.3023    39.331503     32.73678    26.878659 
 3997000    236.17616   -307.69585       229892   -24615.893    1679.0311   -26294.924   -689.96337    5799.0886    39.331363    32.736054    26.894074 
 3997200    227.78995   -328.80289       229892   -24697.218    1619.4116    -26316.63    -807.4382    5799.5588    39.331272     32.73555     26.89304 
 3997400    222.83355    -419.7038       229892   -24745.657    1584.1754   -26329.832    -1147.959    5800.3841    39.331373    32.735254    26.887097 
 3997600    235.19684   -381.80305       229892   -24718.839    1672.0689   -26390.908   -949.94146    5798.8932    39.332055    32.735352    26.888231 
 3997800    221.34833   -336.87701       229892    -24836.12    1573.6167   -26409.736   -786.38164    5799.4369    39.331124    32.734967    26.878702 
 3998000    228.37499   -396.07139       229892   -24745.222    1623.5708   -26368.793   -1059.4952    5800.8033    39.331545    32.735536    26.878252 
 3998200    219.00808   -474.03314       229892   -24757.162    1556.9793   -26314.141   -1343.9749    5799.6387    39.332399    32.735013    26.891532 
 3998400    230.00275   -431.04755       229892   -24648.338    1635.1429   -26283.481   -1119.3647    5800.0003    39.332427     32.73547    26.896267 
 3998600    225.32609   -290.94812       229892   -24752.167    1601.8954   -26354.062   -592.74664    5798.4764    39.333297    32.736527    26.892447 
 3998800    224.21943   -274.05761       229892   -24705.149     1594.028   -26299.177   -554.17048    5797.9663    39.333347    32.736185    26.893169 
 3999000    226.84743   -432.71009       229892   -24657.034     1612.711   -26269.745   -1168.3447    5798.6889    39.333828    32.737086    26.893676 
 3999200    223.52268    -377.3917       229892   -24734.279    1589.0746   -26323.354   -951.73922    5798.0072    39.333334    32.737097    26.893632 
 3999400    220.11637   -403.36889       229892   -24763.027    1564.8583   -26327.885    -1071.045    5800.0968    39.333519    32.736835    26.880077 
 3999600    224.03304   -348.88995       229892   -24770.193    1592.7028   -26362.895    -842.5398    5799.4173    39.333797     32.73714    26.882632 
 3999800    224.24046   -322.75587       229892   -24692.197    1594.1775   -26286.375   -782.60649    5797.6775    39.333729    32.736769    26.882739 
 4000000    233.01696   -367.77122       229892   -24649.013    1656.5716   -26305.585   -919.37373      5798.47    39.334094    32.737398    26.882288 
Loop time of 7280.95 on 64 procs for 4000000 steps with 9010 atoms

Performance: 474.664 ns/day, 0.051 hours/ns, 549.379 timesteps/s
99.2% CPU use with 64 MPI tasks x no OpenMP threads

MPI task timing breakdown:
Section |  min time  |  avg time  |  max time  |%varavg| %total
---------------------------------------------------------------
Pair    | 0.52805    | 1847.5     | 5319.1     |4687.8 | 25.37
Neigh   | 1.1353     | 219.17     | 766.75     |1816.3 |  3.01
Comm    | 386.15     | 2826.1     | 5441.7     |3083.5 | 38.82
Output  | 198.44     | 198.73     | 199.15     |   1.1 |  2.73
Modify  | 209.56     | 2071.8     | 6599.8     |4903.4 | 28.46
Other   |            | 117.6      |            |       |  1.62

Nlocal:        140.781 ave         426 max           0 min
Histogram: 24 1 23 0 0 0 0 0 0 16
Nghost:        811.219 ave        1177 max          54 min
Histogram: 8 0 0 8 0 0 2 22 0 24
Neighs:         0.00000 ave           0 max           0 min
Histogram: 64 0 0 0 0 0 0 0 0 0
FullNghs:      13877.5 ave       52390 max           0 min
Histogram: 39 9 0 0 0 0 0 0 5 11

Total # of neighbors = 888158
Ave neighs/atom = 98.574695
Neighbor list builds = 432539
Dangerous builds = 0
write_data 		${DIR}/data.${NAME}_run
write_data 		run_8/data.${NAME}_run
write_data 		run_8/data.ibeam_cooling_8_run
System init for write_data ...
Total wall time: 2:01:39
