
### Dimensions ###


### IMPORT ATOMS ###
read_data ../Box_Setup/data.Ibeam_235K
Reading data file ...
  orthogonal box = (0.0000000 0.0000000 0.0000000) to (78.752000 72.975319 40.002420)
  4 by 4 by 4 MPI processor grid
  reading atoms ...
  9010 atoms
  reading velocities ...
  9010 velocities
  read_data CPU = 0.023 seconds
group water type 2
2386 atoms in group water
group graphite type 1
6624 atoms in group graphite


# Define potential
#
pair_style          sw
pair_coeff * * MLC_e.sw C mW

# Add velocity/set timestep
#

fix		1 graphite setforce 0.0 0.0 0.0
velocity 	graphite set 0.0 0.0 0.0
velocity            water create ${START_TEMP} ${SEED} rot yes dist gaussian
velocity            water create 235 ${SEED} rot yes dist gaussian
velocity            water create 235 29101 rot yes dist gaussian
timestep            5.0

# Define output
#
compute 1 water msd
compute 2 water temp


thermo	            100
thermo_style custom step c_2 press vol etotal ke pe c_1[4] density

# Neighbor lists
#
neigh_modify        delay 0 every 1 check yes


# Set fixes
#
fix                 2 water momentum 10 linear 1 1 1 rescale
fix                 3 all nve
fix                 4 water temp/csvr ${START_TEMP} ${START_TEMP} 500.0 928347
fix                 4 water temp/csvr 235 ${START_TEMP} 500.0 928347
fix                 4 water temp/csvr 235 235 500.0 928347

# Run 0.05 ns equilibration
#
dump                1 all custom 100 ${DIR}/eq.${NAME}.dump id type x y z vx vy vz
dump                1 all custom 100 run_8/eq.${NAME}.dump id type x y z vx vy vz
dump                1 all custom 100 run_8/eq.ibeam_cooling_8.dump id type x y z vx vy vz
run                 10000
Neighbor list info ...
  update every 1 steps, delay 0 steps, check yes
  max neighbors/atom: 2000, page size: 100000
  master list distance cutoff = 6.6747184
  ghost atom cutoff = 6.6747184
  binsize = 3.3373592, bins = 24 22 12
  1 neighbor lists, perpetual/occasional/extra = 1 0 0
  (1) pair sw, perpetual
      attributes: full, newton on
      pair build: full/bin/atomonly
      stencil: full/bin/3d
      bin: standard
Per MPI rank memory allocation (min/avg/max) = 3.602 | 4.441 | 4.793 Mbytes
Step c_2 Press Volume TotEng KinEng PotEng c_1[4] Density 
       0          235   -397.42353       229892   -22660.138    1670.6695   -24330.807            0   0.88510766 
     100     234.8321    -368.5066       229892   -22662.741    1669.4758   -24332.217   0.79952025   0.88510766 
     200    230.50518   -371.81363       229892   -22695.267    1638.7148   -24333.982    1.1980432   0.88510766 
     300    231.20187   -432.18203       229892   -22678.874    1643.6677   -24322.542     1.525924   0.88510766 
     400    232.68603   -22.099158       229892   -22677.861     1654.219    -24332.08    1.7308945   0.88510766 
     500     238.1423   -369.90647       229892   -22666.012    1693.0088   -24359.021    1.9928762   0.88510766 
     600    235.63154   -537.01714       229892   -22596.078    1675.1593   -24271.237     2.433869   0.88510766 
     700    238.62336    -218.0989       229892   -22603.851    1696.4289    -24300.28    2.7257238   0.88510766 
     800    240.54271   -352.64958       229892    -22583.88    1710.0739   -24293.954    3.1075042   0.88510766 
     900    234.14559   -270.61693       229892   -22606.476    1664.5953   -24271.071     3.494523   0.88510766 
    1000    238.72788   -401.04406       229892   -22622.836    1697.1719   -24320.008     3.872601   0.88510766 
    1100    243.52254   -503.96589       229892   -22591.263    1731.2583   -24322.521     4.183819   0.88510766 
    1200    235.99273   -250.38986       229892   -22598.143    1677.7271    -24275.87    4.3476181   0.88510766 
    1300    236.09725   -403.09298       229892   -22564.487    1678.4701   -24242.957    4.5676895   0.88510766 
    1400    233.30389   -406.30283       229892   -22591.085    1658.6115   -24249.697    5.0486246   0.88510766 
    1500     234.6416   -200.54901       229892   -22612.417    1668.1216   -24280.538    5.4056753   0.88510766 
    1600    231.04102   -329.96937       229892   -22572.992    1642.5242   -24215.516    5.7628456   0.88510766 
    1700    236.02028   -362.54763       229892   -22578.486    1677.9229   -24256.409    6.1083049   0.88510766 
    1800    238.20261   -429.81004       229892   -22551.061    1693.4376   -24244.498    6.2821286   0.88510766 
    1900     244.1884   -374.46238       229892    -22519.58     1735.992   -24255.572    6.5507859   0.88510766 
    2000    237.80821   -466.88338       229892   -22488.004    1690.6337   -24178.638    6.8615265   0.88510766 
    2100    232.79408   -379.52167       229892   -22595.255    1654.9871   -24250.242    7.2256141   0.88510766 
    2200    238.10225   -335.34858       229892   -22572.064    1692.7241   -24264.788    7.5162977   0.88510766 
    2300    234.95542    -445.3117       229892   -22546.149    1670.3526   -24216.502    7.8079655   0.88510766 
    2400    229.49112   -304.31225       229892   -22535.007    1631.5056   -24166.512    8.1952405   0.88510766 
    2500    239.52656   -343.24236       229892   -22562.792    1702.8499   -24265.642    8.5385601   0.88510766 
    2600    232.39463   -341.61623       229892   -22564.214    1652.1473   -24216.361    8.9402007   0.88510766 
    2700    235.48254   -545.93817       229892    -22553.19       1674.1    -24227.29     9.423311   0.88510766 
    2800    234.50397    -456.5216       229892   -22495.277    1667.1431    -24162.42    9.9466076   0.88510766 
    2900    236.44011   -406.04867       229892   -22497.906    1680.9076   -24178.814    10.107894   0.88510766 
    3000     240.3759   -390.23069       229892   -22489.592     1708.888    -24198.48    10.540113   0.88510766 
    3100    241.53401   -373.93462       229892   -22483.752    1717.1213   -24200.873    11.297076   0.88510766 
    3200    233.84611    -513.8312       229892     -22543.9    1662.4662   -24206.366    11.652524   0.88510766 
    3300    230.85366   -209.10279       229892   -22622.199    1641.1922   -24263.392    11.930925   0.88510766 
    3400    231.15535   -515.26181       229892   -22559.379     1643.337   -24202.716    12.319234   0.88510766 
    3500    231.14589   -432.43821       229892   -22547.109    1643.2697   -24190.379     12.76521   0.88510766 
    3600    234.03726   -423.46977       229892   -22551.071    1663.8251   -24214.897    13.307149   0.88510766 
    3700    237.42545   -363.46709       229892   -22529.064    1687.9126   -24216.977    13.751394   0.88510766 
    3800    236.17729   -422.63548       229892   -22522.363    1679.0392   -24201.402    13.942499   0.88510766 
    3900    239.79794   -342.14162       229892    -22538.49    1704.7792    -24243.27    14.273755   0.88510766 
    4000    240.11531   -425.47689       229892   -22591.339    1707.0354   -24298.374    14.437639   0.88510766 
    4100    237.45406   -402.26471       229892   -22586.116     1688.116   -24274.232    14.447308   0.88510766 
    4200    239.06265   -195.00482       229892   -22569.298    1699.5519    -24268.85    14.996707   0.88510766 
    4300    234.75523   -468.33341       229892   -22635.625    1668.9294   -24304.554     15.21667   0.88510766 
    4400    234.24576   -270.52535       229892   -22604.802    1665.3075   -24270.109    15.744908   0.88510766 
    4500    234.33876   -353.89642       229892   -22644.659    1665.9686   -24310.627    16.310719   0.88510766 
    4600    231.38148   -188.59545       229892   -22696.991    1644.9446   -24341.936    16.401369   0.88510766 
    4700     234.3677   -308.85881       229892   -22630.718    1666.1744   -24296.892    16.463426   0.88510766 
    4800    238.74112   -333.80337       229892   -22590.382     1697.266   -24287.648    16.792667   0.88510766 
    4900    233.57298   -323.73471       229892   -22555.024    1660.5245   -24215.549    17.349976   0.88510766 
    5000    235.90454   -304.22142       229892   -22611.777    1677.1001   -24288.877    17.823853   0.88510766 
    5100    240.47165   -191.95464       229892   -22574.504    1709.5687   -24284.073    18.192068   0.88510766 
    5200    232.37975   -515.30166       229892   -22605.864    1652.0416   -24257.906    18.351357   0.88510766 
    5300    231.39478   -456.60654       229892   -22658.351    1645.0392    -24303.39    18.517166   0.88510766 
    5400    234.59033   -218.73022       229892   -22642.337    1667.7571   -24310.094    18.887951   0.88510766 
    5500    232.50342   -379.09946       229892   -22630.954    1652.9207   -24283.875    19.310637   0.88510766 
    5600    233.18105   -197.22063       229892   -22650.032    1657.7382   -24307.771    19.594774   0.88510766 
    5700    235.03899   -327.92957       229892    -22631.57    1670.9467   -24302.516    19.826955   0.88510766 
    5800    235.46461    -349.8621       229892   -22615.474    1673.9725   -24289.447    20.452974   0.88510766 
    5900    232.19222   -345.31238       229892   -22643.274    1650.7084   -24293.983    20.802219   0.88510766 
    6000    235.53329   -303.69324       229892   -22659.492    1674.4608   -24333.953    20.904763   0.88510766 
    6100    233.14883   -453.49211       229892   -22689.728    1657.5091   -24347.237    20.870033   0.88510766 
    6200    232.02617   -301.25214       229892   -22705.672    1649.5279     -24355.2    20.813692   0.88510766 
    6300    237.49787   -354.36122       229892   -22638.623    1688.4275    -24327.05    21.061781   0.88510766 
    6400    231.57267   -494.40155       229892   -22679.338    1646.3038   -24325.642    21.429026   0.88510766 
    6500    234.08711   -245.60991       229892   -22696.177    1664.1795   -24360.357    21.695427   0.88510766 
    6600    232.19991   -269.67759       229892   -22701.959     1650.763   -24352.722    21.959323   0.88510766 
    6700    233.69529   -273.78697       229892   -22718.803    1661.3941   -24380.197    22.243553   0.88510766 
    6800    231.75327    -349.8142       229892    -22694.42    1647.5878   -24342.008     22.34848   0.88510766 
    6900    237.27678   -359.94556       229892   -22649.867    1686.8557   -24336.723    22.478178   0.88510766 
    7000    236.40284   -287.24408       229892   -22649.611    1680.6426   -24330.253    22.626469   0.88510766 
    7100    232.07248   -343.39775       229892   -22653.248    1649.8571   -24303.105    22.999081   0.88510766 
    7200    228.71143   -272.85407       229892   -22715.096    1625.9626   -24341.059    23.323338   0.88510766 
    7300    224.62749   -481.03548       229892   -22728.414     1596.929   -24325.343    23.543745   0.88510766 
    7400    230.04038   -282.23237       229892   -22674.205    1635.4104   -24309.615    23.758355   0.88510766 
    7500    232.26885    -479.9691       229892    -22643.68    1651.2531   -24294.934    23.947288   0.88510766 
    7600    236.57464   -521.40508       229892   -22601.307     1681.864   -24283.171    23.977201   0.88510766 
    7700    231.08026   -149.83937       229892   -22617.542    1642.8031   -24260.345    23.995695   0.88510766 
    7800    229.85838   -356.24764       229892    -22669.86    1634.1165   -24303.977    24.137068   0.88510766 
    7900    235.51863   -309.97987       229892   -22629.344    1674.3565   -24303.701     24.56269   0.88510766 
    8000    238.08379   -367.47196       229892   -22565.793    1692.5929   -24258.386    24.600701   0.88510766 
    8100    240.96517   -364.67449       229892   -22553.315    1713.0773   -24266.392    24.902294   0.88510766 
    8200    233.78836   -245.90576       229892     -22577.9    1662.0557   -24239.956    25.061784   0.88510766 
    8300    238.39334   -480.12916       229892   -22527.942    1694.7935   -24222.735    25.443501   0.88510766 
    8400    235.36967   -306.79842       229892   -22512.933    1673.2976   -24186.231    26.083215   0.88510766 
    8500    234.31051   -399.68609       229892   -22555.894    1665.7678   -24221.662    26.912294   0.88510766 
    8600    233.76784   -350.17265       229892   -22552.673    1661.9098   -24214.583    27.391077   0.88510766 
    8700      235.841   -464.06966       229892   -22566.492    1676.6484   -24243.141    27.956913   0.88510766 
    8800     234.3121   -490.53194       229892   -22557.724    1665.7791   -24223.503    28.273017   0.88510766 
    8900    229.57744   -172.75663       229892   -22583.353    1632.1193   -24215.473    28.650479   0.88510766 
    9000    240.80138   -256.62311       229892   -22547.061    1711.9129   -24258.974    29.367833   0.88510766 
    9100    235.44857   -415.24074       229892   -22576.439    1673.8585   -24250.298    29.799905   0.88510766 
    9200    239.23238   -403.29094       229892   -22513.291    1700.7585   -24214.049    30.221629   0.88510766 
    9300    234.07794   -362.33325       229892   -22580.781    1664.1144   -24244.895    30.586096   0.88510766 
    9400    232.56217   -260.10422       229892   -22552.397    1653.3384   -24205.735    30.773144   0.88510766 
    9500    228.98592   -451.13704       229892   -22604.725     1627.914   -24232.639    30.908534   0.88510766 
    9600    233.36067   -359.62331       229892   -22613.612    1659.0151   -24272.627    31.028966   0.88510766 
    9700    239.37817    -98.47104       229892   -22590.207    1701.7949   -24292.002    31.010052   0.88510766 
    9800    237.41229   -485.56898       229892   -22554.535    1687.8191   -24242.354    31.470735   0.88510766 
    9900    237.84794   -443.47723       229892   -22575.698    1690.9162   -24266.614    31.764858   0.88510766 
   10000    232.23997   -240.51564       229892   -22583.039    1651.0478   -24234.087    31.988107   0.88510766 
Loop time of 18.1629 on 64 procs for 10000 steps with 9010 atoms

Performance: 237.848 ns/day, 0.101 hours/ns, 550.574 timesteps/s
99.1% CPU use with 64 MPI tasks x no OpenMP threads

MPI task timing breakdown:
Section |  min time  |  avg time  |  max time  |%varavg| %total
---------------------------------------------------------------
Pair    | 0.0012724  | 4.9257     | 14.838     | 245.4 | 27.12
Neigh   | 0.0014474  | 0.29237    | 1.0191     |  66.3 |  1.61
Comm    | 0.71008    | 7.0386     | 14.141     | 178.2 | 38.75
Output  | 0.20048    | 0.20171    | 0.2037     |   0.2 |  1.11
Modify  | 0.46472    | 5.3948     | 17.084     | 262.6 | 29.70
Other   |            | 0.3096     |            |       |  1.70

Nlocal:        140.781 ave         426 max           0 min
Histogram: 24 6 18 0 0 0 0 0 0 16
Nghost:        812.359 ave        1200 max          38 min
Histogram: 8 0 0 8 0 0 8 16 2 22
Neighs:         0.00000 ave           0 max           0 min
Histogram: 64 0 0 0 0 0 0 0 0 0
FullNghs:      14003.7 ave       52026 max           0 min
Histogram: 35 13 0 0 0 0 0 0 3 13

Total # of neighbors = 896236
Ave neighs/atom = 99.471254
Neighbor list builds = 573
Dangerous builds = 0
write_data 	    ${DIR}/data.${NAME}_eq
write_data 	    run_8/data.${NAME}_eq
write_data 	    run_8/data.ibeam_cooling_8_eq
System init for write_data ...

undump              1
unfix               4



################################################
#######         Run Simulation         #########
################################################

reset_timestep      0
timestep	    10.0
log                 ${DIR}/log.run_${NAME}
log                 run_8/log.run_${NAME}
log                 run_8/log.run_ibeam_cooling_8
