LAMMPS data file via write_data, version 29 Oct 2020, timestep = 50000

6871 atoms
2 atom types

0.0 68.908 xlo xhi
0.0 68.92587069519459 ylo yhi
0.0 27.952761301163882 zlo zhi

Masses

1 12.01
2 18.015

Atoms # atomic

1 1 0.0 2.8417180249513345 1.677 0 0 0
3 1 0.0 0.0 1.677 0 0 0
5 1 1.2305 0.7104295062378347 1.677 0 0 0
12 1 1.2305 2.1312885187135 1.677 0 0 0
14 1 2.461 2.8417180249513345 1.677 0 0 0
16 1 2.461 0.0 1.677 0 0 0
18 1 3.6915 0.7104295062378347 1.677 0 0 0
33 1 3.6914999999999996 2.1312885187135 1.677 0 0 0
35 1 4.922 2.841718024951334 1.677 0 0 0
37 1 4.922 0.0 1.677 0 0 0
39 1 6.1525 0.7104295062378343 1.677 0 0 0
62 1 6.1525 2.1312885187134993 1.677 0 0 0
64 1 7.382999999999999 2.8417180249513345 1.677 0 0 0
66 1 7.382999999999999 0.0 1.677 0 0 0
68 1 8.613499999999998 0.7104295062378343 1.677 0 0 0
96 1 8.613499999999998 2.1312885187135002 1.677 0 0 0
98 1 9.844 2.8417180249513336 1.677 0 0 0
100 1 9.844 0.0 1.677 0 0 0
102 1 11.0745 0.7104295062378334 1.677 0 0 0
130 1 11.0745 2.1312885187135002 1.677 0 0 0
132 1 12.305 2.8417180249513336 1.677 0 0 0
134 1 12.305 0.0 1.677 0 0 0
136 1 13.535499999999999 0.7104295062378352 1.677 0 0 0
164 1 13.535499999999999 2.1312885187134984 1.677 0 0 0
166 1 14.765999999999998 2.8417180249513354 1.677 0 0 0
168 1 14.765999999999998 0.0 1.677 0 0 0
170 1 15.9965 0.7104295062378352 1.677 0 0 0
198 1 15.9965 2.1312885187135002 1.677 0 0 0
200 1 17.226999999999997 2.8417180249513336 1.677 0 0 0
202 1 17.227 0.0 1.677 0 0 0
204 1 18.457499999999996 0.7104295062378334 1.677 0 0 0
232 1 18.4575 2.1312885187135002 1.677 0 0 0
234 1 19.688 2.841718024951337 1.677 0 0 0
236 1 19.688 0.0 1.677 0 0 0
238 1 20.918499999999998 0.7104295062378405 1.677 0 0 0
266 1 20.918499999999998 2.1312885187135002 1.677 0 0 0
268 1 22.149 2.8417180249513407 1.677 0 0 0
270 1 22.148999999999997 0.0 1.677 0 0 0
8 1 0.0 4.262577037427 1.677 0 0 0
10 1 1.2305000000000001 4.973006543664834 1.677 0 0 0
25 1 1.2305 6.393865556140499 1.677 0 0 0
29 1 2.461 4.262577037427 1.677 0 0 0
31 1 3.6914999999999996 4.973006543664834 1.677 0 0 0
54 1 3.6914999999999996 6.393865556140499 1.677 0 0 0
58 1 4.922 4.262577037426999 1.677 0 0 0
60 1 6.1525 4.973006543664834 1.677 0 0 0
88 1 6.1525 6.393865556140499 1.677 0 0 0
92 1 7.382999999999999 4.262577037427 1.677 0 0 0
94 1 8.6135 4.973006543664834 1.677 0 0 0
122 1 8.6135 6.3938655561405 1.677 0 0 0
126 1 9.844 4.2625770374270004 1.677 0 0 0
128 1 11.074499999999999 4.973006543664834 1.677 0 0 0
156 1 11.074499999999999 6.393865556140499 1.677 0 0 0
160 1 12.305 4.262577037426999 1.677 0 0 0
162 1 13.535499999999999 4.973006543664834 1.677 0 0 0
190 1 13.535499999999999 6.393865556140499 1.677 0 0 0
194 1 14.766 4.262577037426999 1.677 0 0 0
196 1 15.996499999999997 4.973006543664834 1.677 0 0 0
224 1 15.9965 6.393865556140499 1.677 0 0 0
228 1 17.226999999999997 4.2625770374270004 1.677 0 0 0
230 1 18.4575 4.973006543664837 1.677 0 0 0
258 1 18.457499999999996 6.393865556140501 1.677 0 0 0
262 1 19.688 4.2625770374270004 1.677 0 0 0
264 1 20.9185 4.973006543664837 1.677 0 0 0
291 1 20.9185 6.393865556140501 1.677 0 0 0
295 1 22.149 4.2625770374270004 1.677 0 0 0
6 1 0.0 7.104295062378334 1.677 0 0 0
21 1 0.0 8.525154074854 1.677 0 0 0
23 1 1.2304999999999997 9.235583581091834 1.677 0 0 0
27 1 2.461 7.104295062378334 1.677 0 0 0
50 1 2.4609999999999994 8.525154074854 1.677 0 0 0
52 1 3.6915 9.235583581091834 1.677 0 0 0
56 1 4.922 7.104295062378334 1.677 0 0 0
84 1 4.922 8.525154074854 1.677 0 0 0
86 1 6.1525 9.235583581091834 1.677 0 0 0
90 1 7.383 7.104295062378334 1.677 0 0 0
118 1 7.383 8.525154074854 1.677 0 0 0
120 1 8.613499999999998 9.235583581091834 1.677 0 0 0
124 1 9.844 7.104295062378334 1.677 0 0 0
152 1 9.844 8.525154074853997 1.677 0 0 0
154 1 11.074499999999999 9.235583581091834 1.677 0 0 0
158 1 12.305 7.104295062378334 1.677 0 0 0
186 1 12.305 8.525154074854 1.677 0 0 0
188 1 13.535499999999999 9.235583581091833 1.677 0 0 0
192 1 14.765999999999998 7.104295062378332 1.677 0 0 0
220 1 14.765999999999998 8.525154074854 1.677 0 0 0
222 1 15.9965 9.235583581091836 1.677 0 0 0
226 1 17.227 7.104295062378338 1.677 0 0 0
254 1 17.226999999999997 8.525154074854 1.677 0 0 0
256 1 18.4575 9.235583581091838 1.677 0 0 0
260 1 19.688000000000002 7.104295062378338 1.677 0 0 0
287 1 19.688 8.525154074854001 1.677 0 0 0
289 1 20.9185 9.235583581091834 1.677 0 0 0
293 1 22.149 7.104295062378334 1.677 0 0 0
312 1 22.149 8.525154074854001 1.677 0 0 0
19 1 0.0 11.366872099805333 1.677 0 0 0
42 1 0.0 12.787731112280998 1.677 0 0 0
44 1 1.2305000000000001 13.498160618518833 1.677 0 0 0
46 1 1.2304999999999997 10.656442593567498 1.677 0 0 0
48 1 2.461 11.366872099805335 1.677 0 0 0
76 1 2.461 12.787731112280998 1.677 0 0 0
78 1 3.6915 13.498160618518833 1.677 0 0 0
80 1 3.6914999999999996 10.6564425935675 1.677 0 0 0
82 1 4.922 11.366872099805333 1.677 0 0 0
110 1 4.922 12.787731112281 1.677 0 0 0
112 1 6.152499999999999 13.498160618518833 1.677 0 0 0
114 1 6.1525 10.6564425935675 1.677 0 0 0
116 1 7.382999999999999 11.366872099805335 1.677 0 0 0
144 1 7.382999999999999 12.787731112280998 1.677 0 0 0
146 1 8.6135 13.498160618518835 1.677 0 0 0
148 1 8.613499999999998 10.656442593567498 1.677 0 0 0
150 1 9.844 11.366872099805335 1.677 0 0 0
178 1 9.844 12.787731112280998 1.677 0 0 0
180 1 11.074499999999999 13.498160618518833 1.677 0 0 0
182 1 11.0745 10.656442593567498 1.677 0 0 0
184 1 12.304999999999998 11.366872099805333 1.677 0 0 0
212 1 12.305 12.787731112280998 1.677 0 0 0
214 1 13.535499999999999 13.498160618518837 1.677 0 0 0
216 1 13.535499999999999 10.6564425935675 1.677 0 0 0
218 1 14.765999999999998 11.366872099805336 1.677 0 0 0
246 1 14.765999999999998 12.787731112281 1.677 0 0 0
248 1 15.996500000000001 13.498160618518837 1.677 0 0 0
250 1 15.996499999999997 10.6564425935675 1.677 0 0 0
252 1 17.227 11.366872099805336 1.677 0 0 0
279 1 17.227 12.787731112281 1.677 0 0 0
281 1 18.4575 13.498160618518833 1.677 0 0 0
283 1 18.4575 10.6564425935675 1.677 0 0 0
285 1 19.688 11.366872099805335 1.677 0 0 0
304 1 19.688 12.787731112281 1.677 0 0 0
306 1 20.9185 13.498160618518835 1.677 0 0 0
308 1 20.918499999999998 10.656442593567501 1.677 0 0 0
310 1 22.149 11.366872099805335 1.677 0 0 0
321 1 22.148999999999997 12.787731112280998 1.677 0 0 0
40 1 0.0 15.629449137232333 1.677 0 0 0
69 1 0.0 17.050308149708 1.677 0 0 0
72 1 1.2305000000000001 14.919019630994498 1.677 0 0 0
74 1 2.4610000000000003 15.629449137232331 1.677 0 0 0
103 1 2.4610000000000003 17.050308149708 1.677 0 0 0
106 1 3.6915 14.919019630994498 1.677 0 0 0
108 1 4.921999999999999 15.629449137232333 1.677 0 0 0
137 1 4.921999999999999 17.050308149708 1.677 0 0 0
140 1 6.152499999999999 14.919019630994498 1.677 0 0 0
142 1 7.382999999999999 15.629449137232333 1.677 0 0 0
171 1 7.383 17.050308149708 1.677 0 0 0
174 1 8.6135 14.919019630994498 1.677 0 0 0
176 1 9.844 15.629449137232331 1.677 0 0 0
205 1 9.844 17.050308149708 1.677 0 0 0
208 1 11.074499999999999 14.919019630994498 1.677 0 0 0
210 1 12.305 15.629449137232337 1.677 0 0 0
239 1 12.304999999999998 17.050308149708 1.677 0 0 0
242 1 13.535499999999999 14.919019630994498 1.677 0 0 0
244 1 14.766 15.629449137232337 1.677 0 0 0
272 1 14.766 17.050308149708 1.677 0 0 0
275 1 15.9965 14.9190196309945 1.677 0 0 0
277 1 17.227 15.629449137232333 1.677 0 0 0
297 1 17.226999999999997 17.050308149708002 1.677 0 0 0
300 1 18.4575 14.9190196309945 1.677 0 0 0
302 1 19.688000000000002 15.629449137232333 1.677 0 0 0
314 1 19.688 17.050308149707995 1.677 0 0 0
317 1 20.918499999999998 14.919019630994496 1.677 0 0 0
319 1 22.149 15.629449137232335 1.677 0 0 0
323 1 22.149 17.050308149707995 1.677 0 0 0
2 1 0.0 1.420859012475665 5.031000000000001 0 0 0
4 1 0.0 0.0 5.031000000000001 0 0 0
13 1 1.2305 2.1312885187135 5.031000000000001 0 0 0
15 1 2.461 1.420859012475665 5.031000000000001 0 0 0
17 1 2.461 0.0 5.031000000000001 0 0 0
34 1 3.6914999999999996 2.1312885187135 5.031000000000001 0 0 0
36 1 4.922 1.420859012475665 5.031000000000001 0 0 0
38 1 4.922 0.0 5.031000000000001 0 0 0
63 1 6.1525 2.1312885187134993 5.031000000000001 0 0 0
65 1 7.382999999999999 1.420859012475666 5.031000000000001 0 0 0
67 1 7.382999999999999 0.0 5.031000000000001 0 0 0
97 1 8.613499999999998 2.1312885187135002 5.031000000000001 0 0 0
99 1 9.844 1.420859012475666 5.031000000000001 0 0 0
101 1 9.844 0.0 5.031000000000001 0 0 0
131 1 11.0745 2.1312885187135002 5.031000000000001 0 0 0
133 1 12.305 1.420859012475665 5.031000000000001 0 0 0
135 1 12.305 0.0 5.031000000000001 0 0 0
165 1 13.535499999999999 2.1312885187134984 5.031000000000001 0 0 0
167 1 14.765999999999998 1.420859012475665 5.031000000000001 0 0 0
169 1 14.765999999999998 0.0 5.031000000000001 0 0 0
199 1 15.9965 2.1312885187135002 5.031000000000001 0 0 0
201 1 17.226999999999997 1.420859012475665 5.031000000000001 0 0 0
203 1 17.227 0.0 5.031000000000001 0 0 0
233 1 18.4575 2.1312885187135002 5.031000000000001 0 0 0
235 1 19.687999999999995 1.4208590124756633 5.031000000000001 0 0 0
237 1 19.688 0.0 5.031000000000001 0 0 0
267 1 20.918499999999998 2.1312885187135002 5.031000000000001 0 0 0
269 1 22.148999999999997 1.4208590124756597 5.031000000000001 0 0 0
271 1 22.148999999999997 0.0 5.031000000000001 0 0 0
7 1 0.0 5.683436049902665 5.031000000000001 0 0 0
9 1 0.0 4.262577037427 5.031000000000001 0 0 0
11 1 1.2305 3.552147531189165 5.031000000000001 0 0 0
26 1 1.2305 6.393865556140499 5.031000000000001 0 0 0
28 1 2.461 5.683436049902665 5.031000000000001 0 0 0
30 1 2.461 4.262577037427 5.031000000000001 0 0 0
32 1 3.6914999999999996 3.552147531189165 5.031000000000001 0 0 0
55 1 3.6914999999999996 6.393865556140499 5.031000000000001 0 0 0
57 1 4.922 5.6834360499026655 5.031000000000001 0 0 0
59 1 4.922 4.262577037426999 5.031000000000001 0 0 0
61 1 6.1525 3.5521475311891653 5.031000000000001 0 0 0
89 1 6.1525 6.393865556140499 5.031000000000001 0 0 0
91 1 7.382999999999999 5.6834360499026655 5.031000000000001 0 0 0
93 1 7.382999999999999 4.262577037427 5.031000000000001 0 0 0
95 1 8.613499999999998 3.552147531189166 5.031000000000001 0 0 0
123 1 8.6135 6.3938655561405 5.031000000000001 0 0 0
125 1 9.844 5.683436049902665 5.031000000000001 0 0 0
127 1 9.844 4.2625770374270004 5.031000000000001 0 0 0
129 1 11.0745 3.5521475311891644 5.031000000000001 0 0 0
157 1 11.074499999999999 6.393865556140499 5.031000000000001 0 0 0
159 1 12.305 5.683436049902665 5.031000000000001 0 0 0
161 1 12.305 4.262577037426999 5.031000000000001 0 0 0
163 1 13.535499999999999 3.5521475311891653 5.031000000000001 0 0 0
191 1 13.535499999999999 6.393865556140499 5.031000000000001 0 0 0
193 1 14.765999999999998 5.6834360499026655 5.031000000000001 0 0 0
195 1 14.766 4.262577037426999 5.031000000000001 0 0 0
197 1 15.996499999999997 3.5521475311891653 5.031000000000001 0 0 0
225 1 15.9965 6.393865556140499 5.031000000000001 0 0 0
227 1 17.226999999999997 5.683436049902662 5.031000000000001 0 0 0
229 1 17.226999999999997 4.2625770374270004 5.031000000000001 0 0 0
231 1 18.457499999999996 3.5521475311891617 5.031000000000001 0 0 0
259 1 18.457499999999996 6.393865556140501 5.031000000000001 0 0 0
261 1 19.687999999999995 5.683436049902662 5.031000000000001 0 0 0
263 1 19.688 4.2625770374270004 5.031000000000001 0 0 0
265 1 20.918499999999995 3.5521475311891635 5.031000000000001 0 0 0
292 1 20.9185 6.393865556140501 5.031000000000001 0 0 0
294 1 22.148999999999997 5.683436049902664 5.031000000000001 0 0 0
296 1 22.149 4.2625770374270004 5.031000000000001 0 0 0
20 1 0.0 9.946013087329664 5.031000000000001 0 0 0
22 1 0.0 8.525154074854 5.031000000000001 0 0 0
24 1 1.2304999999999997 7.814724568616164 5.031000000000001 0 0 0
49 1 2.4609999999999994 9.946013087329664 5.031000000000001 0 0 0
51 1 2.4609999999999994 8.525154074854 5.031000000000001 0 0 0
53 1 3.6914999999999996 7.814724568616165 5.031000000000001 0 0 0
83 1 4.922 9.946013087329666 5.031000000000001 0 0 0
85 1 4.922 8.525154074854 5.031000000000001 0 0 0
87 1 6.1525 7.814724568616166 5.031000000000001 0 0 0
117 1 7.383 9.946013087329664 5.031000000000001 0 0 0
119 1 7.383 8.525154074854 5.031000000000001 0 0 0
121 1 8.6135 7.814724568616164 5.031000000000001 0 0 0
151 1 9.844 9.946013087329664 5.031000000000001 0 0 0
153 1 9.844 8.525154074853997 5.031000000000001 0 0 0
155 1 11.0745 7.814724568616165 5.031000000000001 0 0 0
185 1 12.305 9.946013087329664 5.031000000000001 0 0 0
187 1 12.305 8.525154074854 5.031000000000001 0 0 0
189 1 13.535499999999999 7.814724568616165 5.031000000000001 0 0 0
219 1 14.765999999999998 9.94601308732966 5.031000000000001 0 0 0
221 1 14.765999999999998 8.525154074854 5.031000000000001 0 0 0
223 1 15.996499999999997 7.814724568616162 5.031000000000001 0 0 0
253 1 17.226999999999997 9.946013087329662 5.031000000000001 0 0 0
255 1 17.226999999999997 8.525154074854 5.031000000000001 0 0 0
257 1 18.457499999999996 7.814724568616162 5.031000000000001 0 0 0
286 1 19.688 9.946013087329662 5.031000000000001 0 0 0
288 1 19.688 8.525154074854001 5.031000000000001 0 0 0
290 1 20.918499999999998 7.814724568616162 5.031000000000001 0 0 0
311 1 22.148999999999997 9.946013087329662 5.031000000000001 0 0 0
313 1 22.149 8.525154074854001 5.031000000000001 0 0 0
43 1 0.0 12.787731112280998 5.031000000000001 0 0 0
45 1 1.2304999999999997 12.077301606043164 5.031000000000001 0 0 0
47 1 1.2304999999999997 10.656442593567498 5.031000000000001 0 0 0
77 1 2.461 12.787731112280998 5.031000000000001 0 0 0
79 1 3.6914999999999996 12.077301606043164 5.031000000000001 0 0 0
81 1 3.6914999999999996 10.6564425935675 5.031000000000001 0 0 0
111 1 4.922 12.787731112281 5.031000000000001 0 0 0
113 1 6.1525 12.077301606043164 5.031000000000001 0 0 0
115 1 6.1525 10.6564425935675 5.031000000000001 0 0 0
145 1 7.382999999999999 12.787731112280998 5.031000000000001 0 0 0
147 1 8.6135 12.077301606043164 5.031000000000001 0 0 0
149 1 8.613499999999998 10.656442593567498 5.031000000000001 0 0 0
179 1 9.844 12.787731112280998 5.031000000000001 0 0 0
181 1 11.074499999999999 12.077301606043164 5.031000000000001 0 0 0
183 1 11.0745 10.656442593567498 5.031000000000001 0 0 0
213 1 12.305 12.787731112280998 5.031000000000001 0 0 0
215 1 13.535499999999999 12.07730160604316 5.031000000000001 0 0 0
217 1 13.535499999999999 10.6564425935675 5.031000000000001 0 0 0
247 1 14.765999999999998 12.787731112281 5.031000000000001 0 0 0
249 1 15.996499999999997 12.07730160604316 5.031000000000001 0 0 0
251 1 15.996499999999997 10.6564425935675 5.031000000000001 0 0 0
280 1 17.227 12.787731112281 5.031000000000001 0 0 0
282 1 18.4575 12.077301606043163 5.031000000000001 0 0 0
284 1 18.4575 10.6564425935675 5.031000000000001 0 0 0
305 1 19.688 12.787731112281 5.031000000000001 0 0 0
307 1 20.918499999999998 12.077301606043163 5.031000000000001 0 0 0
309 1 20.918499999999998 10.656442593567501 5.031000000000001 0 0 0
322 1 22.148999999999997 12.787731112280998 5.031000000000001 0 0 0
41 1 0.0 14.208590124756665 5.031000000000001 0 0 0
70 1 0.0 17.050308149708 5.031000000000001 0 0 0
71 1 1.2305000000000001 16.339878643470165 5.031000000000001 0 0 0
73 1 1.2305000000000001 14.919019630994498 5.031000000000001 0 0 0
75 1 2.461 14.208590124756665 5.031000000000001 0 0 0
104 1 2.4610000000000003 17.050308149708 5.031000000000001 0 0 0
105 1 3.6915 16.339878643470165 5.031000000000001 0 0 0
107 1 3.6915 14.919019630994498 5.031000000000001 0 0 0
109 1 4.922 14.208590124756663 5.031000000000001 0 0 0
138 1 4.921999999999999 17.050308149708 5.031000000000001 0 0 0
139 1 6.1525 16.339878643470165 5.031000000000001 0 0 0
141 1 6.152499999999999 14.919019630994498 5.031000000000001 0 0 0
143 1 7.383 14.208590124756665 5.031000000000001 0 0 0
172 1 7.383 17.050308149708 5.031000000000001 0 0 0
173 1 8.613499999999998 16.339878643470165 5.031000000000001 0 0 0
175 1 8.6135 14.919019630994498 5.031000000000001 0 0 0
177 1 9.844 14.208590124756665 5.031000000000001 0 0 0
206 1 9.844 17.050308149708 5.031000000000001 0 0 0
207 1 11.074499999999999 16.33987864347016 5.031000000000001 0 0 0
209 1 11.074499999999999 14.919019630994498 5.031000000000001 0 0 0
211 1 12.304999999999998 14.208590124756661 5.031000000000001 0 0 0
240 1 12.304999999999998 17.050308149708 5.031000000000001 0 0 0
241 1 13.535499999999997 16.33987864347016 5.031000000000001 0 0 0
243 1 13.535499999999999 14.919019630994498 5.031000000000001 0 0 0
245 1 14.765999999999998 14.208590124756661 5.031000000000001 0 0 0
273 1 14.766 17.050308149708 5.031000000000001 0 0 0
274 1 15.996499999999997 16.33987864347016 5.031000000000001 0 0 0
276 1 15.9965 14.9190196309945 5.031000000000001 0 0 0
278 1 17.226999999999997 14.208590124756661 5.031000000000001 0 0 0
298 1 17.226999999999997 17.050308149708002 5.031000000000001 0 0 0
299 1 18.457499999999996 16.33987864347016 5.031000000000001 0 0 0
301 1 18.4575 14.9190196309945 5.031000000000001 0 0 0
303 1 19.688 14.208590124756663 5.031000000000001 0 0 0
315 1 19.688 17.050308149707995 5.031000000000001 0 0 0
316 1 20.918499999999998 16.339878643470165 5.031000000000001 0 0 0
318 1 20.918499999999998 14.919019630994496 5.031000000000001 0 0 0
320 1 22.148999999999997 14.208590124756663 5.031000000000001 0 0 0
324 1 22.149 17.050308149707995 5.031000000000001 0 0 0
325 1 0.0 2.8417180249513345 8.385 0 0 0
326 1 0.0 0.0 8.385 0 0 0
327 1 1.2305 0.7104295062378347 8.385 0 0 0
331 1 1.2305 2.1312885187135 8.385 0 0 0
332 1 2.461 2.8417180249513345 8.385 0 0 0
333 1 2.461 0.0 8.385 0 0 0
334 1 3.6915 0.7104295062378347 8.385 0 0 0
342 1 3.6914999999999996 2.1312885187135 8.385 0 0 0
343 1 4.922 2.841718024951334 8.385 0 0 0
344 1 4.922 0.0 8.385 0 0 0
345 1 6.1525 0.7104295062378343 8.385 0 0 0
357 1 6.1525 2.1312885187134993 8.385 0 0 0
358 1 7.382999999999999 2.8417180249513345 8.385 0 0 0
359 1 7.382999999999999 0.0 8.385 0 0 0
360 1 8.613499999999998 0.7104295062378343 8.385 0 0 0
374 1 8.613499999999998 2.1312885187135002 8.385 0 0 0
375 1 9.844 2.8417180249513336 8.385 0 0 0
376 1 9.844 0.0 8.385 0 0 0
377 1 11.0745 0.7104295062378334 8.385 0 0 0
391 1 11.0745 2.1312885187135002 8.385 0 0 0
392 1 12.305 2.8417180249513336 8.385 0 0 0
393 1 12.305 0.0 8.385 0 0 0
394 1 13.535499999999999 0.7104295062378352 8.385 0 0 0
408 1 13.535499999999999 2.1312885187134984 8.385 0 0 0
409 1 14.765999999999998 2.8417180249513354 8.385 0 0 0
410 1 14.765999999999998 0.0 8.385 0 0 0
411 1 15.9965 0.7104295062378352 8.385 0 0 0
425 1 15.9965 2.1312885187135002 8.385 0 0 0
426 1 17.226999999999997 2.8417180249513336 8.385 0 0 0
427 1 17.227 0.0 8.385 0 0 0
428 1 18.457499999999996 0.7104295062378334 8.385 0 0 0
442 1 18.4575 2.1312885187135002 8.385 0 0 0
443 1 19.688 2.841718024951337 8.385 0 0 0
444 1 19.688 0.0 8.385 0 0 0
445 1 20.918499999999998 0.7104295062378405 8.385 0 0 0
459 1 20.918499999999998 2.1312885187135002 8.385 0 0 0
460 1 22.149 2.8417180249513407 8.385 0 0 0
461 1 22.148999999999997 0.0 8.385 0 0 0
329 1 0.0 4.262577037427 8.385 0 0 0
330 1 1.2305000000000001 4.973006543664834 8.385 0 0 0
338 1 1.2305 6.393865556140499 8.385 0 0 0
340 1 2.461 4.262577037427 8.385 0 0 0
341 1 3.6914999999999996 4.973006543664834 8.385 0 0 0
353 1 3.6914999999999996 6.393865556140499 8.385 0 0 0
355 1 4.922 4.262577037426999 8.385 0 0 0
356 1 6.1525 4.973006543664834 8.385 0 0 0
370 1 6.1525 6.393865556140499 8.385 0 0 0
372 1 7.382999999999999 4.262577037427 8.385 0 0 0
373 1 8.6135 4.973006543664834 8.385 0 0 0
387 1 8.6135 6.3938655561405 8.385 0 0 0
389 1 9.844 4.2625770374270004 8.385 0 0 0
390 1 11.074499999999999 4.973006543664834 8.385 0 0 0
404 1 11.074499999999999 6.393865556140499 8.385 0 0 0
406 1 12.305 4.262577037426999 8.385 0 0 0
407 1 13.535499999999999 4.973006543664834 8.385 0 0 0
421 1 13.535499999999999 6.393865556140499 8.385 0 0 0
423 1 14.766 4.262577037426999 8.385 0 0 0
424 1 15.996499999999997 4.973006543664834 8.385 0 0 0
438 1 15.9965 6.393865556140499 8.385 0 0 0
440 1 17.226999999999997 4.2625770374270004 8.385 0 0 0
441 1 18.4575 4.973006543664837 8.385 0 0 0
455 1 18.457499999999996 6.393865556140501 8.385 0 0 0
457 1 19.688 4.2625770374270004 8.385 0 0 0
458 1 20.9185 4.973006543664837 8.385 0 0 0
471 1 20.9185 6.393865556140501 8.385 0 0 0
473 1 22.149 4.2625770374270004 8.385 0 0 0
328 1 0.0 7.104295062378334 8.385 0 0 0
336 1 0.0 8.525154074854 8.385 0 0 0
337 1 1.2304999999999997 9.235583581091834 8.385 0 0 0
339 1 2.461 7.104295062378334 8.385 0 0 0
351 1 2.4609999999999994 8.525154074854 8.385 0 0 0
352 1 3.6915 9.235583581091834 8.385 0 0 0
354 1 4.922 7.104295062378334 8.385 0 0 0
368 1 4.922 8.525154074854 8.385 0 0 0
369 1 6.1525 9.235583581091834 8.385 0 0 0
371 1 7.383 7.104295062378334 8.385 0 0 0
385 1 7.383 8.525154074854 8.385 0 0 0
386 1 8.613499999999998 9.235583581091834 8.385 0 0 0
388 1 9.844 7.104295062378334 8.385 0 0 0
402 1 9.844 8.525154074853997 8.385 0 0 0
403 1 11.074499999999999 9.235583581091834 8.385 0 0 0
405 1 12.305 7.104295062378334 8.385 0 0 0
419 1 12.305 8.525154074854 8.385 0 0 0
420 1 13.535499999999999 9.235583581091833 8.385 0 0 0
422 1 14.765999999999998 7.104295062378332 8.385 0 0 0
436 1 14.765999999999998 8.525154074854 8.385 0 0 0
437 1 15.9965 9.235583581091836 8.385 0 0 0
439 1 17.227 7.104295062378338 8.385 0 0 0
453 1 17.226999999999997 8.525154074854 8.385 0 0 0
454 1 18.4575 9.235583581091838 8.385 0 0 0
456 1 19.688000000000002 7.104295062378338 8.385 0 0 0
469 1 19.688 8.525154074854001 8.385 0 0 0
470 1 20.9185 9.235583581091834 8.385 0 0 0
472 1 22.149 7.104295062378334 8.385 0 0 0
481 1 22.149 8.525154074854001 8.385 0 0 0
335 1 0.0 11.366872099805333 8.385 0 0 0
347 1 0.0 12.787731112280998 8.385 0 0 0
348 1 1.2305000000000001 13.498160618518833 8.385 0 0 0
349 1 1.2304999999999997 10.656442593567498 8.385 0 0 0
350 1 2.461 11.366872099805335 8.385 0 0 0
364 1 2.461 12.787731112280998 8.385 0 0 0
365 1 3.6915 13.498160618518833 8.385 0 0 0
366 1 3.6914999999999996 10.6564425935675 8.385 0 0 0
367 1 4.922 11.366872099805333 8.385 0 0 0
381 1 4.922 12.787731112281 8.385 0 0 0
382 1 6.152499999999999 13.498160618518833 8.385 0 0 0
383 1 6.1525 10.6564425935675 8.385 0 0 0
384 1 7.382999999999999 11.366872099805335 8.385 0 0 0
398 1 7.382999999999999 12.787731112280998 8.385 0 0 0
399 1 8.6135 13.498160618518835 8.385 0 0 0
400 1 8.613499999999998 10.656442593567498 8.385 0 0 0
401 1 9.844 11.366872099805335 8.385 0 0 0
415 1 9.844 12.787731112280998 8.385 0 0 0
416 1 11.074499999999999 13.498160618518833 8.385 0 0 0
417 1 11.0745 10.656442593567498 8.385 0 0 0
418 1 12.304999999999998 11.366872099805333 8.385 0 0 0
432 1 12.305 12.787731112280998 8.385 0 0 0
433 1 13.535499999999999 13.498160618518837 8.385 0 0 0
434 1 13.535499999999999 10.6564425935675 8.385 0 0 0
435 1 14.765999999999998 11.366872099805336 8.385 0 0 0
449 1 14.765999999999998 12.787731112281 8.385 0 0 0
450 1 15.996500000000001 13.498160618518837 8.385 0 0 0
451 1 15.996499999999997 10.6564425935675 8.385 0 0 0
452 1 17.227 11.366872099805336 8.385 0 0 0
465 1 17.227 12.787731112281 8.385 0 0 0
466 1 18.4575 13.498160618518833 8.385 0 0 0
467 1 18.4575 10.6564425935675 8.385 0 0 0
468 1 19.688 11.366872099805335 8.385 0 0 0
477 1 19.688 12.787731112281 8.385 0 0 0
478 1 20.9185 13.498160618518835 8.385 0 0 0
479 1 20.918499999999998 10.656442593567501 8.385 0 0 0
480 1 22.149 11.366872099805335 8.385 0 0 0
485 1 22.148999999999997 12.787731112280998 8.385 0 0 0
346 1 0.0 15.629449137232333 8.385 0 0 0
361 1 0.0 17.050308149708 8.385 0 0 0
362 1 1.2305000000000001 14.919019630994498 8.385 0 0 0
363 1 2.4610000000000003 15.629449137232331 8.385 0 0 0
378 1 2.4610000000000003 17.050308149708 8.385 0 0 0
379 1 3.6915 14.919019630994498 8.385 0 0 0
380 1 4.921999999999999 15.629449137232333 8.385 0 0 0
395 1 4.921999999999999 17.050308149708 8.385 0 0 0
396 1 6.152499999999999 14.919019630994498 8.385 0 0 0
397 1 7.382999999999999 15.629449137232333 8.385 0 0 0
412 1 7.383 17.050308149708 8.385 0 0 0
413 1 8.6135 14.919019630994498 8.385 0 0 0
414 1 9.844 15.629449137232331 8.385 0 0 0
429 1 9.844 17.050308149708 8.385 0 0 0
430 1 11.074499999999999 14.919019630994498 8.385 0 0 0
431 1 12.305 15.629449137232337 8.385 0 0 0
446 1 12.304999999999998 17.050308149708 8.385 0 0 0
447 1 13.535499999999999 14.919019630994498 8.385 0 0 0
448 1 14.766 15.629449137232337 8.385 0 0 0
462 1 14.766 17.050308149708 8.385 0 0 0
463 1 15.9965 14.9190196309945 8.385 0 0 0
464 1 17.227 15.629449137232333 8.385 0 0 0
474 1 17.226999999999997 17.050308149708002 8.385 0 0 0
475 1 18.4575 14.9190196309945 8.385 0 0 0
476 1 19.688000000000002 15.629449137232333 8.385 0 0 0
482 1 19.688 17.050308149707995 8.385 0 0 0
483 1 20.918499999999998 14.919019630994496 8.385 0 0 0
484 1 22.149 15.629449137232335 8.385 0 0 0
486 1 22.149 17.050308149707995 8.385 0 0 0
521 2 19.6341934102286 1.4096204504248468 14.793949234684069 0 1 1
508 2 18.54830110918781 6.762823045140535 13.67532302874563 0 0 1
2753 2 20.34160005722294 1.749083045949125 10.764323501731834 0 1 0
2762 2 20.14181245179415 7.300574522261073 26.665368477295736 0 0 2
500 2 17.913726446113664 3.0511494383597477 11.499074247131366 0 0 1
528 2 18.194562059289026 5.938484089016778 11.146631863873964 0 0 0
496 2 20.23410165956003 9.139344552751554 13.365865518296115 0 0 0
499 2 21.287406777877532 11.05054939685559 21.63627416454188 0 0 0
4661 2 19.147205131036625 3.887858506708413 13.747160209071563 0 0 1
525 2 21.0080437086351 6.416837045333351 11.189270469297036 0 0 0
3263 2 21.750953109409927 9.086068776041811 10.851151156180503 0 0 -1
3306 2 20.733677163614434 13.366790533437433 13.149380181775323 0 0 0
2093 2 20.466387661327875 1.1200764047353893 17.3822818117027 0 0 0
515 2 18.5496378193934 15.22630903685834 13.798983848981191 0 0 0
2624 2 20.657042888255962 15.459015177437099 19.829061960177906 0 0 1
2682 2 22.82861504939748 8.57791938889139 14.4957600013598 0 1 -1
555 2 20.346596199290016 14.41293446784976 24.64685112913275 0 1 0
3356 2 22.334329737156782 17.198372265100446 21.428027806940886 0 0 0
530 2 18.981574172054966 16.31740540649347 11.089787781083864 0 0 1
2050 2 22.16953854849088 3.8138045203538207 13.934101528819294 0 1 0
2612 2 19.769684973628756 11.42054467726306 14.973852681771211 0 0 0
523 2 17.407460546389082 7.685947522657737 27.07218504490239 0 0 -1
3258 2 21.39942172750384 12.689105378593826 19.263563647672626 0 0 0
2605 2 20.463140974756183 3.3562865169054263 19.299308928100103 0 0 0
536 2 18.99257940137896 4.68522798505216 27.272291526396042 0 0 0
2686 2 22.503572653740175 11.937366400511504 11.425732452145347 0 0 1
2771 2 22.38308808861306 8.772386584606414 26.893810292944593 0 1 0
4746 2 20.57496386980495 1.833431502473787 21.860921740929605 0 1 0
537 2 20.192012087354573 5.942644769016278 23.93649595762273 0 0 0
509 2 22.250746137943796 12.701924937708705 23.914256198546727 0 1 0
2745 2 21.360874029079643 3.32342778630304 24.23327809797009 0 0 -1
4823 2 20.88604920338469 2.6817550989894507 26.77275722486572 0 1 0
541 2 17.48049168282574 6.353535881314953 24.354842169196743 0 0 0
549 2 22.52012568629731 6.8615092906184945 22.862556403453574 0 0 1
2054 2 16.813803387810083 0.22888289176576157 11.778776068747078 0 0 0
4829 2 21.790694536566907 14.440915874594095 27.05295868681437 0 1 0
2623 2 21.948151017056542 11.973656618995005 16.681058004696315 0 0 -1
3386 2 21.897000712940358 15.747693447855301 11.285208999090992 0 0 -1
3434 2 22.428571662197335 14.329678446558663 15.038303584426883 0 0 -1
2784 2 22.30387933111691 11.641397687559035 26.871541502433487 0 0 0
522 2 22.290118173657646 16.834002041319707 13.724165906685112 0 0 1
1049 2 21.753338447865094 16.69646616017254 24.195347858303407 0 0 0
2713 2 22.315246266208483 3.7455119139814212 11.312571316372463 0 0 0
2666 2 22.59844626849299 9.275328604952517 19.921958588326273 0 0 1
557 1 0.0 19.892026174659332 1.677 0 0 0
559 1 1.2305000000000001 17.76073765594583 1.677 0 0 0
566 1 1.2305000000000001 19.1815966684215 1.677 0 0 0
568 1 2.4609999999999994 19.892026174659332 1.677 0 0 0
570 1 3.6914999999999996 17.76073765594583 1.677 0 0 0
585 1 3.6914999999999996 19.1815966684215 1.677 0 0 0
587 1 4.922 19.892026174659332 1.677 0 0 0
589 1 6.1525 17.76073765594583 1.677 0 0 0
612 1 6.1525 19.1815966684215 1.677 0 0 0
614 1 7.382999999999999 19.892026174659332 1.677 0 0 0
616 1 8.613499999999998 17.76073765594583 1.677 0 0 0
644 1 8.6135 19.1815966684215 1.677 0 0 0
646 1 9.844 19.892026174659335 1.677 0 0 0
648 1 11.0745 17.760737655945835 1.677 0 0 0
676 1 11.074499999999999 19.1815966684215 1.677 0 0 0
678 1 12.305000000000001 19.892026174659335 1.677 0 0 0
680 1 13.5355 17.760737655945835 1.677 0 0 0
708 1 13.535499999999999 19.1815966684215 1.677 0 0 0
710 1 14.766 19.892026174659332 1.677 0 0 0
712 1 15.9965 17.76073765594583 1.677 0 0 0
740 1 15.9965 19.1815966684215 1.677 0 0 0
742 1 17.227 19.892026174659335 1.677 0 0 0
744 1 18.4575 17.76073765594583 1.677 0 0 0
772 1 18.457499999999996 19.1815966684215 1.677 0 0 0
774 1 19.688 19.892026174659335 1.677 0 0 0
776 1 20.9185 17.76073765594583 1.677 0 0 0
804 1 20.918499999999998 19.1815966684215 1.677 0 0 0
806 1 22.149 19.892026174659335 1.677 0 0 0
562 1 0.0 21.312885187135 1.677 0 0 0
564 1 1.2304999999999993 22.023314693372832 1.677 0 0 0
577 1 1.2304999999999993 23.4441737058485 1.677 0 0 0
581 1 2.4609999999999994 21.312885187134995 1.677 0 0 0
583 1 3.6914999999999996 22.023314693372832 1.677 0 0 0
604 1 3.6915000000000004 23.4441737058485 1.677 0 0 0
608 1 4.922000000000001 21.312885187134995 1.677 0 0 0
610 1 6.152499999999999 22.023314693372832 1.677 0 0 0
636 1 6.1525 23.4441737058485 1.677 0 0 0
640 1 7.382999999999999 21.312885187135 1.677 0 0 0
642 1 8.6135 22.023314693372836 1.677 0 0 0
668 1 8.613499999999998 23.4441737058485 1.677 0 0 0
672 1 9.844 21.312885187135 1.677 0 0 0
674 1 11.0745 22.023314693372836 1.677 0 0 0
700 1 11.0745 23.4441737058485 1.677 0 0 0