
# read in graphite data
read_data data.graphite group graphite extra/atom/types 1
Reading data file ...
  orthogonal box = (0.0000000 0.0000000 0.0000000) to (68.908000 68.925871 10.062000)
  3 by 4 by 1 MPI processor grid
  reading atoms ...
  5516 atoms
  reading velocities ...
  5516 velocities
  read_data CPU = 0.022 seconds

# Insert water
read_data data.Ibeam_MLmW_240K add append shift 0.0 0.0 ${Z_G} group water offset 1 0 0 0 0
read_data data.Ibeam_MLmW_240K add append shift 0.0 0.0 10.062 group water offset 1 0 0 0 0
Reading data file ...
  orthogonal box = (0.0000000 0.0000000 0.0000000) to (68.908000 68.925871 27.952761)
  3 by 4 by 1 MPI processor grid
  reading atoms ...
  1459 atoms
  reading velocities ...
  1459 velocities
  read_data CPU = 0.003 seconds


# Define potential
# CHECK ON THIS %%%%%%%%%%%%
#
pair_style sw
pair_coeff * * MLC_e.sw C mW


# Delete water and ice atoms that are overlapping
#
delete_atoms overlap 2.5 water graphite
System init for delete_atoms ...
Neighbor list info ...
  update every 1 steps, delay 10 steps, check yes
  max neighbors/atom: 2000, page size: 100000
  master list distance cutoff = 6.6747184
  ghost atom cutoff = 6.6747184
  binsize = 3.3373592, bins = 21 21 9
  2 neighbor lists, perpetual/occasional/extra = 1 1 0
  (1) command delete_atoms, occasional, copy from (2)
      attributes: full, newton on
      pair build: copy
      stencil: none
      bin: none
  (2) pair sw, perpetual
      attributes: full, newton on
      pair build: full/bin/atomonly
      stencil: full/bin/3d
      bin: standard
Deleted 104 atoms, new total = 6871

write_data test.${NAME}
write_data test.Ibeam_240K
System init for write_data ...
Neighbor list info ...
  update every 1 steps, delay 10 steps, check yes
  max neighbors/atom: 2000, page size: 100000
  master list distance cutoff = 6.6747184
  ghost atom cutoff = 6.6747184
  binsize = 3.3373592, bins = 21 21 9
  1 neighbor lists, perpetual/occasional/extra = 1 0 0
  (1) pair sw, perpetual
      attributes: full, newton on
      pair build: full/bin/atomonly
      stencil: full/bin/3d
      bin: standard


# Fix graphite atoms in place
#
fix 1 graphite setforce 0.0 0.0 0.0
velocity graphite set 0.0 0.0 0.0
velocity water create ${TEMP} 120598 rot yes dist gaussian
velocity water create 240 120598 rot yes dist gaussian
timestep 5.0

# Define output
#

compute 1 water msd
compute 2 water stress/atom NULL
compute 3 water temp

thermo 100
thermo_style custom step c_3 press vol etotal ke pe c_1[4] density

# Neighbor lists
#
neigh_modify delay 0 every 1 check yes




# Set fixes
#
fix                 2 water momentum 10 linear 1 1 1 rescale
fix                 3 all nve
fix                 4 water temp/csvr ${TEMP} ${TEMP} 500.0 928347
fix                 4 water temp/csvr 240 ${TEMP} 500.0 928347
fix                 4 water temp/csvr 240 240 500.0 928347

# Run 0.25 ns equilibration
#
dump                1 all custom 100 eq.${NAME}.dump id type x y z vx vy vz
dump                1 all custom 100 eq.Ibeam_240K.dump id type x y z vx vy vz
run                 50000
Per MPI rank memory allocation (min/avg/max) = 5.602 | 5.605 | 5.607 Mbytes
Step c_3 Press Volume TotEng KinEng PotEng c_1[4] Density 
       0          240   -814.63246    132762.87   -11923.071    968.64403   -12891.715            0    1.1339035 
     100    271.99421   -1004.4188    132762.87   -12009.676    1097.7732   -13107.449    1.5377612    1.1339035 
     200      273.036   -550.25926    132762.87   -12194.226    1101.9779   -13296.204    3.1522876    1.1339035 
     300     278.7069   -570.73902    132762.87   -12322.812    1124.8657   -13447.678    4.9335121    1.1339035 
     400    264.29096   -450.38101    132762.87   -12452.601    1066.6827   -13519.284    6.1310011    1.1339035 
     500    254.98604   -580.20339    132762.87   -12545.584    1029.1279   -13574.712    6.8878168    1.1339035 
     600    236.59379   -620.15805    132762.87   -12677.999    954.89651   -13632.896    7.6687821    1.1339035 
     700    249.97181   -412.88452    132762.87   -12711.239    1008.8904   -13720.129     8.678485    1.1339035 
     800    235.89066   -333.07052    132762.87   -12786.942    952.05865       -13739    9.4549427    1.1339035 
     900    240.17394   -608.53649    132762.87   -12775.899    969.34604   -13745.245    9.7728048    1.1339035 
    1000    239.63247   -509.04358    132762.87   -12744.339    967.16068     -13711.5    10.103506    1.1339035 
    1100    241.60109    -365.5659    132762.87   -12782.818    975.10606   -13757.924     10.86347    1.1339035 
    1200    239.06135   -453.23136    132762.87   -12838.052    964.85562   -13802.908    11.628825    1.1339035 
    1300    250.29077   -519.96553    132762.87    -12825.37    1010.1778   -13835.548    12.224719    1.1339035 
    1400    259.16605   -365.11035    132762.87   -12802.843    1045.9985   -13848.842    12.646711    1.1339035 
    1500    243.31712   -631.66382    132762.87   -12833.693    982.03197   -13815.725    12.769386    1.1339035 
    1600    246.35137   -516.09478    132762.87   -12824.075    994.27827   -13818.353    13.197131    1.1339035 
    1700    240.49574   -524.46775    132762.87   -12844.391    970.64485   -13815.036    13.926877    1.1339035 
    1800    239.44252   -634.90317    132762.87   -12857.833    966.39403   -13824.227    14.056875    1.1339035 
    1900    246.38745    -348.6178    132762.87   -12801.478    994.42388   -13795.902    14.607887    1.1339035 
    2000    253.32414   -505.77567    132762.87   -12781.452    1022.4205   -13803.873    14.848214    1.1339035 
    2100      254.773   -569.22034    132762.87   -12793.592    1028.2681    -13821.86    15.025361    1.1339035 
    2200    248.24944   -502.15179    132762.87   -12792.111    1001.9389   -13794.049    15.076666    1.1339035 
    2300    246.11245    -465.9124    132762.87   -12835.608    993.31398   -13828.922    15.404469    1.1339035 
    2400    240.43024   -214.70005    132762.87   -12838.441     970.3805   -13808.821    15.923666    1.1339035 
    2500    240.00177   -284.90984    132762.87   -12826.682    968.65117   -13795.333     16.50297    1.1339035 
    2600    236.89281   -655.30134    132762.87   -12858.993    956.10337   -13815.096    17.001904    1.1339035 
    2700     235.2928    -382.9603    132762.87   -12836.502    949.64568   -13786.148    17.574973    1.1339035 
    2800    247.47084   -334.62459    132762.87   -12841.318    998.79645   -13840.115     18.29507    1.1339035 
    2900    236.20429   -386.14743    132762.87   -12890.596    953.32449    -13843.92    19.032176    1.1339035 
    3000    245.17527   -469.38707    132762.87    -12920.03    989.53151   -13909.561    19.324476    1.1339035 
    3100    239.29048   -511.18806    132762.87   -12920.651    965.78041   -13886.432    19.624905    1.1339035 
    3200    228.86154   -451.01915    132762.87   -12924.842    923.68904   -13848.531    19.905623    1.1339035 
    3300    243.28003   -331.79781    132762.87   -12893.829    981.88228   -13875.711    20.239798    1.1339035 
    3400    238.57208     -338.748    132762.87   -12912.149    962.88093    -13875.03     20.72967    1.1339035 
    3500    236.33221   -411.59228    132762.87   -12912.849    953.84077    -13866.69    20.746122    1.1339035 
    3600    243.83537   -520.96496    132762.87   -12895.593    984.12364   -13879.717    20.883676    1.1339035 
    3700    239.92272    -534.1786    132762.87   -12932.285    968.33214   -13900.617    21.018669    1.1339035 
    3800    244.98122   -495.20136    132762.87   -12916.297    988.74832   -13905.045    20.905701    1.1339035 
    3900    237.67881   -563.94757    132762.87   -12928.638    959.27568   -13887.914    20.924053    1.1339035 
    4000    237.90702   -311.44211    132762.87   -12936.883    960.19672    -13897.08     21.29447    1.1339035 
    4100    235.74795   -455.41912    132762.87   -12906.351    951.48271   -13857.833    21.288356    1.1339035 
    4200    250.00706   -528.47444    132762.87   -12878.979    1009.0327   -13888.012    21.127988    1.1339035 
    4300    252.78863   -357.63863    132762.87   -12821.845    1020.2592   -13842.104    21.812042    1.1339035 
    4400    246.61378   -342.61472    132762.87   -12826.597    995.33736   -13821.935    22.308908    1.1339035 
    4500    245.66042   -307.89486    132762.87   -12878.669    991.48959   -13870.159    22.690765    1.1339035 
    4600    240.15504   -592.78961    132762.87   -12890.583    969.26979   -13859.853    22.720472    1.1339035 
    4700    243.71845   -551.25847    132762.87   -12893.456    983.65178   -13877.108    23.239504    1.1339035 
    4800    244.44792   -535.23813    132762.87   -12885.136     986.5959   -13871.732    23.630026    1.1339035 
    4900    238.77547   -524.93792    132762.87   -12922.096    963.70182   -13885.798    23.960251    1.1339035 
    5000    236.68989   -510.67199    132762.87   -12936.926    955.28439    -13892.21     24.26351    1.1339035 
    5100     252.9854   -531.29439    132762.87    -12946.49    1021.0533   -13967.543    24.868266    1.1339035 
    5200    242.06485    -498.9265    132762.87   -12947.481    976.97779   -13924.459    25.072962    1.1339035 
    5300    231.87945   -441.01464    132762.87   -12984.607    935.86937   -13920.476    25.560263    1.1339035 
    5400    236.65646   -358.16009    132762.87   -12952.879    955.14945   -13908.028    25.841201    1.1339035 
    5500    234.72525   -408.47263    132762.87   -12976.947    947.35505   -13924.302    26.207616    1.1339035 
    5600    235.04306    -470.5913    132762.87   -12989.903    948.63773    -13938.54    26.791892    1.1339035 
    5700    244.52738   -616.13602    132762.87    -12954.87     986.9166   -13941.787    26.827297    1.1339035 
    5800    249.11312   -649.31543    132762.87   -12898.758    1005.4247   -13904.183    27.143402    1.1339035 
    5900     240.2122   -390.99812    132762.87   -12935.816    969.50048   -13905.317    27.357779    1.1339035 
    6000    238.53947   -679.67079    132762.87   -12996.422    962.74931   -13959.172    26.758036    1.1339035 
    6100     235.6805   -562.67695    132762.87   -12966.033    951.21047   -13917.243    27.026867    1.1339035 
    6200    239.70058   -513.00353    132762.87   -12940.584    967.43558    -13908.02    27.565562    1.1339035 
    6300    229.83079   -368.67139    132762.87   -12909.752    927.60092   -13837.353    28.063904    1.1339035 
    6400    241.62965   -229.84026    132762.87   -12916.207    975.22132   -13891.428    28.261995    1.1339035 
    6500    241.52595   -779.89693    132762.87   -12924.277    974.80279    -13899.08    28.426371    1.1339035 
    6600    230.86677   -474.28294    132762.87   -12960.331    931.78218   -13892.114     28.87577    1.1339035 
    6700     240.4834   -431.60942    132762.87   -12974.888    970.59505   -13945.483    29.192182    1.1339035 
    6800    235.90673   -472.25211    132762.87   -12962.162    952.12354   -13914.286    29.195393    1.1339035 
    6900    227.89187   -348.42347    132762.87   -12991.348     919.7754   -13911.123    29.372355    1.1339035 
    7000    234.13616   -330.97271    132762.87   -12971.016     944.9775   -13915.994    29.991156    1.1339035 
    7100    238.70763   -438.96825    132762.87   -12909.262    963.42802   -13872.691    29.919099    1.1339035 
    7200    241.57661   -371.20852    132762.87   -12911.554    975.00725   -13886.562     30.64468    1.1339035 
    7300    226.47507   -515.50511    132762.87    -12961.89    914.05717   -13875.947    30.953979    1.1339035 
    7400    230.59615   -378.48295    132762.87   -12960.816    930.68994   -13891.506    31.194542    1.1339035 
    7500     230.0073   -483.41791    132762.87   -12964.219    928.31331   -13892.532    31.437131    1.1339035 
    7600    235.62337   -584.72814    132762.87   -12962.372    950.97988   -13913.352    31.444063    1.1339035 
    7700    240.01816   -316.84525    132762.87   -12951.939    968.71732   -13920.657    31.900616    1.1339035 
    7800    237.67949   -450.61718    132762.87   -12914.289    959.27841   -13873.567      32.3133    1.1339035 
    7900    234.57101   -624.73431    132762.87    -12905.27    946.73255   -13852.002    32.746004    1.1339035 
    8000    241.30799   -619.60889    132762.87   -12898.064    973.92312   -13871.987    33.086933    1.1339035 
    8100    233.86039   -355.69331    132762.87   -12915.292    943.86446   -13859.157    33.179614    1.1339035 
    8200    234.11852   -474.62212    132762.87   -12943.898    944.90628   -13888.804    33.443722    1.1339035 
    8300    236.56128   -702.25206    132762.87   -12958.903    954.76532   -13913.668    33.920951    1.1339035 
    8400    232.38746   -333.38183    132762.87   -12956.943    937.91971   -13894.862    34.444974    1.1339035 
    8500    241.65703   -469.74877    132762.87   -12946.036    975.33182   -13921.368    34.872584    1.1339035 
    8600    236.29944   -525.49158    132762.87   -12908.358     953.7085   -13862.067    35.504247    1.1339035 
    8700    231.10765   -439.51372    132762.87   -12953.339    932.75437   -13886.094    35.637024    1.1339035 
    8800    242.44177   -449.66783    132762.87   -12900.904    978.49905   -13879.403    36.074499    1.1339035 
    8900    235.85819   -592.91856    132762.87   -12924.758    951.92761   -13876.685    36.583162    1.1339035 
    9000    233.42351   -404.96715    132762.87   -12898.705    942.10119   -13840.807    37.203603    1.1339035 
    9100    239.93216   -286.78698    132762.87   -12904.159    968.37022    -13872.53    37.988571    1.1339035 
    9200    243.14013   -337.80742    132762.87    -12940.29    981.31765   -13921.607    38.506798    1.1339035 
    9300    239.29885   -455.46397    132762.87    -12966.28    965.81419   -13932.094    38.889134    1.1339035 
    9400    237.19857   -580.49866    132762.87   -12977.426    957.33742   -13934.763    38.776591    1.1339035 
    9500    234.19469   -313.01579    132762.87   -12961.277    945.21372    -13906.49    38.635044    1.1339035 
    9600    233.10949   -473.42365    132762.87   -13020.106    940.83382    -13960.94    38.575936    1.1339035 
    9700    242.79723   -200.21736    132762.87   -12957.622    979.93369   -13937.556     39.30014    1.1339035 
    9800    235.02025   -601.83749    132762.87   -12980.952    948.54566   -13929.498    39.526639    1.1339035 
    9900    238.26293   -396.43436    132762.87   -12933.948     961.6332   -13895.581    40.155763    1.1339035 
   10000     243.8964   -504.44301    132762.87   -12877.732    984.36996   -13862.102    40.484454    1.1339035 
   10100    243.54394   -297.07306    132762.87   -12898.144    982.94744   -13881.092    40.648163    1.1339035 
   10200    240.01961   -345.44306    132762.87   -12902.809    968.72317   -13871.532    40.436684    1.1339035 
   10300    244.83302   -605.39707    132762.87    -12891.36    988.15018    -13879.51    41.079126    1.1339035 
   10400    244.96315   -460.70918    132762.87   -12913.096    988.67541   -13901.771    41.593617    1.1339035 
   10500     239.8335   -265.93701    132762.87   -12940.898    967.97206    -13908.87    42.051221    1.1339035 
   10600    238.37644   -477.51493    132762.87   -12902.374    962.09131   -13864.465    42.461792    1.1339035 
   10700    241.40843   -462.29685    132762.87   -12905.305    974.32847   -13879.634    43.373758    1.1339035 
   10800    237.56421   -546.15294    132762.87   -12932.358    958.81316   -13891.171    44.285228    1.1339035 
   10900    239.16082   -458.80398    132762.87   -12966.993    965.25711    -13932.25    44.416403    1.1339035 
   11000     238.3383   -335.40645    132762.87   -12950.895    961.93737   -13912.833    44.864192    1.1339035 
   11100    245.31038   -393.07725    132762.87   -12892.112    990.07682   -13882.188     45.11455    1.1339035 
   11200    241.52958   -344.64575    132762.87   -12937.928    974.81743   -13912.745    45.463165    1.1339035 
   11300    230.23207   -423.21578    132762.87    -12965.14    929.22052   -13894.361    45.775975    1.1339035 
   11400    240.48996    -775.9639    132762.87   -12925.608    970.62152   -13896.229    45.720454    1.1339035 
   11500    244.26706   -529.23935    132762.87   -12868.435    985.86597   -13854.301     45.62139    1.1339035 
   11600    248.22912   -264.41875    132762.87   -12895.007    1001.8569   -13896.864    45.178909    1.1339035 
   11700    248.75681   -586.91502    132762.87   -12880.831    1003.9866   -13884.817    45.446527    1.1339035 
   11800    247.94799   -494.81961    132762.87   -12889.595    1000.7222   -13890.318     45.63996    1.1339035 
   11900    240.39821   -545.81683    132762.87   -12926.996    970.25121   -13897.248    46.019814    1.1339035 
   12000    242.91762   -453.91179    132762.87   -12871.555     980.4196   -13851.974    47.036373    1.1339035 
   12100    240.04981   -473.00029    132762.87   -12876.047    968.84505   -13844.892     47.07631    1.1339035 
   12200    246.40602   -191.46265    132762.87   -12906.643    994.49883   -13901.142    47.826136    1.1339035 
   12300     235.5783   -282.72023    132762.87   -12953.688    950.79797   -13904.486    47.930167    1.1339035 
   12400    236.14802   -549.52859    132762.87   -12878.783    953.09736   -13831.881    47.633817    1.1339035 
   12500    243.84415   -574.50831    132762.87    -12884.01    984.15909   -13868.169    47.771751    1.1339035 
   12600    251.96867    -522.4422    132762.87   -12848.854    1016.9498   -13865.804    48.599623    1.1339035 
   12700    243.01285   -583.57591    132762.87   -12883.274    980.80393   -13864.078    48.822782    1.1339035 
   12800    239.69512    -446.5019    132762.87   -12925.821    967.41353   -13893.234    49.241422    1.1339035 
   12900    239.00303   -496.87896    132762.87    -12922.57    964.62025    -13887.19    49.246735    1.1339035 
   13000    232.83237   -574.49915    132762.87   -12937.837    939.71534   -13877.552    49.665486    1.1339035 
   13100     241.1026   -306.04429    132762.87   -12912.205    973.09416   -13885.299    50.372175    1.1339035 
   13200    235.74038    -53.51539    132762.87   -12885.418    951.45213    -13836.87    50.840012    1.1339035 
   13300    246.60572    -532.2179    132762.87   -12868.236    995.30483   -13863.541    50.999155    1.1339035 
   13400     232.3335   -474.50249    132762.87   -12852.416    937.70191   -13790.118    51.915523    1.1339035 
   13500    242.00176   -669.86842    132762.87   -12854.623    976.72318   -13831.346    52.394209    1.1339035 
   13600    237.90891    -642.5371    132762.87   -12842.862    960.20434   -13803.066    53.036016    1.1339035 
   13700    239.10673   -376.33809    132762.87   -12902.134     965.0388   -13867.172    53.158584    1.1339035 
   13800    238.34118    -436.7548    132762.87   -12904.367    961.94902   -13866.316    53.500596    1.1339035 
   13900     239.7172   -298.80747    132762.87   -12889.232    967.50266   -13856.735    54.261483    1.1339035 
   14000     241.5159   -596.15459    132762.87   -12889.559    974.76225   -13864.321    54.897879    1.1339035 
   14100    238.32572   -380.34626    132762.87   -12909.077     961.8866   -13870.964    55.067444    1.1339035 
   14200    233.78749   -382.67891    132762.87   -12940.708    943.57025   -13884.278    55.057255    1.1339035 
   14300     239.5564   -488.47921    132762.87   -12941.467    966.85366   -13908.321    55.273644    1.1339035 
   14400     230.8975   -481.73872    132762.87   -12977.518     931.9062   -13909.424    55.255383    1.1339035 
   14500    234.34617   -615.45772    132762.87   -12977.367    945.82507   -13923.192    55.539457    1.1339035 
   14600    233.56761   -449.06046    132762.87    -12955.12    942.68281   -13897.803    55.903034    1.1339035 
   14700    237.50405    -564.9369    132762.87   -12955.882    958.57036   -13914.452    56.276864    1.1339035 
   14800    241.83877    -443.3885    132762.87   -12926.982    976.06535   -13903.047    56.369378    1.1339035 
   14900    236.28982   -588.04416    132762.87   -12929.836    953.66969   -13883.506    56.725057    1.1339035 
   15000    236.97337   -527.01094    132762.87   -12923.048    956.42852   -13879.477    57.043234    1.1339035 
   15100    232.34913   -310.54234    132762.87   -12943.512      937.765   -13881.277    57.413468    1.1339035 
   15200     237.9301   -467.29992    132762.87   -12980.133     960.2899   -13940.423    57.669629    1.1339035 
   15300    237.63449   -691.11297    132762.87   -12996.845    959.09679   -13955.942    58.141994    1.1339035 
   15400    246.43913   -346.07928    132762.87   -12956.678    994.63247    -13951.31    58.109208    1.1339035 
   15500    244.97187   -324.92461    132762.87   -12961.028    988.71058   -13949.739     58.44143    1.1339035 
   15600    231.25652   -286.51187    132762.87   -13004.123    933.35518   -13937.479     58.18615    1.1339035 
   15700    236.92484   -566.82561    132762.87   -13001.376    956.23265   -13957.608    58.726944    1.1339035 
   15800    242.88111   -374.29896    132762.87    -12938.92    980.27224   -13919.192     59.03179    1.1339035 
   15900    235.15382   -550.89119    132762.87    -12962.92    949.08478   -13912.005    59.188479    1.1339035 
   16000    240.50963    -648.3559    132762.87   -12972.146     970.7009   -13942.846    59.699606    1.1339035 
   16100    242.13512   -535.85237    132762.87   -12946.561    977.26142   -13923.823    60.193584    1.1339035 
   16200    246.19062   -395.92972    132762.87    -12918.08    993.62947    -13911.71    60.686876    1.1339035 
   16300    247.13212    -386.0165    132762.87    -12931.93    997.42938   -13929.359    61.329557    1.1339035 
   16400    248.15405   -409.33791    132762.87   -12908.009    1001.5539   -13909.563    61.519006    1.1339035 
   16500    250.43562   -478.13665    132762.87   -12891.631    1010.7624   -13902.394    62.194452    1.1339035 
   16600    238.25739   -619.83725    132762.87   -12940.853    961.61082   -13902.464    62.447673    1.1339035 
   16700    237.98067   -439.02063    132762.87     -12955.2    960.49399   -13915.694    62.711474    1.1339035 
   16800    241.64988   -637.93253    132762.87   -12942.238    975.30299   -13917.541    62.900308    1.1339035 
   16900    232.26228   -209.93224    132762.87   -12977.933    937.41448   -13915.348    63.314805    1.1339035 
   17000    239.13932   -537.02828    132762.87    -12931.68    965.17031    -13896.85    63.421289    1.1339035 
   17100    238.30262   -525.17054    132762.87   -12940.876    961.79337    -13902.67    63.405347    1.1339035 
   17200    237.68358   -264.55429    132762.87   -12946.795     959.2949    -13906.09    63.901262    1.1339035 
   17300      243.826   -450.89526    132762.87    -12940.98    984.08585   -13925.066    64.347889    1.1339035 
   17400    240.58676   -557.83263    132762.87   -12937.292    971.01222   -13908.304    64.758976    1.1339035 
   17500    234.91343   -366.70704    132762.87   -12956.392    948.11455   -13904.506    64.974544    1.1339035 
   17600    244.40184   -437.71257    132762.87   -12907.482    986.40992   -13893.892    65.127301    1.1339035 
   17700    237.67243   -549.96156    132762.87   -12916.984    959.24991   -13876.234    65.638051    1.1339035 
   17800    245.64975   -517.13336    132762.87   -12907.818    991.44653   -13899.265    66.014285    1.1339035 
   17900    248.70813   -567.21883    132762.87   -12910.694    1003.7902   -13914.484    66.716423    1.1339035 
   18000     242.9601   -456.20806    132762.87   -12917.571    980.59107   -13898.162    66.835005    1.1339035 
   18100    237.87252   -452.73707    132762.87   -12916.486    960.05748   -13876.543    66.927066    1.1339035 
   18200    253.24791   -505.44447    132762.87   -12925.048    1022.1128   -13947.161     67.44835    1.1339035 
   18300    233.11486   -370.32025    132762.87   -12945.709     940.8555   -13886.564    67.976203    1.1339035 
   18400    241.19247   -290.85265    132762.87   -12938.276    973.45685   -13911.732    68.108461    1.1339035 
   18500    235.11404   -656.12055    132762.87   -12952.937     948.9242   -13901.861     68.17556    1.1339035 
   18600    246.24559   -471.25876    132762.87   -12906.428    993.85134    -13900.28    68.884751    1.1339035 
   18700    239.87059    -482.3394    132762.87   -12902.144    968.12172   -13870.266    68.897043    1.1339035 
   18800    248.00747   -266.34525    132762.87   -12912.089    1000.9623   -13913.051    69.201012    1.1339035 
   18900    239.46683    -648.0586    132762.87   -12909.508    966.49213       -13876    70.209319    1.1339035 
   19000    247.80273   -352.88646    132762.87   -12916.417     1000.136   -13916.553     70.08462    1.1339035 
   19100    243.53751   -220.98664    132762.87   -12899.207    982.92147   -13882.128    69.862054    1.1339035 
   19200    248.74801   -379.97662    132762.87   -12908.587    1003.9511   -13912.539    70.380521    1.1339035 
   19300    242.27432   -430.73985    132762.87   -12945.164    977.82322   -13922.987    71.047635    1.1339035 
   19400    245.52945   -472.58144    132762.87   -12920.736      990.961   -13911.697    71.104025    1.1339035 
   19500    239.34596   -541.71362    132762.87   -12963.447    966.00432   -13929.451    71.369353    1.1339035 
   19600    231.10646   -331.03552    132762.87    -12964.76    932.74955   -13897.509    71.739268    1.1339035 
   19700    235.72518   -361.52263    132762.87   -12958.264    951.39079   -13909.654    71.792512    1.1339035 
   19800    234.63249   -437.90924    132762.87   -12942.933    946.98068   -13889.914    72.210119    1.1339035 
   19900    240.77936   -433.00187    132762.87   -12961.997    971.78952   -13933.786    72.931916    1.1339035 
   20000    235.00877   -483.76214    132762.87   -12966.645    948.49936   -13915.145    73.375523    1.1339035 
   20100    242.85072   -550.76316    132762.87   -12907.838    980.14957   -13887.988    73.663964    1.1339035 
   20200      237.534   -394.91662    132762.87   -12940.297    958.69122   -13898.988    73.375086    1.1339035 
   20300     237.7633   -540.44729    132762.87   -12960.854    959.61669    -13920.47    73.829129    1.1339035 
   20400      232.145   -682.13335    132762.87   -12993.711    936.94111   -13930.652    74.491831    1.1339035 
   20500    236.55282   -399.32502    132762.87   -12993.955    954.73115   -13948.686    74.844963    1.1339035 
   20600     240.8413   -460.83916    132762.87   -12957.148    972.03952   -13929.188    74.802314    1.1339035 
   20700    239.89937   -528.58438    132762.87   -12982.937     968.2379   -13951.174    74.903561    1.1339035 
   20800    241.62181   -552.98249    132762.87   -12975.599    975.18969   -13950.789     74.57394    1.1339035 
   20900    243.91561    -349.7713    132762.87   -12963.991    984.44751   -13948.438    74.843901    1.1339035 
   21000    238.19809    -534.9642    132762.87   -12949.021    961.37148   -13910.393    74.670422    1.1339035 
   21100    245.00533   -422.39325    132762.87   -12916.894    988.84563    -13905.74    74.497294    1.1339035 
   21200     251.0038   -372.34536    132762.87   -12928.717    1013.0556   -13941.773    75.096919    1.1339035 
   21300    241.22188   -709.08451    132762.87   -12957.219    973.57556   -13930.794    75.762845    1.1339035 
   21400    241.13755    -570.1844    132762.87   -12993.343     973.2352   -13966.578    75.490156    1.1339035 
   21500    238.82494   -536.71327    132762.87   -12995.037    963.90146   -13958.938    75.532822    1.1339035 
   21600    235.45404   -227.38212    132762.87   -12942.829    950.29645   -13893.126    75.690422    1.1339035 
   21700    241.08179   -536.88726    132762.87     -12938.9    973.01015    -13911.91    76.231561    1.1339035 
   21800     243.8509    -503.3965    132762.87   -12938.205    984.18635   -13922.392    76.191439    1.1339035 
   21900    250.02649   -676.05986    132762.87   -12906.698    1009.1111   -13915.809    76.534168    1.1339035 
   22000    243.22593   -657.36632    132762.87   -12941.919    981.66394   -13923.583    76.960461    1.1339035 
   22100    238.62033    -526.4891    132762.87   -12924.831    963.07565   -13887.907    77.132991    1.1339035 
   22200    238.54174   -334.05942    132762.87   -12931.976    962.75846   -13894.734    78.739115    1.1339035 
   22300    248.83786   -589.53305    132762.87   -12925.415    1004.3138   -13929.729    79.606518    1.1339035 
   22400    244.20629   -464.68152    132762.87   -12956.144    985.62068   -13941.764     79.98319    1.1339035 
   22500    241.20473   -552.09981    132762.87   -12973.099    973.50633   -13946.605    79.938522    1.1339035 
   22600    237.49292   -388.42187    132762.87   -12983.368     958.5254   -13941.893    80.170485    1.1339035 
   22700    236.17879   -462.23419    132762.87   -12959.645    953.22157   -13912.866    80.523132    1.1339035 
   22800    236.70432   -278.64197    132762.87   -12936.204    955.34261   -13891.547     80.80818    1.1339035 
   22900    237.97564   -452.09767    132762.87   -12935.874     960.4737   -13896.347    80.612782    1.1339035 
   23000    241.75831   -460.97174    132762.87   -12951.459    975.74062   -13927.199     80.75866    1.1339035 
   23100    229.87889   -654.38223    132762.87    -12976.81    927.79507   -13904.605     80.74501    1.1339035 
   23200    234.52899   -708.36731    132762.87   -12956.926    946.56293   -13903.489    80.959544    1.1339035 
   23300    235.66799   -369.19082    132762.87    -12943.92    951.15995    -13895.08    81.325296    1.1339035 
   23400    237.43181   -466.76203    132762.87   -12914.402    958.27876   -13872.681    81.478796    1.1339035 
   23500    237.59427   -281.28673    132762.87   -12958.571    958.93447   -13917.506    81.415481    1.1339035 
   23600    236.23156   -599.38026    132762.87   -12966.643    953.43457   -13920.078    81.749231    1.1339035 
   23700    231.55081   -454.89605    132762.87   -12955.086    934.54295   -13889.628    82.193893    1.1339035 
   23800    233.95049   -365.24138    132762.87   -12985.462    944.22812    -13929.69    82.785164    1.1339035 
   23900    235.19934   -535.98691    132762.87   -12984.982    949.26849   -13934.251    82.862742    1.1339035 
   24000    242.00988   -469.98108    132762.87   -12935.809    976.75593   -13912.565     82.16164    1.1339035 
   24100    247.02675   -298.28821    132762.87   -12949.796     997.0041   -13946.801     81.89562    1.1339035 
   24200    242.13675   -617.46727    132762.87   -12927.554    977.26799   -13904.822    82.541294    1.1339035 
   24300    245.69489   -508.18518    132762.87   -12894.733    991.62872   -13886.361    82.632261    1.1339035 
   24400    242.02112    -295.5282    132762.87   -12890.726    976.80132   -13867.527    83.336773    1.1339035 
   24500    238.87764   -759.32689    132762.87     -12923.3    964.11417   -13887.414    83.908627    1.1339035 
   24600    236.53736   -551.31437    132762.87   -12918.093    954.66874   -13872.761    84.233077    1.1339035 
   24700    238.28989    -512.9782    132762.87   -12898.797    961.74202   -13860.539    84.479742    1.1339035 
   24800    237.76768   -396.38915    132762.87   -12906.391    959.63435   -13866.025    84.807617    1.1339035 
   24900    239.32054   -274.53004    132762.87    -12897.58    965.90174   -13863.482    85.298972    1.1339035 
   25000     233.5006   -446.88622    132762.87   -12909.675    942.41236   -13852.087    85.290747    1.1339035 
   25100    245.83045   -418.53727    132762.87   -12912.754    992.17584    -13904.93    85.367562    1.1339035 
   25200    244.46348   -603.34287    132762.87   -12903.518    986.65872   -13890.177    85.704303    1.1339035 
   25300    247.82745   -342.62949    132762.87   -12882.104    1000.2358    -13882.34    85.695438    1.1339035 
   25400    244.07012   -432.76094    132762.87   -12922.528    985.07112   -13907.599    85.570713    1.1339035 
   25500    240.12659    -797.0911    132762.87   -12930.209    969.15496   -13899.363    85.836384    1.1339035 
   25600    244.47073       -534.3    132762.87   -12912.171    986.68799   -13898.859    85.782992    1.1339035 
   25700    239.16305   -389.28486    132762.87   -12890.283     965.2661   -13855.549    85.852755    1.1339035 
   25800    243.17361   -504.04554    132762.87   -12916.396    981.45277   -13897.849    85.875023    1.1339035 
   25900    241.53576   -608.44263    132762.87    -12941.13    974.84239   -13915.972    86.332353    1.1339035 
   26000    234.44158   -337.54269    132762.87   -12946.229    946.21016   -13892.439    86.893167    1.1339035 
   26100     248.0767   -399.97825    132762.87   -12905.884    1001.2417   -13907.126    86.850932    1.1339035 
   26200    243.14665   -575.75321    132762.87   -12901.653    981.34395   -13882.997    87.028942    1.1339035 
   26300    234.85119   -540.67153    132762.87   -12958.147    947.86335    -13906.01    87.254343    1.1339035 
   26400    237.63599   -339.79934    132762.87   -12974.274    959.10283   -13933.376     87.11864    1.1339035 
   26500    231.60945   -703.54462    132762.87   -12968.441    934.77962   -13903.221    87.863721    1.1339035 
   26600    233.54091    -459.1899    132762.87   -12974.088    942.57504   -13916.663    88.392229    1.1339035 
   26700    236.28611   -618.84577    132762.87   -12961.486    953.65473   -13915.141      89.8484    1.1339035 
   26800    237.96849   -550.11908    132762.87    -12916.06    960.44481   -13876.504    90.435058    1.1339035 
   26900    235.08555   -563.72215    132762.87   -12928.339    948.80922   -13877.148    90.814653    1.1339035 
   27000     242.2958   -372.63872    132762.87    -12929.14    977.90991    -13907.05    91.369761    1.1339035 
   27100    244.39603   -268.68886    132762.87   -12869.877     986.3865   -13856.264    91.946701    1.1339035 
   27200    245.39754   -529.56295    132762.87   -12872.772     990.4286   -13863.201    92.273762    1.1339035 
   27300    232.96105   -445.68568    132762.87   -12938.021    940.23473   -13878.256     92.93042    1.1339035 
   27400    237.78362   -423.79899    132762.87   -12879.032     959.6987   -13838.731    93.264392    1.1339035 
   27500    234.39799   -789.67306    132762.87   -12898.888    946.03425   -13844.922    93.628566    1.1339035 
   27600    236.28865   -450.58638    132762.87   -12887.747    953.66498   -13841.412    94.309119    1.1339035 
   27700    242.12294   -593.75558    132762.87   -12897.324    977.21227   -13874.536    94.333841    1.1339035 
   27800    231.35725   -397.32148    132762.87   -12950.306    933.76176   -13884.068    94.169207    1.1339035 
   27900    232.79711   -584.79779    132762.87   -12918.854    939.57304   -13858.427    94.416112    1.1339035 
   28000    239.73877   -592.29519    132762.87   -12923.158    967.58972   -13890.748    94.751005    1.1339035 
   28100    242.65188   -502.22975    132762.87   -12887.432    979.34708    -13866.78    94.664205    1.1339035 
   28200    247.55582   -521.28257    132762.87   -12886.127    999.13944   -13885.266    95.226183    1.1339035 
   28300    246.93816    -455.7315    132762.87   -12916.881    996.64658   -13913.527    95.382211    1.1339035 
   28400    243.24117   -360.07391    132762.87   -12909.976    981.72546   -13891.701    95.016099    1.1339035 
   28500    246.74327   -575.72093    132762.87   -12874.151    995.85998   -13870.011    95.697098    1.1339035 
   28600    234.54543   -490.07057    132762.87   -12911.659    946.62931   -13858.289    96.513193    1.1339035 
   28700    232.78814   -486.67825    132762.87   -12941.435    939.53684   -13880.971    96.540581    1.1339035 
   28800    230.50709   -515.12449    132762.87    -12981.08    930.33047    -13911.41    96.447245    1.1339035 
   28900    232.80456   -377.34386    132762.87   -12955.097    939.60312     -13894.7    96.946794    1.1339035 
   29000    238.04909   -465.63244    132762.87   -12945.989    960.77014   -13906.759    97.445611    1.1339035 
   29100    244.00672   -371.56607    132762.87   -12956.506    984.81523   -13941.322    97.317122    1.1339035 
   29200     237.3484   -369.25557    132762.87   -12964.699    957.94215   -13922.641    97.142794    1.1339035 
   29300    242.44353   -326.79509    132762.87   -12947.758    978.50614   -13926.264    97.398733    1.1339035 
   29400    238.95379   -429.87431    132762.87   -12971.586    964.42152   -13936.007    97.595578    1.1339035 
   29500    233.62787   -629.13157    132762.87   -12974.002    942.92602   -13916.928     98.44318    1.1339035 
   29600    238.23723   -687.76445    132762.87   -12979.591    961.52946    -13941.12    98.536366    1.1339035 
   29700       247.53   -476.25717    132762.87    -12925.61    999.03526   -13924.645    98.627054    1.1339035 
   29800    239.73018   -252.98582    132762.87   -12944.041    967.55502   -13911.596    98.286002    1.1339035 
   29900    239.34889   -450.42076    132762.87   -12941.482    966.01615   -13907.498    98.542001    1.1339035 
   30000    241.17857   -402.59593    132762.87   -12945.732    973.40076   -13919.133    98.402752    1.1339035 
   30100    240.15765   -403.51548    132762.87    -12938.81     969.2803    -13908.09    98.825381    1.1339035 
   30200    236.92814    -460.2157    132762.87   -12975.063    956.24594   -13931.309    98.783202    1.1339035 
   30300    240.46133   -406.07982    132762.87   -12988.422    970.50597   -13958.928    99.318033    1.1339035 
   30400    231.62022   -600.44715    132762.87   -13015.641     934.8231   -13950.464    99.651551    1.1339035 
   30500     236.9124   -464.56554    132762.87   -12999.297    956.18242   -13955.479     99.78543    1.1339035 
   30600    231.10675   -344.40478    132762.87   -13018.861    932.75074   -13951.612     100.0516    1.1339035 
   30700    235.77276   -459.85832    132762.87   -12911.669    951.58284   -13863.252    100.21173    1.1339035 
   30800    236.04478   -632.56454    132762.87   -12944.687    952.68069   -13897.368    100.41722    1.1339035 
   30900    239.20946   -75.593367    132762.87   -12918.529    965.45338   -13883.982    101.59943    1.1339035 
   31000     242.0502   -532.94989    132762.87   -12928.635    976.91868   -13905.553    102.06063    1.1339035 
   31100    239.59525   -331.27114    132762.87   -12900.971    967.01046   -13867.981    101.93485    1.1339035 
   31200    246.79547   -327.00028    132762.87   -12908.095    996.07068   -13904.165    101.74028    1.1339035 
   31300    238.45634    -414.4928    132762.87   -12894.228    962.41378   -13856.642     102.2002    1.1339035 
   31400    236.93601   -547.67157    132762.87   -12908.378    956.27771   -13864.656    102.06075    1.1339035 
   31500    240.59724   -411.52128    132762.87   -12911.137    971.05452   -13882.192    102.56647    1.1339035 
   31600    243.28026   -539.61147    132762.87   -12888.634    981.88322   -13870.517    102.97209    1.1339035 
   31700    251.83778   -341.73961    132762.87   -12895.745    1016.4215   -13912.167    103.03845    1.1339035 
   31800    239.62267   -582.64419    132762.87   -12943.607    967.12112   -13910.728    103.10291    1.1339035 
   31900    241.96712   -488.19828    132762.87   -12910.583    976.58338   -13887.167    103.78855    1.1339035 
   32000    243.45515   -648.96048    132762.87   -12923.173    982.58909   -13905.762    103.87995    1.1339035 
   32100     235.7932   -425.26128    132762.87   -12948.992     951.6653   -13900.658    103.94152    1.1339035 
   32200    236.32515   -512.89791    132762.87   -12966.004    953.81227   -13919.816    103.90467    1.1339035 
   32300    228.71376   -530.77301    132762.87   -13003.811    923.09259   -13926.904    103.88254    1.1339035 
   32400    228.86098   -555.44117    132762.87   -12982.375    923.68674   -13906.062      103.966    1.1339035 
   32500    239.92761    -427.7891    132762.87   -12983.698    968.35189    -13952.05    104.05935    1.1339035 
   32600     239.3229   -374.22921    132762.87   -12972.223    965.91126   -13938.135     104.2261    1.1339035 
   32700    234.26437   -439.05057    132762.87   -12985.969    945.49495   -13931.464    104.46331    1.1339035 
   32800    237.28402   -629.29632    132762.87    -12980.63    957.68229   -13938.313    105.43256    1.1339035 
   32900    234.87234   -266.42897    132762.87   -12975.707     947.9487   -13923.656    105.62583    1.1339035 
   33000    241.44999   -403.58509    132762.87   -12936.806     974.4962   -13911.302    105.33606    1.1339035 
   33100    239.35124   -527.47636    132762.87   -12929.946    966.02564   -13895.971    105.08351    1.1339035 
   33200    240.25194   -665.87153    132762.87    -12931.82    969.66086   -13901.481    105.56702    1.1339035 
   33300    235.26863   -671.75089    132762.87   -12924.494    949.54814   -13874.042     106.1814    1.1339035 
   33400     238.8968    -488.2937    132762.87   -12914.076    964.19148   -13878.267     106.6779    1.1339035 
   33500    243.70572   -505.04611    132762.87   -12896.469    983.60039    -13880.07    106.81933    1.1339035 
   33600    240.68519   -449.60626    132762.87   -12931.736    971.40949   -13903.146    107.20341    1.1339035 
   33700    250.80551   -488.45271    132762.87   -12889.707    1012.2553   -13901.962    107.69383    1.1339035 
   33800    242.86634   -400.55009    132762.87   -12900.322    980.21265   -13880.534    107.74682    1.1339035 
   33900    241.51189   -486.11998    132762.87   -12913.309    974.74606   -13888.055    108.06521    1.1339035 
   34000    236.32843   -508.28222    132762.87     -12952.8    953.82552   -13906.626    108.40035    1.1339035 
   34100    240.33244     -456.643    132762.87   -12972.229    969.98577   -13942.215    108.47304    1.1339035 
   34200    222.43478   -532.89499    132762.87   -12974.791     897.7505   -13872.542    108.32052    1.1339035 
   34300    229.68596   -389.00624    132762.87   -12994.821     927.0164   -13921.837    108.84133    1.1339035 
   34400    239.32087   -463.13724    132762.87   -12970.228    965.90307   -13936.132    108.61106    1.1339035 
   34500    238.07021   -566.17781    132762.87   -12964.381    960.85538   -13925.236    108.69843    1.1339035 
   34600    231.32726   -469.53396    132762.87   -12953.846    933.64069   -13887.486    109.38037    1.1339035 
   34700     238.0694   -357.34907    132762.87   -12943.088     960.8521   -13903.941    109.98061    1.1339035 
   34800    240.22531     -439.147    132762.87    -12934.84     969.5534   -13904.393    109.67627    1.1339035 
   34900     242.6626   -548.41923    132762.87   -12948.758    979.39034   -13928.148    110.12256    1.1339035 
   35000    243.91747   -399.07564    132762.87   -12938.334      984.455   -13922.789    109.98707    1.1339035 
   35100    238.95203   -573.14751    132762.87   -12916.166    964.41441    -13880.58    110.46495    1.1339035 
   35200    240.62986    -557.2699    132762.87   -12903.839    971.18617   -13875.025    110.95243    1.1339035 
   35300    248.03776   -440.30464    132762.87   -12838.565    1001.0846    -13839.65    111.23959    1.1339035 
   35400    238.45433   -446.55442    132762.87   -12855.731    962.40569   -13818.137    111.87231    1.1339035 
   35500    248.00375   -518.56279    132762.87   -12889.089    1000.9473   -13890.037     112.2378    1.1339035 
   35600    240.83917   -642.68992    132762.87   -12913.768    972.03094   -13885.799    112.28257    1.1339035 
   35700    239.21401   -420.75785    132762.87   -12945.932    965.47175   -13911.404    111.91245    1.1339035 
   35800     246.7624    -530.1664    132762.87   -12908.109    995.93718   -13904.046    112.61204    1.1339035 
   35900    235.15552    -574.7343    132762.87   -12974.238    949.09164    -13923.33    113.64036    1.1339035 
   36000    233.03447   -421.84354    132762.87   -12952.171    940.53105   -13892.702    113.70775    1.1339035 
   36100    239.06193    -512.7029    132762.87     -12925.6    964.85797   -13890.458    113.51969    1.1339035 
   36200    239.66469   -536.90769    132762.87   -12945.573    967.29073   -13912.863    113.63131    1.1339035 
   36300    241.25289   -483.73387    132762.87   -12928.265     973.7007   -13901.965    113.81037    1.1339035 
   36400    243.61471   -469.61956    132762.87   -12918.702    983.23306   -13901.935     113.9455    1.1339035 
   36500    239.16064   -364.13699    132762.87   -12946.354    965.25637   -13911.611    115.00754    1.1339035 
   36600    242.09409   -414.71312    132762.87   -12968.115    977.09584   -13945.211    114.75746    1.1339035 
   36700    236.33812   -395.72224    132762.87   -12975.995    953.86461    -13929.86    114.95809    1.1339035 
   36800    232.46888   -563.72856    132762.87   -13001.646    938.24829   -13939.894    114.59305    1.1339035 
   36900    233.55664     -480.061    132762.87    -12972.26    942.63851   -13914.899    114.87734    1.1339035 
   37000    245.32067   -382.76153    132762.87   -12963.171    990.11833   -13953.289    114.79744    1.1339035 
   37100    237.73333   -450.05343    132762.87   -13041.683    959.49572   -14001.179    115.56837    1.1339035 
   37200    235.52763   -497.17704    132762.87   -13034.196    950.59347    -13984.79    115.34674    1.1339035 
   37300     233.9801   -526.21604    132762.87   -13018.903    944.34762   -13963.251     115.3112    1.1339035 
   37400    240.51655   -378.51415    132762.87   -12990.889    970.72885   -13961.618    116.04822    1.1339035 
   37500    242.97876   -692.68181    132762.87   -12985.822    980.66635   -13966.488    116.91436    1.1339035 
   37600    235.31701   -608.97284    132762.87   -12958.672    949.74342   -13908.415    117.18689    1.1339035 
   37700    237.44101   -588.36252    132762.87   -12968.687    958.31589   -13927.003    117.92329    1.1339035 
   37800    241.38859   -482.32793    132762.87   -12980.018    974.24841   -13954.267    118.23198    1.1339035 
   37900    239.48362   -450.07136    132762.87   -12955.459    966.55991   -13922.019    118.95031    1.1339035 
   38000    240.92343   -437.72633    132762.87   -12968.011      972.371   -13940.382    118.24151    1.1339035 
   38100    234.07396    -742.0641    132762.87    -12990.63    944.72645   -13935.357    118.98631    1.1339035 
   38200    233.44411   -443.25078    132762.87   -12949.387    942.18433   -13891.571    118.80967    1.1339035 
   38300    241.04642   -503.04273    132762.87   -13000.728    972.86741   -13973.595     119.2091    1.1339035 
   38400    237.57248    -478.4255    132762.87   -12947.121     958.8465   -13905.968    118.93452    1.1339035 
   38500    236.93355   -486.79384    132762.87   -12963.492    956.26778    -13919.76    119.05639    1.1339035 
   38600    233.57281    -351.8378    132762.87   -12941.264    942.70377   -13883.968    119.02566    1.1339035 
   38700    242.38819   -526.51679    132762.87   -12917.567    978.28282   -13895.849    119.00401    1.1339035 
   38800    233.55744   -446.46078    132762.87   -12920.817    942.64174   -13863.459    119.14273    1.1339035 
   38900    246.33489   -608.52048    132762.87   -12895.844    994.21176   -13890.056    119.25659    1.1339035 
   39000      250.376   -561.88954    132762.87   -12876.477    1010.5218   -13886.999    119.56649    1.1339035 
   39100    233.29223   -390.92236    132762.87    -12913.28    941.57138   -13854.851    120.60809    1.1339035 
   39200    232.93299   -546.50369    132762.87   -12951.939    940.12147   -13892.061    120.65182    1.1339035 
   39300      237.044   -482.34444    132762.87   -12922.027    956.71359   -13878.741    121.30756    1.1339035 
   39400    240.81311   -363.47289    132762.87   -12913.676    971.92575   -13885.602    121.47237    1.1339035 
   39500    238.76767   -603.91964    132762.87   -12921.034    963.67034   -13884.704    122.01561    1.1339035 
   39600    243.91756   -532.61545    132762.87   -12956.844    984.45539   -13941.299    121.50462    1.1339035 
   39700    240.49549   -529.68497    132762.87   -12910.616    970.64386   -13881.259    122.05576    1.1339035 
   39800    245.76528   -489.33988    132762.87   -12876.162    991.91278   -13868.075    121.92729    1.1339035 
   39900    238.27751   -333.42345    132762.87   -12917.199    961.69202   -13878.891    122.93357    1.1339035 
   40000    239.43669   -640.84612    132762.87   -12937.413    966.37049   -13903.783    123.26329    1.1339035 
   40100    233.98942   -567.60337    132762.87   -12961.144    944.38523    -13905.53    123.71649    1.1339035 
   40200     236.6995   -341.57938    132762.87   -12989.266    955.32315   -13944.589    123.52957    1.1339035 
   40300    245.61238   -490.80548    132762.87   -12921.543     991.2957   -13912.839     123.2619    1.1339035 
   40400    240.35471   -404.93234    132762.87   -12902.134    970.07565    -13872.21    123.27886    1.1339035 
   40500    243.84716   -618.36856    132762.87   -12905.955    984.17124   -13890.126    123.99119    1.1339035 
   40600    229.94801   -395.73064    132762.87   -12998.645    928.07402   -13926.719    123.85543    1.1339035 
   40700    230.69726   -532.12692    132762.87   -12971.138      931.098   -13902.236    123.96861    1.1339035 
   40800    232.18009   -418.22591    132762.87    -12946.15    937.08276   -13883.233     124.5851    1.1339035 
   40900    238.06876   -412.21267    132762.87   -12923.265    960.84951   -13884.115    124.43437    1.1339035 
   41000    242.38326   -528.45632    132762.87   -12908.635    978.26293   -13886.898    124.70045    1.1339035 
   41100    237.62443   -451.93624    132762.87   -12936.332    959.05617   -13895.388    124.97187    1.1339035 
   41200    236.69761   -511.41642    132762.87   -12907.096    955.31552   -13862.411    125.91608    1.1339035 
   41300     238.9147    -418.3984    132762.87   -12896.582    964.26375   -13860.846    125.87619    1.1339035 
   41400    240.77386   -408.05917    132762.87    -12892.92    971.76733   -13864.687    126.21204    1.1339035 
   41500    244.36235   -585.46482    132762.87   -12888.828    986.25057   -13875.078    126.27937    1.1339035 
   41600    241.76754   -489.79354    132762.87   -12878.505    975.77784   -13854.282    126.29088    1.1339035 
   41700    246.04188   -510.34441    132762.87   -12900.945    993.02917   -13893.975    126.52237    1.1339035 
   41800    242.46027   -695.59168    132762.87   -12923.428    978.57373   -13902.002    126.93216    1.1339035 
   41900    240.87226   -499.75284    132762.87   -12907.637    972.16449   -13879.802     126.5512    1.1339035 
   42000       241.22   -671.21855    132762.87   -12943.011    973.56797   -13916.579    126.23544    1.1339035 
   42100    237.89084    -271.9897    132762.87   -12900.489    960.13141   -13860.621    126.38074    1.1339035 
   42200    244.43772   -587.42896    132762.87   -12936.235    986.55476    -13922.79    125.55104    1.1339035 
   42300     230.0831   -576.61399    132762.87   -12973.418    928.61925   -13902.037    125.57644    1.1339035 
   42400    239.90255   -498.89661    132762.87    -12955.07    968.25074    -13923.32    125.01515    1.1339035 
   42500    243.72972   -541.53786    132762.87   -12932.543    983.69725    -13916.24    125.53798    1.1339035 
   42600    244.97373   -366.33731    132762.87   -12935.516    988.71808   -13924.234    126.07392    1.1339035 
   42700    249.23266   -566.81202    132762.87   -12872.508    1005.9072   -13878.415    126.82791    1.1339035 
   42800    244.80781   -679.94723    132762.87   -12877.946    988.04842   -13865.995    126.82794    1.1339035 
   42900     251.0678   -291.21009    132762.87   -12841.574    1013.3138   -13854.887    127.41469    1.1339035 
   43000    244.06863   -315.30202    132762.87   -12862.735    985.06508     -13847.8    127.07238    1.1339035 
   43100    249.35244   -575.85527    132762.87   -12834.617    1006.3906   -13841.008    128.02717    1.1339035 
   43200    242.48979   -469.56817    132762.87    -12875.48    978.69287   -13854.173    128.50889    1.1339035 
   43300    240.63531   -338.43068    132762.87   -12871.149    971.20814   -13842.357    128.58476    1.1339035 
   43400    233.69892   -352.88339    132762.87   -12906.359    943.21277   -13849.572    128.79565    1.1339035 
   43500    244.38466   -305.12751    132762.87   -12903.515    986.34059   -13889.856    129.31902    1.1339035 
   43600    244.41606   -493.20064    132762.87   -12930.988    986.46731   -13917.455    129.32605    1.1339035 
   43700    248.15139   -402.72733    132762.87   -12912.275    1001.5432   -13913.818     130.0507    1.1339035 
   43800    236.20884   -642.01578    132762.87   -12916.017    953.34284    -13869.36    130.04787    1.1339035 
   43900    236.40752   -492.89573    132762.87   -12944.443     954.1447   -13898.588    129.92728    1.1339035 
   44000     238.7187    -344.5374    132762.87   -12969.511    963.47269   -13932.984    130.40892    1.1339035 
   44100    238.49696   -406.36762    132762.87   -12953.868    962.57774   -13916.445    130.48205    1.1339035 
   44200    244.97843   -537.80723    132762.87   -12947.624    988.73708   -13936.361    130.28558    1.1339035 
   44300    238.32036   -522.64448    132762.87   -12918.217      961.865   -13880.082    129.91863    1.1339035 
   44400    234.08345   -496.12527    132762.87    -12895.61    944.76474   -13840.374    130.60144    1.1339035 
   44500    240.58704   -773.77749    132762.87   -12918.111    971.01333   -13889.124    130.88263    1.1339035 
   44600    244.27832   -340.88656    132762.87   -12916.051    985.91141   -13901.962    130.82951    1.1339035 
   44700    242.68247   -566.20897    132762.87   -12930.916    979.47054   -13910.386    130.38024    1.1339035 
   44800    235.31824   -579.30607    132762.87   -12921.126    949.74836   -13870.875    130.95843    1.1339035 
   44900    244.85558   -585.36023    132762.87   -12939.479    988.24122   -13927.721    131.50133    1.1339035 
   45000    242.80364   -384.21437    132762.87   -12925.209    979.95959   -13905.168    130.79896    1.1339035 
   45100     239.1119   -401.79346    132762.87   -12907.483    965.05964   -13872.543    131.33869    1.1339035 
   45200    247.83579   -530.24847    132762.87   -12839.305    1000.2694   -13839.575    131.38054    1.1339035 
   45300    243.77834   -517.26584    132762.87   -12799.397    983.89349    -13783.29    131.58535    1.1339035 
   45400    254.73255   -419.52555    132762.87    -12791.36    1028.1048   -13819.465    132.13363    1.1339035 
   45500     252.5959   -420.55511    132762.87    -12803.62    1019.4813   -13823.101    132.22341    1.1339035 
   45600    257.01019    -302.2738    132762.87   -12810.559    1037.2974   -13847.856    132.55026    1.1339035 
   45700    247.78609   -448.64605    132762.87   -12847.898    1000.0688   -13847.967    132.57363    1.1339035 
   45800    243.34158   -369.43862    132762.87   -12874.688     982.1307   -13856.818    132.77027    1.1339035 
   45900    239.31753   -487.74577    132762.87   -12868.961    965.88959   -13834.851    132.70262    1.1339035 
   46000    244.31293   -468.12479    132762.87   -12881.656    986.05107   -13867.707    133.72213    1.1339035 
   46100    246.45313   -443.24296    132762.87   -12898.864    994.68896   -13893.553    134.44425    1.1339035 
   46200     249.3875   -419.31771    132762.87   -12885.838    1006.5321   -13892.371    135.00052    1.1339035 
   46300    250.32603   -594.40621    132762.87    -12874.55    1010.3201    -13884.87    135.54096    1.1339035 
   46400    252.09371   -456.84301    132762.87    -12870.85    1017.4544   -13888.305    135.61947    1.1339035 
   46500    234.79308   -355.65751    132762.87   -12932.793    947.62882   -13880.422    135.41586    1.1339035 
   46600    236.76234   -449.24657    132762.87   -12911.337    955.57679   -13866.913    135.70931    1.1339035 
   46700    240.43804   -487.68351    132762.87   -12915.097    970.41197   -13885.509    135.80485    1.1339035 
   46800    246.92178   -430.72119    132762.87   -12874.789    996.58047   -13871.369    136.49665    1.1339035 
   46900    248.23736   -409.71147    132762.87   -12837.427    1001.8902   -13839.317    135.97569    1.1339035 
   47000    240.63691   -401.62248    132762.87   -12840.512    971.21463   -13811.727    136.93589    1.1339035 
   47100    236.69215   -534.75344    132762.87   -12866.729     955.2935   -13822.022    137.40361    1.1339035 
   47200     238.5294   -438.51494    132762.87   -12890.569    962.70867   -13853.278    137.41313    1.1339035 
   47300    237.48603   -400.00712    132762.87   -12911.035    958.49761   -13869.532    137.41982    1.1339035 
   47400    246.13694   -516.85615    132762.87   -12888.218    993.41281   -13881.631    138.01894    1.1339035 
   47500    244.03378   -452.09962    132762.87   -12911.639    984.92444   -13896.564    138.55404    1.1339035 
   47600    239.48409   -497.37983    132762.87   -12896.256    966.56183   -13862.818     138.4914    1.1339035 
   47700    242.70589   -415.48984    132762.87   -12878.902    979.56506   -13858.467    138.69156    1.1339035 
   47800    227.64519   -498.55699    132762.87    -12892.23     918.7798    -13811.01    138.79759    1.1339035 
   47900    246.66461   -505.93052    132762.87   -12889.348    995.54252   -13884.891     139.1684    1.1339035 
   48000     231.2395   -492.29009    132762.87   -12901.642    933.28649   -13834.928    139.58223    1.1339035 
   48100    240.05794    -357.4991    132762.87   -12897.382    968.87789    -13866.26    139.90829    1.1339035 
   48200    237.52575   -343.60229    132762.87   -12907.509    958.65791   -13866.167     140.2106    1.1339035 
   48300    229.91164   -380.24337    132762.87   -12941.269    927.92723   -13869.196    140.71715    1.1339035 
   48400    234.83424   -567.48965    132762.87    -12920.79    947.79495   -13868.585     141.4162    1.1339035 
   48500    233.85718   -447.14388    132762.87   -12914.834    943.85151   -13858.685    141.18409    1.1339035 
   48600    241.56789   -306.38951    132762.87   -12889.764    974.97205   -13864.736    140.67141    1.1339035 
   48700    248.02684   -418.99003    132762.87   -12883.414    1001.0405   -13884.454    140.91618    1.1339035 
   48800    236.46709   -289.35139    132762.87   -12886.838    954.38517   -13841.224    141.83002    1.1339035 
   48900    238.35386   -405.54138    132762.87    -12875.54     962.0002    -13837.54    142.50063    1.1339035 
   49000     242.1779   -431.10228    132762.87   -12881.911    977.43409   -13859.345     142.0096    1.1339035 
   49100    237.96747   -512.02087    132762.87   -12891.594    960.44069   -13852.035    142.44715    1.1339035 
   49200    244.30579   -526.62925    132762.87   -12884.755    986.02227   -13870.777     142.0699    1.1339035 
   49300    237.09497   -503.21895    132762.87   -12887.067    956.91927   -13843.986    142.32575    1.1339035 
   49400     237.5519   -357.99898    132762.87    -12892.38    958.76346   -13851.143    141.97255    1.1339035 
   49500    243.10608    -384.1404    132762.87   -12934.038    981.18022   -13915.218    142.89547    1.1339035 
   49600    241.55548   -545.43204    132762.87   -12917.888    974.92197    -13892.81    143.56312    1.1339035 
   49700    241.58682   -409.25605    132762.87    -12891.55    975.04847   -13866.599    144.40982    1.1339035 
   49800     239.9329   -776.46552    132762.87   -12929.451    968.37321   -13897.824    144.50023    1.1339035 
   49900    234.28089   -451.89235    132762.87   -12917.951    945.56159   -13863.512    144.20769    1.1339035 
   50000    233.47131   -552.42726    132762.87   -12946.021    942.29413   -13888.315    144.83066    1.1339035 
Loop time of 128.246 on 12 procs for 50000 steps with 6871 atoms

Performance: 168.427 ns/day, 0.142 hours/ns, 389.876 timesteps/s
98.3% CPU use with 12 MPI tasks x no OpenMP threads

MPI task timing breakdown:
Section |  min time  |  avg time  |  max time  |%varavg| %total
---------------------------------------------------------------
Pair    | 22.167     | 52.839     | 106.42     | 447.8 | 41.20
Neigh   | 3.524      | 4.5971     | 6.4097     |  51.3 |  3.58
Comm    | 9.7528     | 65.354     | 96.553     | 415.9 | 50.96
Output  | 1.2409     | 1.2422     | 1.2535     |   0.3 |  0.97
Modify  | 2.7512     | 3.3721     | 4.0238     |  22.9 |  2.63
Other   |            | 0.8417     |            |       |  0.66

Nlocal:        572.583 ave         733 max         472 min
Histogram: 5 2 1 0 0 0 0 0 0 4
Nghost:        2061.08 ave        2273 max        1928 min
Histogram: 3 2 3 0 0 0 1 1 0 2
Neighs:        0.00000 ave           0 max           0 min
Histogram: 12 0 0 0 0 0 0 0 0 0
FullNghs:      60429.3 ave       74694 max       51134 min
Histogram: 4 1 2 1 0 0 0 0 2 2

Total # of neighbors = 725152
Ave neighs/atom = 105.53806
Neighbor list builds = 2790
Dangerous builds = 0

# Create data file for import to other simulations
#
write_data data.${NAME}
write_data data.Ibeam_240K
System init for write_data ...


Total wall time: 0:02:08
