
# Set production fixes - Nose/Hoover
#
fix                 4 water temp/csvr ${START_TEMP} ${END_TEMP} 500.0 928347
fix                 4 water temp/csvr 240 ${END_TEMP} 500.0 928347
fix                 4 water temp/csvr 240 227 500.0 928347


## divide "droplet" into core and surface
#region		core_reg cylinder z 135 135 44.6 20 INF units box
#region		surface_reg cylinder z 135 135 44.6 20 INF units box side out
#group		core dynamic all region core_reg
#group		surface dynamic all region surface_reg

## compute pressure core
#compute        peratom_core core stress/atom NULL
#compute        p_core core reduce sum c_peratom_core[1] c_peratom_core[2] c_peratom_core[3]
#variable       press_core equal -(c_p_core[1]+c_p_core[2]+c_p_core[3])/(3*1249982.5)


## compute pressure surface
#compute        peratom_surf surface stress/atom NULL
#compute        p_surf surface reduce sum c_peratom_surf[1] c_peratom_surf[2] #c_peratom_surf[3]
#variable       press_surf equal -(c_p_surf[1]+c_p_surf[2]+c_p_surf[3])/(3*42395)

## compute total pressure of drop
compute        peratom water stress/atom NULL
compute        p water reduce sum c_peratom[1] c_peratom[2] c_peratom[3]
variable       press equal -(c_p[1]+c_p[2]+c_p[3])/(3*50320)


# compute order parameter
compute        3 all orientorder/atom nnn NULL cutoff 3.5

# compute center of mass of bridge
compute 	4 water com

# Run simulation
thermo_style        custom step c_2 press vol etotal ke pe v_press c_1[4] c_4[*]
thermo              200
dump		     1 water custom 400 ${DIR}/prod.${NAME}.dump id type x y z vx vy vz c_3[*] c_peratom[*]
dump		     1 water custom 400 run_20/prod.${NAME}.dump id type x y z vx vy vz c_3[*] c_peratom[*]
dump		     1 water custom 400 run_20/prod.ibeam_cooling_20.dump id type x y z vx vy vz c_3[*] c_peratom[*]
run                 ${STEPS}
run                 5200000
Neighbor list info ...
  update every 1 steps, delay 0 steps, check yes
  max neighbors/atom: 2000, page size: 100000
  master list distance cutoff = 6.67472
  ghost atom cutoff = 6.67472
  binsize = 3.33736, bins = 48 13 11
  2 neighbor lists, perpetual/occasional/extra = 1 1 0
  (1) pair sw, perpetual
      attributes: full, newton on
      pair build: full/bin/atomonly
      stencil: full/bin/3d
      bin: standard
  (2) compute orientorder/atom, occasional, copy from (1)
      attributes: full, newton on
      pair build: copy
      stencil: none
      bin: none
Per MPI rank memory allocation (min/avg/max) = 0.8537 | 5.962 | 7.262 Mbytes
Step c_2 Press Volume TotEng KinEng PotEng v_press c_1[4] c_4[1] c_4[2] c_4[3] 
       0    241.76683   -303.02034    216009.12   -18642.912    1406.0096   -20048.922    -730.7597    32.938125    78.749031    22.594561    25.610728 
     200     239.2232   -159.14231    216009.12   -18689.997     1391.217   -20081.214   -55.997645     34.50017    78.750043    22.596725    25.610464 
     400    234.56969   -420.00879    216009.12   -18648.439    1364.1542   -20012.593   -1162.5409    36.259549    78.750417    22.595592    25.616155 
     600    250.67951   -248.80888    216009.12   -18559.334    1457.8419   -20017.176   -466.06111     36.55746    78.750687    22.593763    25.632662 
     800    249.00033   -351.80454    216009.12   -18583.047    1448.0765   -20031.124    -899.4626     38.21754    78.750904     22.59766    25.631378 
    1000    238.77463   -276.49489    216009.12   -18683.154    1388.6083   -20071.762   -594.62374    40.021395    78.751573     22.59808    25.609311 
    1200    244.37508   -298.53249    216009.12   -18600.807    1421.1781   -20021.985   -674.14724    41.626465    78.748759    22.600573    25.616263 
    1400    238.59448   -399.69535    216009.12   -18611.223    1387.5606   -19998.783   -1096.6602    42.643257    78.748944    22.603735    25.599886 
    1600    234.87434   -295.70975    216009.12   -18631.942    1365.9259   -19997.868   -694.43882    43.246876    78.745924    22.601759    25.598737 
    1800    238.74294   -181.13903    216009.12   -18594.608     1388.424   -19983.032   -229.36371    45.486586    78.743591    22.601098    25.604267 
    2000     239.2266   -342.90012    216009.12   -18507.429    1391.2367   -19898.666   -855.73488    45.873851    78.742154    22.599598    25.593979 
    2200    237.69385   -247.77159    216009.12   -18554.275     1382.323   -19936.598   -495.71041    48.020786    78.742103     22.59933    25.619079 
    2400    239.41319   -180.65133    216009.12   -18543.101    1392.3219   -19935.423    -182.9843    48.876849     78.74245    22.600307    25.608541 
    2600    237.60884   -176.12573    216009.12    -18588.63    1381.8285   -19970.458   -170.31867    51.343515    78.743646    22.598723    25.610198 
    2800    236.42434   -419.32629    216009.12   -18515.733      1374.94   -19890.673   -1207.5266    52.733603    78.744485    22.596522    25.599285 
    3000    246.28173   -267.01008    216009.12   -18540.603    1432.2663   -19972.869   -578.49661    53.324634    78.746329    22.597914    25.626933 
    3200    234.40723     -235.111    216009.12   -18608.321    1363.2094   -19971.531   -473.02026    55.332827    78.747345    22.600907    25.632395 
    3400    232.41847   -250.76194    216009.12    -18594.89    1351.6436   -19946.534   -533.71589     56.35813    78.747112    22.601988    25.613513 
    3600    242.47735   -295.70053    216009.12   -18580.437    1410.1416   -19990.579   -682.77417    56.937167    78.746827    22.602568    25.595651 
    3800    241.06229   -250.35735    216009.12   -18558.389    1401.9123   -19960.301   -516.41488    58.632834    78.746539    22.599793    25.606205 
    4000    234.07097   -306.84494    216009.12   -18655.194    1361.2538   -20016.448   -735.67555    59.921257    78.746462    22.596716    25.597872 
    4200    244.17128   -409.11658    216009.12   -18573.305    1419.9929   -19993.298    -1167.721    61.661152      78.7436    22.596764    25.585698 
    4400    238.99004   -303.99822    216009.12   -18593.508     1389.861   -19983.369    -715.5432    62.528238    78.742286    22.595278    25.577653 
    4600    230.12387   -360.01786    216009.12   -18692.813    1338.2993   -20031.112   -950.54217    65.056742    78.742727    22.595905    25.573726 
    4800    243.98666   -265.04467    216009.12   -18561.386    1418.9192   -19980.305   -525.14041    65.629127    78.742537    22.595326    25.596982 
    5000    240.61552   -246.72873    216009.12   -18619.177    1399.3141   -20018.491   -470.00281     66.26885     78.74443    22.596729    25.579567 
    5200    234.29644   -211.79636    216009.12   -18625.493    1362.5651   -19988.058    -274.5229    67.304014    78.746587    22.594288    25.570485 
    5400    227.99132   -354.06313    216009.12   -18642.032    1325.8973   -19967.929   -935.43122    68.532051    78.746678    22.592565    25.584108 
    5600    237.18159   -395.86004    216009.12   -18676.021    1379.3438   -20055.365   -1161.0386    70.790446    78.746131    22.590305    25.607054 
    5800    240.23984   -203.62856    216009.12   -18610.214    1397.1293   -20007.343   -287.78439    71.622232    78.745495    22.591035    25.610851 
    6000    236.54069   -72.619394    216009.12   -18649.588    1375.6167   -20025.204    254.98194    73.293541    78.747609    22.594213    25.598604 
    6200    233.89885   -404.44002    216009.12   -18643.521    1360.2529   -20003.774   -1167.9269    75.202764    78.748299    22.596154    25.605526 
    6400    235.51233   -367.73556    216009.12   -18617.212    1369.6362   -19986.848    -992.2323    76.463745    78.748524    22.596601    25.620431 
    6600    232.40108   -277.51765    216009.12   -18642.552    1351.5425   -19994.095   -609.92143    78.537948    78.749076    22.595602    25.631983 
    6800    239.74335   -171.27146    216009.12    -18599.49     1394.242   -19993.732   -187.70077    80.214963    78.750209    22.595768    25.599174 
    7000    234.29562   -360.26416    216009.12   -18547.793    1362.5604   -19910.354   -958.01464    82.511273    78.751678    22.595479    25.571354 
    7200    238.32693    -213.6155    216009.12   -18641.902    1386.0047   -20027.907   -290.32989    83.485135     78.75135    22.596793    25.589376 
    7400    239.89334   -478.89245    216009.12   -18618.089    1395.1142   -20013.203   -1461.7025    85.159028    78.750452    22.595237    25.587302 
    7600    238.98319   -277.04871    216009.12   -18580.611    1389.8212   -19970.432   -609.89017    85.913191    78.749569    22.593307    25.602557 
    7800    235.78448   -379.92725    216009.12   -18689.773    1371.2189   -20060.992   -1019.0665    87.131371    78.747568    22.595359    25.616744 
    8000    246.87615   -425.62387    216009.12   -18579.154    1435.7232   -20014.877   -1273.4779    89.520558    78.746434    22.593542    25.607632 
    8200    246.47536   -295.38771    216009.12   -18579.015    1433.3924   -20012.407   -698.92086    90.061563    78.748831    22.594158    25.575639 
    8400    243.44584   -429.65528    216009.12   -18510.633     1415.774   -19926.407   -1269.3812    90.539662    78.748042    22.594062    25.563069 
    8600    231.62391   -219.68938    216009.12   -18553.553    1347.0228   -19900.576    -348.5939    92.900738    78.749695    22.594422    25.561771 
    8800    239.18233   -314.70308    216009.12   -18555.355    1390.9793   -19946.334   -800.06464    94.714099    78.750232     22.59457    25.560021 
    9000    237.20494    -237.6134    216009.12   -18558.669    1379.4797   -19938.148   -465.75808    95.255232    78.750926    22.592993    25.555643 
    9200    240.67894   -253.05701    216009.12   -18557.714    1399.6829   -19957.397   -524.57247    96.089929    78.749205    22.592721    25.536026 
    9400    243.85678   -566.93989    216009.12   -18608.949    1418.1638   -20027.113   -1832.0734    97.807536    78.751141     22.59243    25.533375 
    9600    236.31133    -281.7674    216009.12   -18660.698    1374.2828   -20034.981   -600.36617    98.167184    78.751948    22.593694    25.514936 
    9800    243.59549   -190.32275    216009.12   -18583.469    1416.6443   -20000.114   -242.68336    100.37962    78.751505    22.598622    25.508125 
   10000    241.89344   -449.44725    216009.12   -18593.428    1406.7459   -20000.174   -1337.9809     102.4567    78.753325    22.599791    25.502658 
   10200    244.80169   -113.13037    216009.12   -18537.803     1423.659   -19961.462    94.925828     101.7112    78.754203    22.600519    25.493129 
   10400    241.95529   -212.83975    216009.12   -18552.567    1407.1056   -19959.672   -354.92924    103.47264     78.75334    22.600483    25.509193 
   10600    241.05916   -399.14876    216009.12   -18653.995    1401.8941   -20055.889   -1124.3452     105.0936    78.754567    22.601049    25.500291 
   10800    240.03638   -297.55499    216009.12   -18676.559    1395.9461   -20072.505   -731.92084    105.10514    78.752903     22.60009    25.499468 
   11000    231.21181   -342.85489    216009.12   -18670.727    1344.6262   -20015.353   -934.05652    107.73387    78.753245    22.600105    25.467857 
   11200    234.73653   -371.41478    216009.12   -18663.363    1365.1245   -20028.487    -996.9265    109.39075    78.751972    22.596823    25.461332 
   11400    241.60461   -336.15652    216009.12   -18651.392    1405.0662   -20056.458   -846.08484    110.39545    78.751472    22.598622    25.464993 
   11600    240.14179    -401.7078    216009.12   -18578.884    1396.5591   -19975.443    -1099.333    112.09131    78.751215    22.599196    25.478349 
   11800    243.04857   -338.02854    216009.12   -18545.479    1413.4636   -19958.943   -858.46121    112.98134    78.749978     22.59907    25.482196 
   12000    237.30179   -294.06947    216009.12   -18490.277    1380.0429    -19870.32   -660.18664    114.21411    78.748374    22.599432    25.476839 
   12200    248.43693   -388.82655    216009.12   -18565.264       1444.8   -20010.064   -1076.8563     116.3002    78.746771    22.600268    25.484964 
   12400    237.59924    -173.1293    216009.12   -18564.747    1381.7727    -19946.52   -145.59089    118.74544    78.747217    22.600578    25.482426 
   12600    239.47232   -418.80741    216009.12   -18514.318    1392.6658   -19906.984    -1230.604     120.3587    78.746057    22.602793      25.5044 
   12800    240.00947   -214.53416    216009.12   -18577.827    1395.7895   -19973.617   -335.71402    121.26148      78.7452    22.603348    25.500866 
   13000    238.34354   -218.48263    216009.12   -18597.796    1386.1013   -19983.897   -349.26028    123.08777    78.746193    22.600713    25.489102 
   13200    239.74319   -354.48263    216009.12   -18623.537     1394.241   -20017.778   -974.31247     124.7034    78.746013    22.601801    25.478931 
   13400    237.73644   -547.46997    216009.12   -18687.755    1382.5706   -20070.326   -1756.8732    127.01282    78.746913    22.600972    25.477783 
   13600     229.6441   -360.40018    216009.12   -18659.125    1335.5092   -19994.634   -1030.2775    128.74225    78.746458    22.601613    25.506076 
   13800    239.21885   -462.55406    216009.12   -18586.276    1391.1917   -19977.467   -1412.7972    130.35488    78.744828    22.600172    25.527084 
   14000    243.14164   -339.42396    216009.12   -18530.587    1414.0049   -19944.592   -862.47549    130.21366    78.745822    22.598396    25.550117 
   14200    241.51162    -230.6582    216009.12    -18603.03    1404.5254   -20007.556   -419.99933    131.92945    78.743963    22.599074    25.555255 
   14400    238.41383   -341.12854    216009.12   -18661.312      1386.51   -20047.822   -867.67871    132.43313    78.740087    22.602133    25.570379 
   14600    240.37166   -158.69554    216009.12   -18647.107    1397.8959   -20045.003   -101.32635    134.26335    78.738787    22.603719    25.587124 
   14800    244.73794   -264.45684    216009.12   -18611.109    1423.2883   -20034.397   -552.59884    135.77127    78.737279    22.603197    25.589808 
   15000    240.75296   -392.85575    216009.12   -18608.807    1400.1134    -20008.92   -1098.7258    135.69556    78.739947    22.598526    25.577524 
   15200    237.43038   -243.55814    216009.12   -18581.324    1380.7907   -19962.115   -484.54367    137.36083    78.738147    22.596053    25.570976 
   15400    238.57781   -357.76986    216009.12   -18639.973    1387.4637   -20027.436   -966.36638     139.1694    78.738002    22.596214    25.581316 
   15600    252.13389   -304.24968    216009.12   -18487.571    1466.2999   -19953.871   -701.73783    140.98616    78.740389    22.597432    25.562019 
   15800    243.04601   -306.18573    216009.12   -18540.538    1413.4488   -19953.986   -706.64171    142.99874    78.740932    22.598416    25.564277 
   16000    242.53775   -497.08647    216009.12   -18563.688    1410.4929   -19974.181     -1551.67    144.22218    78.738828    22.598745    25.547823 
   16200    247.55843   -275.04557    216009.12   -18565.531     1439.691   -20005.222   -548.01387     145.2608    78.738205    22.599725    25.568312 
   16400    242.78419   -59.417551    216009.12   -18615.203    1411.9261   -20027.129    351.19769    146.04369    78.738215    22.600712    25.559599 
   16600    247.15736   -363.78783    216009.12   -18552.429    1437.3586   -19989.787   -949.02268    147.91257    78.739228    22.596924    25.564644 
   16800    237.56584   -322.35643    216009.12   -18620.957    1381.5785   -20002.535   -745.33117     148.2547    78.739252    22.597222    25.570539 
   17000    228.26374   -262.86712    216009.12   -18672.123    1327.4816   -19999.605    -524.1275     150.0322    78.738761    22.597862    25.568771 
   17200    234.62875   -289.54786    216009.12   -18630.151    1364.4977   -19994.649   -659.62996    152.03209    78.738337    22.597012    25.582474 
   17400    239.70224   -369.12332    216009.12   -18662.757    1394.0029    -20056.76   -968.78218    153.12514    78.739947    22.596951    25.598884 
   17600     237.1477   -398.79409    216009.12   -18591.676    1379.1468   -19970.823   -1124.8153    153.84245    78.739845    22.598275    25.606672 
   17800    242.01618   -306.33107    216009.12   -18599.603    1407.4597   -20007.063    -746.5824    156.47109    78.739099    22.600192    25.607339 
   18000    238.30335   -447.03249    216009.12   -18564.712    1385.8675    -19950.58   -1283.1611    157.02188    78.740132    22.599898    25.601765 
   18200     238.3165   -314.15638    216009.12   -18599.292     1385.944   -19985.236    -770.8828    157.47739    78.737315    22.598556     25.62099 
   18400    237.75263   -337.50232    216009.12   -18590.297    1382.6648   -19972.962   -849.19844    158.53368    78.735921    22.597917    25.631824 
   18600     242.0055   -271.26516    216009.12   -18571.465    1407.3976   -19978.862   -624.60234    158.73807    78.735129    22.597682     25.64338 
   18800     236.4827    -361.5303    216009.12   -18607.379    1375.2794   -19982.658    -924.8499    159.05866     78.73494    22.596856    25.654293 
   19000    248.44931   -310.33008    216009.12   -18551.532     1444.872   -19996.403   -759.16366    160.73173    78.735397    22.597108    25.645107 
   19200    244.65839   -220.83038    216009.12   -18545.501    1422.8257   -19968.327    -374.3232    161.13796      78.7338    22.599259    25.653725 
   19400    244.87741   -331.72322    216009.12   -18475.734    1424.0994   -19899.833   -899.64408    161.11071    78.731784    22.597817    25.665944 
   19600    240.54909   -333.76682    216009.12   -18511.863    1398.9278   -19910.791   -828.04131    161.80762     78.73429    22.594939     25.67188 
   19800    240.10457   -319.94445    216009.12   -18501.751    1396.3426   -19898.093   -810.57415    164.80458     78.73594    22.595921    25.700186 
   20000    243.14185   -207.68416    216009.12   -18541.438    1414.0061   -19955.444   -320.29133    165.04836    78.734863    22.595217    25.698868 
   20200    242.73055   -245.31492    216009.12   -18609.652    1411.6142   -20021.266   -491.56059    166.32621    78.735069    22.592678    25.708954 
   20400    243.80053   -413.09485    216009.12   -18531.294    1417.8367    -19949.13   -1181.9827    168.19667    78.735003    22.589362    25.706855 
   20600    235.53755   -200.79697    216009.12   -18635.223    1369.7828   -20005.006   -312.43392    168.66935    78.737052    22.588335    25.701094 
   20800    240.44924   -215.28671    216009.12   -18562.567    1398.3471   -19960.914    -339.1919    169.17308    78.733004    22.586137    25.715542 
   21000    238.32951   -224.42993    216009.12   -18594.851    1386.0196    -19980.87   -384.30509    171.12509    78.727768     22.58552    25.703151 
   21200    243.41489   -411.08907    216009.12   -18559.938     1415.594   -19975.532   -1218.5348    172.82902    78.730382    22.586831    25.686445 
   21400    235.76991   -346.30714    216009.12   -18564.671    1371.1342   -19935.805   -892.46167    174.76071    78.734187    22.586145     25.69388 
   21600     240.1992   -204.52773    216009.12   -18483.999    1396.8929   -19880.892   -314.30261    176.20286    78.735894    22.586355    25.693049 
   21800     242.0064   -313.25444    216009.12   -18587.228    1407.4028   -19994.631   -723.76717    177.54503    78.734682    22.586136    25.679926 
   22000    232.15057   -335.32842    216009.12   -18625.862    1350.0857   -19975.947   -849.72824    178.64937    78.734197     22.58926     25.68895 
   22200    233.51584   -243.45559    216009.12   -18707.426    1358.0255   -20065.451   -484.34412    180.21593    78.734747    22.591357    25.706845 
   22400    245.40215   -317.04759    216009.12   -18595.757     1427.151   -20022.908   -828.83337    180.26998    78.732239    22.593749    25.702613 
   22600    241.36732   -395.10193    216009.12    -18631.93    1403.6862   -20035.617   -1097.1392    182.70305    78.734258    22.593243    25.706068 
   22800    250.20218   -327.97265    216009.12   -18572.645    1455.0659   -20027.711   -831.25045    184.91983    78.736248    22.593033     25.69934 
   23000    237.16093   -257.80912    216009.12    -18614.71    1379.2237   -19993.934   -539.66005    185.16262    78.736207    22.595549    25.703014 
   23200    250.57642    -273.0321    216009.12   -18545.679    1457.2423   -20002.921   -615.37306    187.27453    78.734573    22.600583    25.703527 
   23400    243.96741   -254.91236    216009.12    -18572.54    1418.8072   -19991.347   -521.15508    188.72984    78.733674    22.600092     25.68456 
   23600    241.56656   -291.81435    216009.12   -18492.779    1404.8449   -19897.624   -694.91109    189.60855    78.737005    22.600762    25.679768 
   23800    239.59395   -325.73939    216009.12   -18515.999    1393.3731   -19909.373   -792.26844    190.66822    78.738242     22.60672    25.668561 
   24000    236.44668   -314.78517    216009.12    -18539.73      1375.07     -19914.8    -798.6402    192.20491     78.73764    22.606903    25.650617 
   24200    235.94383   -390.73835    216009.12   -18572.618    1372.1456   -19944.763   -1131.6433    192.69904    78.739311    22.606158    25.660917 
   24400    244.00259   -150.34705    216009.12   -18599.903    1419.0118   -20018.915   -29.546646    194.70748     78.74088    22.606271    25.665902 
   24600     232.7308    -275.0294    216009.12   -18616.385      1353.46   -19969.845   -587.72281    196.39068    78.741879    22.605398    25.672366 
   24800    235.74979   -241.89923    216009.12   -18622.617    1371.0172   -19993.634   -462.04023    197.10273    78.744505    22.603397    25.654329 
   25000    237.91106   -274.67673    216009.12   -18631.055    1383.5861   -20014.641   -679.12265    197.01059    78.745479    22.602573    25.640272 
   25200    233.39335   -481.64288    216009.12   -18722.898    1357.3131   -20080.211   -1460.7496    198.84525    78.746302    22.603949    25.669345 
   25400    238.97741   -242.22138    216009.12    -18624.46    1389.7876   -20014.248   -459.70288    197.72893    78.750024    22.607274    25.677313 
   25600    242.68152   -295.94602    216009.12    -18493.84     1411.329   -19905.169   -656.15166    199.90664    78.752117    22.607267    25.679072 
   25800    241.39815   -320.60741    216009.12   -18539.011    1403.8655   -19942.876   -810.79646    200.54137    78.752213     22.60702    25.682661 
   26000    240.40774   -392.68409    216009.12   -18545.792    1398.1057   -19943.897   -1085.0434    202.34479    78.751558    22.603959    25.681165 
   26200    238.36801   -365.69694    216009.12    -18551.66    1386.2436   -19937.903   -987.30455     204.1393    78.750105    22.603242     25.65181 
   26400    237.47434   -376.39387    216009.12   -18568.235    1381.0464   -19949.281   -1010.5417    206.24998    78.750921    22.603839     25.63314 
   26600    241.12418   -223.31239    216009.12   -18498.413    1402.2723   -19900.685   -366.95163    207.79694    78.750742    22.602815    25.598617 
   26800    244.00623   -366.70561    216009.12    -18573.46     1419.033   -19992.493   -945.81224    209.28799    78.753157    22.603862     25.60114 
   27000    242.02955    -168.5443    216009.12   -18505.418    1407.5375   -19912.956   -176.82535    210.47988    78.754028    22.601975    25.607599 
   27200    235.17056    -271.8757    216009.12   -18548.626    1367.6486   -19916.275   -639.91989    211.94403    78.755712    22.602509     25.61122 
   27400    242.14395     -188.021    216009.12   -18505.884    1408.2027   -19914.087   -252.47427    214.37395    78.754606    22.601302    25.655818 
   27600    231.58635   -457.12665    216009.12   -18633.579    1346.8044   -19980.383   -1383.8508    215.87606     78.75399    22.601962    25.656432 
   27800    239.49426   -376.21595    216009.12   -18532.154    1392.7933   -19924.947   -1040.2621    216.08443    78.753879    22.603095    25.685289 
   28000    240.42265   -336.35694    216009.12   -18582.547    1398.1925    -19980.74   -867.97718    217.97095    78.753989    22.604438    25.710289 
   28200    239.08115   -286.27281    216009.12   -18574.077    1390.3909   -19964.467   -676.04976    218.48626    78.754358    22.602835    25.701052 
   28400      238.173   -354.98619    216009.12   -18580.609    1385.1095   -19965.718    -941.4154    220.75112    78.753542    22.603687    25.724407 
   28600    237.45966   -265.17591    216009.12   -18582.395     1380.961   -19963.356   -515.07996     221.0361    78.752217    22.603213    25.749357 
   28800    239.73088   -341.99365    216009.12   -18592.387    1394.1694   -19986.556   -884.72353     223.0918    78.749472    22.601539    25.738793 
   29000    238.02073   -159.10754    216009.12   -18553.272    1384.2239   -19937.496   -89.416998    223.09992    78.748487    22.603685    25.740888 
   29200     249.0925   -212.60234    216009.12   -18547.193    1448.6125   -19995.806   -296.79186    223.84045    78.747815    22.604973    25.754576 
   29400    243.72008   -309.20377    216009.12   -18581.344    1417.3688   -19998.712   -699.96077     226.2233    78.747951     22.60431    25.772201 
   29600    238.50907   -547.60125    216009.12   -18595.493    1387.0639   -19982.557    -1794.319    228.30428    78.745785    22.602929    25.766859 
   29800    237.87497   -278.60532    216009.12   -18671.896    1383.3763   -20055.272   -596.62592     228.5168    78.746903    22.601884    25.785836 
   30000    229.20632   -315.98143    216009.12   -18694.697    1332.9632    -20027.66   -802.27335    230.65532    78.745408    22.603675    25.781224 
   30200    240.17712   -345.11841    216009.12   -18638.983    1396.7645   -20035.748   -904.32836     231.9552    78.744626    22.601805    25.763063 
   30400     238.4162   -295.07581    216009.12    -18622.92    1386.5238   -20009.444   -683.48421    231.57506    78.745691     22.60114    25.765668 
   30600    238.25093    -235.8846    216009.12   -18657.738    1385.5627     -20043.3   -416.89354    232.28675    78.746421    22.602589    25.756252 
   30800    239.41279   -165.89048    216009.12   -18579.471    1392.3195    -19971.79   -135.34318    231.81029    78.746242    22.603771    25.745623 
   31000    239.07637   -183.88897    216009.12   -18583.713    1390.3631   -19974.076   -194.51742    233.44573    78.745754    22.603505    25.729887 
   31200    243.79526   -388.42666    216009.12   -18569.738    1417.8061   -19987.545   -1066.3638    234.26049    78.744369    22.602995      25.7437 
   31400    241.59032   -250.17404    216009.12   -18580.497    1404.9831    -19985.48   -509.78635    234.53034    78.746517    22.599969    25.748874 
   31600     233.0728   -342.42754    216009.12   -18619.322    1355.4489    -19974.77   -931.94804    235.39371    78.749263    22.598605    25.751228 
   31800     245.9716   -323.92392    216009.12   -18516.981    1430.4627   -19947.443   -776.55375    236.27132    78.747104    22.601244    25.770929 
   32000    232.26279   -430.21462    216009.12   -18670.238    1350.7383   -20020.976   -1249.0681    237.55586    78.746213    22.602328    25.755414 
   32200    238.96989   -370.93834    216009.12   -18652.818    1389.7438   -20042.562   -969.16578    238.66109    78.746304    22.605964    25.764626 
   32400    229.96513   -209.09496    216009.12    -18638.23    1337.3761   -19975.606   -319.32558    238.08719    78.746972    22.606962    25.762844 
   32600    244.15165   -321.63203    216009.12   -18563.915    1419.8787   -19983.794   -760.56072    238.02898     78.74734     22.60673    25.769691 
   32800    239.85303   -239.69898    216009.12   -18565.767    1394.8798   -19960.647    -452.9837    237.47717    78.749041    22.607143    25.762882 
   33000    238.62916   -299.18989    216009.12   -18564.721    1387.7623   -19952.484   -747.38804     239.2328    78.748837    22.606436    25.748284 
   33200     244.1159   -365.37556    216009.12   -18602.238    1419.6707   -20021.909   -952.04318    239.98588    78.749384    22.604786    25.758884 
   33400    235.80001   -360.89963    216009.12   -18631.269    1371.3092   -20002.578   -924.78456    240.62423    78.751037     22.60272    25.743069 
   33600    241.33488   -134.23739    216009.12   -18617.679    1403.4976   -20021.177   -10.191429    242.67451    78.750216     22.60124    25.737611 
   33800    241.49336   -410.26226    216009.12   -18489.437    1404.4192   -19893.856   -1113.7634     243.7521    78.747849    22.597929    25.760482 
   34000    236.30174   -369.55647    216009.12   -18590.366     1374.227   -19964.593   -985.18741     244.2299     78.74588    22.598348    25.768325 
   34200    238.72237   -447.40966    216009.12   -18562.612    1388.3044   -19950.916   -1313.4267    246.94214    78.743183    22.594344    25.768065 
   34400     240.2451   -274.39942    216009.12   -18606.943    1397.1599   -20004.103   -523.50546    246.77748    78.740648    22.594833     25.75001 
   34600    239.81785    -301.4954    216009.12   -18500.034    1394.6752   -19894.709   -671.44769    248.16739    78.738913    22.595063    25.733981 
   34800    242.11954   -213.56451    216009.12   -18594.205    1408.0608   -20002.266   -328.58378     249.1042    78.741517    22.595952    25.742168 
   35000    241.37279   -332.35699    216009.12   -18604.926    1403.7181   -20008.644   -800.92729    250.40324    78.740682    22.596652    25.740133 
   35200    250.29109   -247.21362    216009.12   -18534.798     1455.583   -19990.381   -496.29731    250.81426    78.740746     22.59534    25.729108 
   35400    243.51851   -352.79724    216009.12   -18571.762    1416.1966   -19987.959   -929.01921    252.49036    78.741433    22.595565    25.738465 
   35600    245.02448   -432.63014    216009.12   -18559.947    1424.9547   -19984.902   -1252.2815    252.07933    78.740186    22.597679    25.761482 
   35800    246.14255   -64.349693    216009.12   -18517.184    1431.4569    -19948.64    304.90167    253.36059    78.740221    22.598104    25.770353 
   36000     234.1875   -181.09732    216009.12   -18612.931    1361.9315   -19974.863   -203.34871    254.36398    78.739175    22.597468    25.762308 
   36200     241.6053   -313.20089    216009.12   -18576.937    1405.0702   -19982.007   -688.55717    255.19939    78.741185    22.597125    25.730185 
   36400    242.12471   -300.86091    216009.12   -18554.355    1408.0909   -19962.446    -665.7378    256.21081    78.737585    22.599004    25.727862 
   36600     237.4154   -325.04511    216009.12   -18547.309    1380.7036   -19928.012   -778.87663    256.69072    78.736643    22.597769    25.727632 
   36800    238.05448   -142.61783    216009.12   -18626.617    1384.4202   -20011.037    2.7301774    256.52138    78.735308    22.597473    25.737425 
   37000    241.10703   -521.71112    216009.12   -18567.843    1402.1725   -19970.015   -1641.9223    259.36612    78.733368    22.595327    25.696627 
   37200    238.54975   -371.41778    216009.12   -18603.136    1387.3005   -19990.437   -1010.2816    259.29231    78.733286    22.596527     25.72768 
   37400    244.59882   -354.21884    216009.12    -18588.46    1422.4792   -20010.939   -913.50796    263.40008    78.732789    22.596105    25.736543 
   37600     234.4776   -379.69756    216009.12   -18628.386    1363.6186   -19992.005   -1026.6296    263.97762    78.733513    22.595548    25.748108 
   37800    227.74052    -275.6129    216009.12   -18693.752    1324.4388   -20018.191   -524.70198    263.89645    78.734786    22.596994    25.757553 
   38000     246.4159   -300.16303    216009.12   -18621.692    1433.0466   -20054.739   -640.21231     264.3293    78.733702    22.599782     25.73399 
   38200    245.67092   -321.19688    216009.12   -18599.981    1428.7141   -20028.695   -749.22579    265.17908    78.732163    22.600534    25.734867 
   38400    241.50543   -395.81536    216009.12   -18549.551    1404.4894    -19954.04   -1111.7017    264.55721    78.734377    22.600847    25.707829 
   38600    239.91152   -361.68058    216009.12   -18577.618      1395.22   -19972.838   -967.74782    267.07964    78.733945    22.600666    25.690901 
   38800    235.65245    -381.0505    216009.12   -18577.645     1370.451   -19948.096   -1016.9189    269.17579    78.732687    22.600443    25.690897 
   39000    241.42098   -379.24121    216009.12   -18550.442    1403.9983    -19954.44    -1042.311    270.27357    78.733023    22.596864    25.712277 
   39200    237.15622   -231.45412    216009.12   -18655.016    1379.1963   -20034.212   -421.41359    270.68725    78.733091    22.597565    25.704445 
   39400    235.21399   -372.08821    216009.12   -18615.109    1367.9012    -19983.01   -997.38578    271.35146    78.732513    22.599031    25.672528 
   39600    239.49758   -417.27232    216009.12   -18587.078    1392.8126   -19979.891   -1179.8424    272.33038    78.733227    22.597559    25.650602 
   39800    239.21856   -401.22964    216009.12    -18662.53      1391.19    -20053.72   -1121.7372    273.92344    78.733035    22.598582     25.64871 
   40000    233.56779     -258.143    216009.12   -18645.147    1358.3276   -20003.475   -487.44962    275.73197    78.730876    22.599829    25.648974 
   40200    240.22087   -164.95233    216009.12    -18631.53     1397.019   -20028.549   -130.62099    275.68134    78.730527    22.598949    25.639185 
   40400    232.33558    -447.5132    216009.12   -18648.633    1351.1616   -19999.794   -1311.0365    278.29982    78.730238     22.59456    25.656088 
   40600    246.27612   -470.45558    216009.12   -18576.288    1432.2337   -20008.521    -1405.144    280.90611    78.730561    22.595333    25.637715 
   40800    235.47265   -266.21789    216009.12   -18640.448    1369.4054   -20009.854   -555.22501    279.36589    78.730141    22.594799    25.657926 
   41000    242.25583   -131.48497    216009.12   -18566.933    1408.8534   -19975.787    51.703598    280.92021    78.730328    22.592829    25.654077 
   41200    247.88275   -279.81834    216009.12   -18508.388    1441.5771   -19949.965   -578.65655    282.89772    78.732958    22.592529    25.686748 
   41400    243.41234   -310.04412    216009.12   -18559.453    1415.5792   -19975.033   -751.25939    284.62454    78.732187    22.590899    25.695445 
   41600    240.55236   -375.27669    216009.12   -18517.802    1398.9468   -19916.749   -1013.1501    284.59132    78.733746    22.592795    25.690989 
   41800    239.95991     -319.106    216009.12    -18520.36    1395.5014   -19915.861   -794.70545    284.90317    78.733067    22.593406    25.695432 
   42000    239.56488   -430.22304    216009.12   -18576.892     1393.204   -19970.096   -1254.1124    288.41398    78.731832    22.593001    25.697106 
   42200    237.16709   -325.72851    216009.12    -18633.61    1379.2595   -20012.869   -793.27652     287.7442    78.731777    22.592315    25.691797 
   42400    238.78493   -285.76354    216009.12    -18595.96    1388.6682   -19984.628   -634.67646    288.59146    78.731703    22.593017    25.675504 
   42600    228.68195   -439.99861    216009.12   -18622.326    1329.9137    -19952.24   -1294.5001    290.32009     78.73154    22.595875    25.668725 
   42800    245.17702   -251.90332    216009.12    -18608.85    1425.8418   -20034.692   -520.13562    291.48949    78.731027    22.594089    25.656401 
   43000     236.4935   -335.82965    216009.12   -18604.814    1375.3422   -19980.156    -883.5389    292.74843    78.730092    22.593833    25.646775 
   43200     242.2331   -401.47595    216009.12   -18587.736    1408.7212   -19996.458   -1154.9134    293.32375    78.731962    22.596353    25.649323 
   43400     241.8629   -393.99703    216009.12   -18605.518    1406.5683   -20012.086   -1106.2882     295.1723    78.733343    22.597349     25.63841 
   43600    233.64593   -383.43941    216009.12   -18596.352     1358.782   -19955.134   -1014.7491    295.56799    78.734557     22.59516    25.640855 
   43800    239.64831   -322.68622    216009.12   -18651.814    1393.6892   -20045.503   -795.71303    297.43247    78.732508    22.594058    25.644698 
   44000     240.5595   -398.93662    216009.12   -18666.589    1398.9883   -20065.577   -1117.0829     299.9256     78.73276    22.591729    25.646399 
   44200    240.72445   -313.02568    216009.12    -18620.91    1399.9476   -20020.858    -776.5023    301.25693    78.730782    22.590795    25.649077 
   44400    241.02514    -250.3919    216009.12   -18654.431    1401.6962   -20056.127   -480.19031    302.58112    78.729571    22.590186    25.630495 
   44600    238.98636   -371.89522    216009.12   -18650.505    1389.8396   -20040.344   -1035.0447     304.9403    78.729827    22.589706    25.621184 
   44800    240.22431    -340.2435    216009.12   -18635.839     1397.039   -20032.878   -891.26977    306.92917    78.730516    22.595983     25.59413 
   45000    237.83317   -414.67666    216009.12   -18627.811    1383.1332   -20010.944   -1197.1715    310.64815    78.730828    22.595498    25.598691 
   45200    239.34802   -181.46962    216009.12   -18596.218    1391.9429   -19988.161   -217.78211    312.12103    78.731079    22.595819    25.623609 
   45400    238.90728   -354.75882    216009.12   -18668.559    1389.3797   -20057.938   -898.31364    316.75659     78.73247    22.594327    25.610602 
   45600    246.38809   -211.64489    216009.12   -18566.593    1432.8848   -19999.478   -342.00799    317.96802    78.732949    22.596129    25.611397 
   45800    241.44372   -431.45038    216009.12   -18599.992    1404.1305   -20004.122   -1302.0552    319.47486    78.731486    22.597423    25.604123 
   46000    246.22325   -187.22377    216009.12   -18584.918    1431.9262   -20016.845    -253.0182     320.7624    78.732831    22.597463     25.59751 
   46200     241.3209   -345.21326    216009.12   -18583.917    1403.4163   -19987.333   -935.46261    320.91507    78.733687    22.597059    25.601248 
   46400    236.99873   -337.00159    216009.12   -18631.098    1378.2805   -20009.378   -879.26845    321.90733    78.733536    22.598346    25.571475 
   46600    241.01821   -202.44905    216009.12   -18619.618    1401.6559   -20021.274   -311.30358    323.33713    78.732244    22.599682    25.555727 
   46800    240.37857   -334.22949    216009.12   -18590.748    1397.9361   -19988.684   -820.40749    324.07169    78.733065    22.599158     25.53722 
   47000    242.85962   -219.03662    216009.12    -18538.56    1412.3648   -19950.924   -343.81611    324.18015    78.734546    22.601429    25.562364 
   47200     234.1651   -330.17433    216009.12   -18649.638    1361.8013   -20011.439   -844.55002    327.40309    78.734149     22.60411    25.566465 
   47400     243.7949    -205.8887    216009.12   -18598.105    1417.8039   -20015.909   -322.14698    328.86832    78.734439    22.604565     25.55155 
   47600    238.86008   -456.28431    216009.12   -18636.561    1389.1052   -20025.667   -1355.1091    330.36443    78.733148    22.605784     25.55529 
   47800     240.8247   -203.34544    216009.12   -18591.311    1400.5306   -19991.842   -262.10108    331.39173     78.73243     22.60449    25.546213 
   48000    241.52322   -417.61886    216009.12   -18587.907    1404.5929     -19992.5    -1192.936    335.36957    78.731877    22.602619    25.555769 
   48200    235.49462   -173.36616    216009.12   -18600.787    1369.5332    -19970.32   -180.51844    336.75591    78.731609    22.602256    25.575726 
   48400    231.48535   -476.37438    216009.12   -18581.844    1346.2171   -19928.061   -1463.3541    339.54704    78.731164    22.601576    25.573018 
   48600    237.92356   -179.85195    216009.12   -18672.322    1383.6589   -20055.981    -199.0988    336.06373    78.732876    22.599482    25.582098 
   48800    236.57391   -289.49576    216009.12   -18662.089    1375.8099   -20037.899    -640.6983    338.12426    78.735586    22.597931    25.587928 
   49000    232.88114   -583.88046    216009.12   -18615.072    1354.3343   -19969.406   -1894.1936    338.89732    78.733837     22.59797    25.593494 
   49200    249.92348    -323.7377    216009.12   -18586.851    1453.4451   -20040.296   -846.65673    339.51147    78.734472    22.597068    25.600329 
   49400    242.76271   -337.67138    216009.12   -18653.955    1411.8012   -20065.756   -868.97321    341.92085    78.732865    22.596445    25.587649 
   49600    240.99453   -358.23086    216009.12   -18650.786    1401.5182   -20052.304   -965.23525    341.12913     78.73316    22.598059    25.594999 
   49800    239.91257   -110.02355    216009.12   -18640.431     1395.226   -20035.657    137.02338    341.52687     78.73285     22.59962    25.565603 
   50000     237.8323   -337.07678    216009.12   -18634.215    1383.1281   -20017.343   -894.72654    341.62361    78.733553     22.60133    25.561327 
   50200    244.16649   -372.16596    216009.12   -18583.064     1419.965   -20003.028   -949.52792    344.17525    78.733232     22.59917    25.534693 
   50400    238.84818    -379.1492    216009.12   -18595.712     1389.036   -19984.748   -1062.7729    346.10617    78.732644    22.598586    25.531314 
   50600    248.27622   -350.44841    216009.12    -18493.56    1443.8654   -19937.426   -859.96525    349.78931    78.733908    22.601078    25.531397 
   50800    231.57229   -364.19334    216009.12   -18643.711    1346.7227   -19990.434   -1008.4472     352.8134    78.735271    22.599966    25.544966 
   51000    236.64295     -239.996    216009.12   -18627.499    1376.2114    -20003.71   -423.03136    350.82265    78.738294    22.597656    25.538857 
   51200    237.66459    -252.9763    216009.12   -18664.896    1382.1528   -20047.049   -503.92527     350.2874    78.739639    22.599227    25.495583 
   51400    236.84441   -572.54225    216009.12   -18604.898     1377.383   -19982.281   -1808.8988    351.66633    78.736933    22.599536    25.499143 
   51600    234.78081   -311.08704    216009.12   -18642.037     1365.382   -20007.419   -722.64345    351.86558    78.738114     22.60021    25.514936 
   51800    243.53188   -361.73347    216009.12   -18581.823    1416.2744   -19998.097   -982.38071    353.28676    78.739751    22.603027    25.503039 
   52000    242.06087   -324.92773    216009.12   -18657.067    1407.7196   -20064.787   -788.49261    352.81006    78.740263    22.601682    25.500224 
   52200    233.55046   -201.72386    216009.12    -18665.69    1358.2268   -20023.917   -249.92975    354.71751     78.73802     22.60121    25.509476 
   52400    232.38436   -461.00514    216009.12   -18688.769    1351.4453   -20040.214    -1332.099    358.85552    78.737355    22.602871    25.513533 
   52600    241.39434   -287.81033    216009.12   -18606.295    1403.8434   -20010.138   -641.71734    360.38492    78.737457    22.602654     25.52271 
   52800     241.2631   -340.93705    216009.12   -18535.006    1403.0801   -19938.086   -864.82546    362.31487     78.73686     22.60238     25.52936 
   53000    246.93301   -256.90541    216009.12   -18559.695    1436.0539   -19995.749   -501.53403    361.73139    78.738689    22.603498    25.502253 
   53200    241.54764   -217.66348    216009.12   -18671.231    1404.7349   -20075.966   -380.08498    363.06724     78.73999    22.602946    25.496628 
   53400    239.65688   -444.43472    216009.12   -18651.733    1393.7391   -20045.472   -1350.3057    364.60084    78.739699    22.602893    25.495949 
   53600    235.00363   -386.97587    216009.12   -18713.928    1366.6778   -20080.606   -1072.6992    363.86232    78.740283    22.602448    25.493218 
   53800     240.6766   -337.62549    216009.12   -18658.222    1399.6693   -20057.892   -878.85882    363.81816    78.740735    22.602051    25.500532 
   54000    244.56665   -379.88275    216009.12   -18614.565    1422.2921   -20036.857   -1049.1531    365.98201    78.740719     22.60172     25.48359 
   54200    239.40748    -265.0895    216009.12   -18596.428    1392.2887   -19988.716   -623.41249     367.1933    78.742387    22.602883    25.490601 
   54400    243.39823   -230.64148    216009.12    -18549.17    1415.4971   -19964.667   -373.74326    365.28667    78.743127    22.602853    25.486574 
   54600    239.82483   -332.04862    216009.12   -18583.645    1394.7158   -19978.361   -822.02627    365.75247    78.743497    22.603065    25.487638 
   54800    246.05862   -288.62409    216009.12   -18567.091    1430.9688   -19998.059   -643.33302    364.36277    78.743745    22.602631    25.489472 
   55000    250.46916   -334.18458    216009.12   -18536.972    1456.6185    -19993.59   -865.01604    367.09516    78.745745     22.60328    25.472723 
   55200    232.59415   -166.12064    216009.12   -18671.622    1352.6653   -20024.288   -137.13342    368.04559     78.74701    22.601679    25.463391 
   55400    241.10082   -171.63083    216009.12   -18621.376    1402.1364   -20023.512   -139.03947    369.90345    78.745979    22.604287     25.48587 
   55600    239.87308   -326.36556    216009.12   -18628.636    1394.9964   -20023.632   -807.98693     371.6021    78.743943    22.603343     25.48939 
   55800    248.50857   -136.31815    216009.12   -18524.222    1445.2166   -19969.439   -6.0663896    373.64053      78.7435    22.604344    25.481763 
   56000    245.15479   -394.14185    216009.12   -18557.716    1425.7125   -19983.428   -1149.9509    377.90459    78.743237    22.605581    25.489373 
   56200    244.56077   -276.24552    216009.12   -18550.962    1422.2579    -19973.22   -622.23345    378.21896    78.740402    22.605922    25.484416 
   56400    236.41785   -286.03758    216009.12   -18640.769    1374.9023   -20015.672   -665.33545    378.57109    78.737775    22.606544    25.467057 
   56600    233.76043   -351.92852    216009.12   -18707.427    1359.4479   -20066.874   -896.79012    381.49087    78.735423    22.606092    25.483786 
   56800    244.20664   -226.93604    216009.12   -18654.281    1420.1985    -20074.48   -383.79262    382.44961     78.73313    22.602087    25.488807 
   57000    238.70101   -134.63667    216009.12   -18722.078    1388.1802   -20110.258    -4.942562     382.9362     78.73644    22.598692    25.514194 
   57200    243.70465    -310.3931    216009.12   -18622.228    1417.2791   -20039.507   -757.09493    387.21937    78.736264    22.595784      25.5124 
   57400    241.15789   -319.44556    216009.12    -18698.07    1402.4683   -20100.538   -818.49201    389.07364    78.736589    22.593922    25.498301 
   57600    232.59086   -292.50616    216009.12   -18732.183    1352.6462   -20084.829   -654.84384    388.36179    78.738397    22.595177    25.465774 
   57800    241.50103   -372.71707    216009.12   -18635.694    1404.4638   -20040.158   -986.18133      388.917    78.741003    22.592073    25.462318 
   58000    236.47713   -315.41026    216009.12   -18639.007     1375.247   -20014.254   -764.48367    388.34551      78.7428    22.589927    25.480566 
   58200    245.58825   -277.02631    216009.12    -18590.03    1428.2333   -20018.263   -586.26984    390.12622    78.740599    22.587409      25.4797 
   58400    240.19733   -509.51827    216009.12   -18629.794    1396.8821   -20026.676   -1589.7232    390.45214    78.739211    22.584614    25.436876 
   58600    235.87876   -200.66424    216009.12   -18659.693    1371.7672    -20031.46   -281.73575    390.24154    78.738857    22.582843    25.426647 
   58800    236.57013   -379.26052    216009.12   -18638.191    1375.7879   -20013.978   -1075.2084     390.6628    78.739064    22.582451    25.456168 
   59000    244.68239   -241.10498    216009.12   -18581.263    1422.9652   -20004.229   -442.13385    391.57337    78.736627    22.583779    25.485612 
   59200    244.30319   -345.10892    216009.12   -18637.418      1420.76   -20058.178   -922.40798    390.38994    78.735798    22.583944    25.506836 
   59400    236.76694   -335.19097    216009.12   -18651.832    1376.9325   -20028.764   -853.24936    391.50824    78.732695    22.585105    25.501721 
   59600    238.83086   -305.32175    216009.12   -18688.536    1388.9353   -20077.472   -719.62107    392.69909    78.729804    22.587558    25.541275 
   59800    238.81172   -325.04691    216009.12   -18613.746     1388.824    -20002.57    -792.4025    395.74773    78.727139    22.590641    25.546186 
   60000    239.42352   -427.47073    216009.12   -18592.476     1392.382   -19984.858    -1254.826    397.60913    78.724732    22.593405    25.539314 
   60200    232.95584   -187.16399    216009.12   -18613.357    1354.7688   -19968.125   -229.23081    398.44495    78.728659    22.592031    25.525679 
   60400    242.45496   -305.41116    216009.12   -18580.685    1410.0115   -19990.697   -707.04642    397.91519    78.730607    22.587692     25.54272 
   60600    249.03741   -150.82348    216009.12   -18552.882    1448.2921   -20001.174   -76.322251    397.87749    78.731948    22.586729    25.532982 
   60800    244.78745   -314.00564    216009.12   -18479.921    1423.5762   -19903.497   -737.09774    396.82902    78.732215    22.583954    25.515033 
   61000    237.75665   -200.16399    216009.12    -18572.92    1382.6881   -19955.608   -264.05951    397.97097    78.733332    22.586371    25.497069 
   61200    249.49739   -335.82452    216009.12   -18534.134    1450.9671   -19985.101   -836.03863    400.79429    78.734729    22.583706    25.497008 
   61400    242.72411    -272.6971    216009.12   -18568.106    1411.5767   -19979.683   -586.70665    401.89922    78.732751    22.585235    25.519149 
   61600    241.20533   -251.80819    216009.12   -18603.104    1402.7442   -20005.848   -471.17134    401.14151    78.729177    22.588746    25.529298 
   61800     242.8972   -353.79075    216009.12    -18670.63    1412.5833   -20083.213   -907.08002    403.44318    78.730386    22.589357    25.549118 
   62000    238.19132   -376.07667    216009.12   -18591.598     1385.216   -19976.814   -1018.8346    406.05189    78.730636    22.588161    25.559374 
   62200    238.42218   -170.11119    216009.12   -18593.069    1386.5586   -19979.627   -251.55294    407.15626     78.72997     22.58791    25.538192 
   62400    239.86063   -268.26095    216009.12   -18599.507     1394.924   -19994.431   -579.40866    409.16429    78.730533    22.586256    25.538269 
   62600    240.69396   -277.59277    216009.12   -18644.243    1399.7703   -20044.013   -591.98597    409.50807    78.732244    22.586649    25.537202 
   62800    235.47776   -298.07974    216009.12   -18737.893    1369.4351   -20107.328   -647.80286    410.57079    78.733167    22.590467    25.543675 
   63000    240.26104   -311.11659    216009.12   -18655.055    1397.2526   -20052.308   -763.90548    409.59668    78.732158    22.592858    25.547906 
   63200    238.82309   -300.72445    216009.12   -18667.949    1388.8901   -20056.839   -715.38166    411.98352    78.734914    22.593371    25.533704 
   63400    233.18926   -319.66524    216009.12   -18748.934    1356.1262    -20105.06   -794.02892    414.81905    78.734779    22.592571     25.51165 
   63600    236.47387   -211.90544    216009.12   -18720.816    1375.2281   -20096.044   -319.08253    414.19467    78.736865    22.588479    25.493502 
   63800     235.4567   -342.29421    216009.12   -18731.854    1369.3126   -20101.166   -838.12774    414.86091    78.738409    22.587622    25.500775 
   64000    237.43026   -207.82659    216009.12   -18649.763      1380.79   -20030.553   -322.71367    417.04952    78.742045    22.587517    25.480063 
   64200    237.39794   -65.935192    216009.12   -18642.109    1380.6021   -20022.711    340.23636    419.17995    78.741111    22.585191    25.481076 
   64400    236.86445   -380.64946    216009.12   -18638.263    1377.4995   -20015.763    -1014.158    421.05425    78.739076    22.583263    25.476673 
   64600    233.21014   -202.48121    216009.12   -18656.343    1356.2476   -20012.591   -256.89243    421.97285    78.737616    22.580952    25.499921 
   64800    237.64123    -359.2103    216009.12   -18636.385    1382.0169   -20018.402   -938.74313    422.71158    78.740533    22.579075    25.504245 
   65000    242.35523   -308.30725    216009.12   -18556.684    1409.4315   -19966.115   -727.27423    423.19329    78.739934     22.57736    25.512093 
   65200    240.50429   -336.14906    216009.12   -18610.793    1398.6672    -20009.46   -850.14132    425.00395    78.738268      22.5754    25.532204 
   65400    242.49561   -318.63707    216009.12   -18602.435    1410.2479   -20012.683    -776.9201    424.69925    78.738478    22.574646    25.524561 
   65600    240.64132   -402.70665    216009.12   -18529.898    1399.4641   -19929.362    -1172.559    425.46099    78.738592    22.573864    25.526049 
   65800    243.49511   -360.29824    216009.12   -18545.222    1416.0605   -19961.283   -923.20162    426.54106    78.736579    22.570772     25.51107 
   66000    236.36353   -296.76574    216009.12   -18593.421    1374.5864   -19968.007   -665.45031    423.93659    78.735635    22.567808    25.510392 
   66200    243.88591   -337.64594    216009.12   -18662.625    1418.3332   -20080.959   -866.41343    424.02866    78.736699    22.566543    25.508766 
   66400    235.24004   -417.81464    216009.12   -18634.592    1368.0527   -20002.644   -1209.9396    425.53067    78.737908    22.567237    25.506798 
   66600    239.51576   -319.65737    216009.12   -18609.198    1392.9184   -20002.117   -773.15518    425.11995    78.739151    22.567402    25.526207 
   66800    241.48814   -250.90307    216009.12   -18611.053    1404.3888   -20015.442   -467.54757    426.38727    78.743601    22.566966    25.542296 
   67000    230.98831   -504.40675    216009.12   -18664.897    1343.3264   -20008.223   -1544.4013    429.14957    78.743037    22.568127    25.541761 
   67200    239.18173   -275.90237    216009.12   -18584.338    1390.9758   -19975.313   -660.99081    429.26008    78.743946    22.566366    25.525231 
   67400    246.13235   -208.95917    216009.12   -18539.041    1431.3975   -19970.438   -311.43687    429.39706    78.743936    22.565756    25.504155 
   67600    247.45251   -388.60859    216009.12   -18516.688     1439.075   -19955.763    -1057.829    430.52929    78.747006    22.565762    25.491705 
   67800    234.67892    -282.8546    216009.12   -18555.027    1364.7894   -19919.817   -634.61784    433.55849    78.748478    22.564839    25.479331 
   68000    243.00105   -307.24444    216009.12   -18636.518    1413.1873   -20049.705   -722.03076    435.36007    78.750688    22.565323    25.479826 
   68200    238.01345   -295.31732    216009.12   -18641.428    1384.1816    -20025.61   -750.60953    435.28611    78.751203    22.565165    25.474356 
   68400    242.18929   -307.87299    216009.12   -18590.992    1408.4664   -19999.458   -773.90201    437.52108     78.75076    22.565007    25.462693 
   68600    242.03719   -310.92788    216009.12   -18639.599    1407.5819   -20047.181   -743.77169    438.03623    78.751153    22.565529    25.464836 
   68800    230.98035   -293.61198    216009.12   -18597.558    1343.2802   -19940.838   -693.66532    437.56016    78.754171    22.565292    25.458418 
   69000    239.57766    -285.0196    216009.12   -18606.635    1393.2784   -19999.914   -672.70166    439.27122     78.75545    22.566515    25.472019 
   69200    235.24114   -281.86624    216009.12   -18667.905    1368.0591   -20035.964   -635.95836    441.34692    78.756323    22.566474    25.501702 
   69400    238.01176   -367.96609    216009.12   -18699.211    1384.1718   -20083.382   -948.21225    441.18947    78.755996    22.567382    25.526118 
   69600     253.3634    -88.99464    216009.12   -18513.284    1473.4502   -19986.734    200.89503    441.79118    78.756339    22.567615      25.5114 
   69800    240.12252   -283.13316    216009.12   -18635.924     1396.447   -20032.371    -635.9922    443.88841    78.756013     22.56579    25.501123 
   70000    238.99188   -413.37702    216009.12   -18612.052    1389.8717   -20001.924   -1178.2514    445.80294    78.753405    22.567056    25.519491 
   70200    241.48855   -320.60043    216009.12   -18612.511    1404.3912   -20016.902   -808.21559    445.24065    78.753688    22.565511    25.505574 
   70400    240.39137   -390.56038    216009.12   -18530.587    1398.0105   -19928.598    -1063.143    445.76554    78.752944    22.567199    25.499502 
   70600    238.02939   -307.91515    216009.12   -18581.289    1384.2743   -19965.563   -722.90492    446.14284    78.752956    22.567608    25.473966 
   70800    231.70759   -133.78931    216009.12   -18604.233    1347.5095   -19951.742   -29.737372    444.81624    78.751976    22.567219    25.463605 
   71000    239.54936   -330.06708    216009.12   -18612.867    1393.1138   -20005.981   -867.04682    449.68541    78.751396    22.567325    25.433709 
   71200    244.90341   -294.88181    216009.12   -18568.648    1424.2506   -19992.898   -664.79991    451.67604    78.752674    22.567619    25.430532 
   71400    238.93543   -372.19602    216009.12   -18613.784    1389.5434   -20003.327   -1017.2996     454.4102    78.752792    22.567566    25.444675 
   71600    241.85166   -214.35458    216009.12     -18574.5    1406.5029   -19981.003   -348.86108    454.20912    78.754028    22.569683    25.441223 
   71800    238.01072   -394.71142    216009.12   -18687.362    1384.1657   -20071.528   -1108.1702    456.63905     78.75466    22.568999     25.45438 
   72000     236.6582   -443.24774    216009.12    -18675.66       1376.3    -20051.96   -1313.5058    459.08172    78.753769    22.567822      25.4527 
   72200    244.78539   -415.69957    216009.12    -18545.19    1423.5642   -19968.754   -1190.5418    459.06415     78.75536    22.565901     25.44296 
   72400    238.57646   -211.58463    216009.12   -18608.244    1387.4558     -19995.7   -347.10255    457.49901    78.757393    22.567698    25.459211 
   72600    237.20219   -438.63268    216009.12   -18588.186    1379.4637    -19967.65   -1271.6798    458.28705    78.757121    22.569173    25.477702 
   72800    244.75088   -367.11172    216009.12   -18581.234    1423.3635   -20004.597   -998.34582    456.95162    78.758042    22.568535    25.462173 
   73000    239.51989   -380.63211    216009.12   -18602.507    1392.9424   -19995.449   -1103.5478     459.3649    78.760126    22.566409    25.461103 
   73200    241.85163   -297.13706    216009.12   -18512.109    1406.5028   -19918.612   -733.70577    458.99645    78.762559    22.565688     25.47085 
   73400     245.8103   -350.98679    216009.12   -18481.898    1429.5246   -19911.423   -940.57935     459.0123    78.761272    22.563013    25.475676 
   73600    241.65726   -277.07403    216009.12   -18471.773    1405.3724   -19877.145   -615.05388    462.38005    78.761466    22.561815    25.479275 
   73800    233.34858   -191.76362    216009.12   -18595.841    1357.0528   -19952.894   -260.09668    461.86037    78.758854    22.561649    25.499347 
   74000    235.81948   -307.51377    216009.12   -18603.972    1371.4224   -19975.395    -698.2509    464.39021     78.75706    22.562434    25.490477 
   74200    239.73871   -699.29333    216009.12   -18539.448    1394.2149   -19933.663   -2382.2797    466.19305    78.756624    22.560566    25.488059 
   74400    241.29359   -376.69032    216009.12   -18532.585    1403.2575   -19935.842   -1069.5504    465.16679     78.75605       22.563      25.5052 
   74600    238.16804   -250.79733    216009.12   -18585.169    1385.0806    -19970.25    -496.8115    465.94853    78.757909    22.563411    25.513378 
   74800    234.24909   -301.64055    216009.12   -18581.672    1362.2897   -19943.961   -672.56351    465.36618    78.757624    22.562991    25.513984 
   75000     236.9309   -215.01402    216009.12   -18584.674     1377.886    -19962.56   -354.21975    466.10707    78.757494    22.562419    25.542452 
   75200      243.282   -446.89261    216009.12   -18514.119    1414.8212    -19928.94   -1292.3069    466.15651    78.759602    22.562678    25.518288 
   75400     239.4175   -315.08327    216009.12   -18576.087    1392.3469   -19968.434   -809.50371    467.61961     78.75865    22.564906    25.514255 
   75600    238.32112   -310.80468    216009.12   -18556.518    1385.9709   -19942.489   -725.58214    469.01227    78.757846    22.565097    25.509317 
   75800    249.10166   -244.52799    216009.12   -18505.149    1448.6657   -19953.815   -468.78151    470.32056    78.756435    22.565302    25.518998 
   76000    246.83456   -340.74642    216009.12   -18490.912    1435.4813   -19926.393   -840.90528    471.18923    78.758876    22.566481    25.509917 
   76200     234.4373   -175.93241    216009.12   -18588.348    1363.3843   -19951.733   -177.11511    471.01798    78.758068    22.568157    25.511936 
   76400    237.77763   -261.63486    216009.12   -18567.578    1382.8102   -19950.389   -503.67609    472.23667    78.761033    22.567835    25.508161 
   76600     241.8179   -299.67736    216009.12   -18553.426    1406.3066   -19959.732   -710.95588    474.90729    78.760836     22.56928    25.511947 
   76800    236.16572   -363.28074    216009.12   -18588.127     1373.436   -19961.563   -994.40907    475.22699    78.760852    22.572518    25.507676 
   77000    238.99077   -149.66046    216009.12   -18571.219    1389.8653   -19961.084   -115.46423    474.26587    78.763665     22.57074    25.494248 
   77200    246.02928   -152.58389    216009.12   -18533.663    1430.7981   -19964.461    -98.77127    475.68576    78.765495    22.571259    25.503306 
   77400    234.03777   -208.36202    216009.12   -18545.632    1361.0608   -19906.693   -296.40504    476.03636    78.768704    22.571731    25.508892 
   77600     236.9942    -224.1102    216009.12   -18593.513    1378.2541   -19971.767   -411.95087    477.07195    78.769443    22.574371    25.496263 
   77800    240.95277   -220.00847    216009.12   -18558.715    1401.2754    -19959.99   -380.48101    478.76035    78.771973    22.576546    25.487551 
   78000    236.93525   -254.25977    216009.12   -18593.064    1377.9113   -19970.976   -508.30957    480.23006    78.771696    22.576472    25.490175 
   78200    246.81888   -278.47016    216009.12   -18567.279    1435.3901   -20002.669   -603.08825    483.50959    78.771136    22.579365    25.496022 
   78400    240.26046   -193.97717    216009.12   -18588.906    1397.2492   -19986.155   -270.44071    482.21642     78.77056     22.58046    25.512367 
   78600    238.06225   -43.840347    216009.12   -18562.025    1384.4654    -19946.49    376.83741     484.3026    78.769949    22.580521    25.513567 
   78800    238.80405   -293.93568    216009.12   -18550.844    1388.7794   -19939.624   -680.43493    484.83773    78.769334    22.580785    25.489199 
   79000    241.21384   -363.74766    216009.12   -18543.915    1402.7937   -19946.709   -968.66537    485.56322    78.770188    22.580199    25.471789 
   79200    243.06874   -511.60307    216009.12   -18541.748     1413.581   -19955.329   -1621.7824    487.88727    78.770668     22.58008    25.480947 
   79400    246.03904   -425.89285    216009.12    -18507.53    1430.8549   -19938.385   -1269.2684    488.08222    78.770483    22.579519    25.504652 
   79600    240.35274   -303.01256    216009.12   -18581.439    1397.7859   -19979.224   -714.48161    489.47719     78.76677    22.581553     25.52864 
   79800    242.31404   -473.85535    216009.12   -18582.208    1409.1919     -19991.4   -1464.8722    489.53214    78.765658    22.583237    25.528676 
   80000    234.00418   -192.99639    216009.12   -18629.467    1360.8655   -19990.332   -288.94396      489.884    78.765603    22.586209    25.508791 
   80200    241.73561   -407.96647    216009.12   -18612.333     1405.828   -20018.161   -1176.9053    490.04085    78.765853    22.588187    25.499832 
   80400    239.76211   -235.34963    216009.12   -18633.621     1394.351   -20027.972   -429.71439    489.92671    78.768129    22.587732    25.510001 
   80600    241.11592   -292.17086    216009.12   -18606.477    1402.2242   -20008.701   -677.54641    490.41142    78.771768    22.585585    25.519139 
   80800    238.49666   -422.05118    216009.12   -18580.305    1386.9917   -19967.297   -1215.5608    494.02435    78.769821    22.584762    25.542009 
   81000    242.63419   -264.48408    216009.12   -18563.359    1411.0538   -19974.413   -613.28628    493.37244    78.765734    22.583248    25.539976 
   81200    240.67294   -254.48446    216009.12   -18574.561     1399.648   -19974.209   -531.30664     495.1656     78.76512    22.580968    25.550485 
   81400     233.2772   -381.71027    216009.12   -18583.783    1356.6377    -19940.42    -1087.757     498.1101    78.767573    22.580436    25.540233 
   81600    241.91075   -230.86622    216009.12     -18637.3    1406.8466   -20044.147   -354.97537    497.75751    78.765704    22.579922    25.534838 
   81800    229.81218   -279.41738    216009.12    -18739.33    1336.4866   -20075.816   -636.45128    497.43964    78.767026    22.581162    25.541681 
   82000    239.21796   -320.67285    216009.12   -18617.185    1391.1865   -20008.371   -799.30014    499.99654    78.766593    22.581149    25.556141 
   82200     240.1338   -445.85534    216009.12   -18553.767    1396.5126   -19950.279   -1355.1479    500.84435    78.768248     22.58362    25.546543 
   82400    244.17854   -79.653047    216009.12   -18567.993    1420.0351   -19988.028    245.69569    500.50532    78.768647    22.583412    25.536579 
   82600    242.36473   -362.57322    216009.12   -18506.277    1409.4867   -19915.764   -916.39044    502.43526    78.766486    22.583456    25.533953 
   82800     235.0726   -436.35252    216009.12   -18572.574    1367.0789   -19939.653   -1296.2378    503.69821    78.764996    22.582905    25.551419 
   83000    243.83934   -30.225598    216009.12   -18525.694    1418.0624   -19943.756    429.33116     505.2576    78.765442    22.585193      25.5705 
   83200    244.17551   -289.34089    216009.12   -18549.785    1420.0175   -19969.803   -644.75781    508.86804     78.76628    22.583568    25.559559 
   83400    240.67885   -130.51888    216009.12    -18595.25    1399.6824   -19994.933     11.55468    506.21438    78.765756    22.581252    25.577134 
   83600    235.32911    -431.0569    216009.12   -18652.698    1368.5707   -20021.269   -1252.8088    509.85541    78.765933    22.580926    25.591983 
   83800    234.58375   -229.78958    216009.12    -18638.36    1364.2359   -20002.596   -413.03716    509.76411     78.76628    22.582202    25.591689 
   84000    240.28405   -347.77118    216009.12   -18595.327    1397.3864   -19992.713   -928.96123    508.98289    78.768624    22.581132    25.596628 
   84200    239.37047    -282.8408    216009.12   -18578.723    1392.0735   -19970.797    -629.6297     511.8289    78.767949    22.578573    25.604091 
   84400    236.26889   -267.42614    216009.12   -18600.331     1374.036   -19974.367   -568.91875    512.60546    78.766789    22.577162    25.626923 
   84600    246.44689   -363.52325    216009.12   -18565.224    1433.2268   -19998.451    -963.6933    513.42183    78.768311      22.5759     25.63873 
   84800    239.63222   -327.24999    216009.12   -18616.477    1393.5957   -20010.072   -799.23481    512.84099    78.769707    22.577188     25.64406 
   85000    245.77745    -378.7859    216009.12   -18578.898    1429.3336   -20008.231   -1056.5413    513.48018    78.769267    22.577504    25.644252 
   85200    238.64169   -317.28508    216009.12    -18581.34    1387.8352   -19969.175   -753.03458    515.01786    78.769393     22.57683    25.613123 
   85400    233.05766   -419.44567    216009.12   -18614.994    1355.3609   -19970.355   -1204.6165    514.68515    78.769249    22.578262    25.585467 
   85600    232.91571    -378.9832    216009.12   -18593.263    1354.5354   -19947.799   -1052.2745     514.2681    78.769951    22.579225    25.568288 
   85800     239.7507   -333.45267    216009.12   -18483.183    1394.2847   -19877.468   -833.40636    516.27445    78.770985    22.578364    25.550568 
   86000    242.22561   -234.97524    216009.12   -18539.813    1408.6776   -19948.491   -392.23582    519.00279     78.77294    22.579115    25.561769 
   86200     237.5999   -474.66217    216009.12   -18547.809    1381.7765   -19929.585   -1454.5489    520.85166    78.771811    22.578562    25.555226 
   86400    230.04225   -322.01976    216009.12   -18589.511    1337.8246   -19927.335   -847.52321    521.43186    78.771629    22.579009    25.535412 
   86600     243.3728   -286.70381    216009.12   -18486.424    1415.3492   -19901.773   -638.37875    524.18835    78.770242    22.580099    25.525254 
   86800    240.62943   -314.44949    216009.12   -18585.209     1399.395   -19984.604   -772.46965    523.87366    78.770753     22.57973     25.51305 
   87000    240.63679   -354.65194    216009.12   -18565.681    1399.4378   -19965.119   -950.05357    524.59914    78.771063     22.57916    25.526917 
   87200    245.38533   -451.83522    216009.12   -18560.296    1427.0532   -19987.349   -1378.2842    526.85649    78.770294    22.578431     25.52662 
   87400    238.41424   -340.05717    216009.12   -18578.753    1386.5124   -19965.266   -861.88368    526.62233     78.77032    22.580266    25.521025 
   87600    237.06649   -526.61779    216009.12   -18577.448    1378.6745   -19956.122   -1670.7271    529.70808    78.770233    22.581445     25.54071 
   87800    237.06026    -295.7573    216009.12   -18600.817    1378.6382   -19979.455   -661.56081    531.36523    78.768787    22.580421    25.542478 
   88000    242.86182   -139.58405    216009.12   -18551.361    1412.3776   -19963.739   -29.388309    530.87004    78.769538    22.580689     25.53996 
   88200    235.23228   -546.09559    216009.12   -18621.666    1368.0075   -19989.674   -1746.9672    534.50904    78.768876    22.581542    25.510167 
   88400    244.87299   -14.101485    216009.12   -18557.491    1424.0737   -19981.565    478.18004    532.10537    78.765865    22.582312    25.527594 
   88600    240.29713   -345.20072    216009.12   -18553.374    1397.4625   -19950.836    -837.6476    537.96321    78.766624    22.584061    25.520606 
   88800    230.06389   -203.72201    216009.12   -18653.727    1337.9505   -19991.677   -285.82934    535.20749     78.76694    22.583285    25.509748 
   89000    239.01389   -100.22337    216009.12   -18558.829    1389.9997   -19948.829    177.62416    537.11448    78.768561    22.584416    25.545271 
   89200    240.44421   -272.33326    216009.12   -18580.143    1398.3178   -19978.461   -595.46711    538.59043    78.766686    22.583521    25.541907 
   89400    235.05868   -338.74243    216009.12   -18571.784     1366.998   -19938.782   -869.41682    538.13545    78.764738    22.583542    25.523402 
   89600    231.25845   -375.67288    216009.12   -18676.109    1344.8975   -20021.006   -1102.8567    540.40135     78.76294    22.580281    25.536633 
   89800     239.4136   -274.32861    216009.12   -18562.432    1392.3243   -19954.756   -578.40166    541.67518    78.763219    22.576947    25.526865 
   90000     242.4642   -315.30251    216009.12   -18560.936    1410.0652   -19971.001   -725.16808    543.62423    78.760177    22.578017    25.530303 
   90200    241.10035   -326.81969    216009.12   -18607.163    1402.1337   -20009.297   -880.89501    546.50267    78.761081    22.579941    25.551371 
   90400    241.86079   -256.58879    216009.12   -18578.696     1406.556   -19985.252   -529.37113    546.61032    78.762473    22.579055    25.539354 
   90600      243.866   -249.25638    216009.12   -18575.447    1418.2175   -19993.664   -493.78131    548.00746    78.764574    22.579819    25.543307 
   90800    243.91416   -282.11313    216009.12   -18572.258    1418.4975   -19990.755   -584.96165    548.91785    78.765385    22.579361    25.532104 
   91000    236.27484   -370.02816    216009.12   -18634.543    1374.0706   -20008.614   -1009.4551    549.21831    78.766425    22.580407    25.526055 
   91200    229.06408   -378.79262    216009.12     -18696.8     1332.136   -20028.936   -1065.7913     552.2048    78.763513    22.582256    25.531997 
   91400    238.95021   -268.68386    216009.12   -18626.222    1389.6294   -20015.852   -577.35281    553.44975      78.7643    22.584251    25.534257 
   91600    241.63746   -345.40708    216009.12   -18540.673    1405.2572    -19945.93   -888.86783    552.62252    78.762942     22.58454    25.527276 
   91800    238.16006   -188.79526    216009.12   -18591.077    1385.0342   -19976.111   -215.10752    553.13888    78.762173    22.587013    25.513368 
   92000    242.26865    -154.6264    216009.12   -18604.954     1408.928   -20013.882   -102.87914    552.30675    78.762819    22.589506    25.507225 
   92200     240.4783   -317.40757    216009.12   -18625.412    1398.5161   -20023.928   -749.69685    554.04953    78.763097    22.589651    25.504935 
   92400    244.16019   -381.22809    216009.12    -18584.76    1419.9283   -20004.688   -1034.2734    554.59455    78.763927    22.591034    25.532167 
   92600       241.18    -248.2458    216009.12   -18530.142    1402.5969   -19932.739   -515.40848    551.80274    78.762606    22.590096    25.545589 
   92800      239.265   -306.05441    216009.12   -18557.561    1391.4601   -19949.021   -734.30849    553.24556    78.765823    22.589179      25.5512 
   93000    239.69388   -269.04108    216009.12   -18601.973    1393.9543   -19995.927   -593.32859    554.20686    78.764761    22.587032    25.540056 
   93200    239.34745   -381.35624    216009.12   -18588.993    1391.9396   -19980.932   -1070.0059    556.40744    78.765205    22.586015    25.543469 
   93400    230.49253   -405.86118    216009.12   -18650.784    1340.4432   -19991.227   -1150.7101     559.0867    78.766458    22.584565    25.539149 
   93600    243.83534   -274.31637    216009.12    -18627.53    1418.0391   -20045.569   -551.07326    560.40184    78.766956    22.583941     25.53786 
   93800    236.92889   -166.34344    216009.12   -18653.751    1377.8743   -20031.625   -133.75735    563.50058    78.769603    22.582417    25.536631 
   94000    235.06848    -216.7865    216009.12   -18644.798    1367.0549   -20011.853   -358.28022    564.71125    78.768447    22.583025    25.525778 
   94200     245.7606   -289.39862    216009.12   -18579.549    1429.2356   -20008.785   -668.31278    566.41507    78.766502    22.583353    25.538342 
   94400     235.8418   -376.90228    216009.12   -18608.553    1371.5522   -19980.105   -1056.3494    566.10314    78.765797     22.58538    25.509541 
   94600    234.61769   -246.52306    216009.12   -18614.031    1364.4334   -19978.465   -462.47906    565.79571    78.765409    22.587164    25.516114 
   94800    234.41962   -345.70644    216009.12   -18625.271    1363.2815   -19988.552   -867.68121    566.13499    78.765775    22.588357    25.487891 
   95000    243.30313   -419.51459    216009.12   -18611.261     1414.944   -20026.205   -1244.1969    568.46714    78.765408    22.587215    25.494302 
   95200    239.66017   -417.15568    216009.12   -18610.952    1393.7582    -20004.71   -1249.2922    569.59159    78.767579    22.589571    25.491734 
   95400    243.59288   -359.41643    216009.12    -18620.63    1416.6291    -20037.26    -988.8033    570.17459    78.765623    22.591189    25.501234 
   95600    239.95259   -268.17248    216009.12   -18612.951    1395.4588    -20008.41   -599.43155    571.29214    78.763745    22.590087    25.475231 
   95800    242.06688   -378.60288    216009.12   -18590.684    1407.7546   -19998.439   -1048.2542    571.82632    78.764385    22.586716    25.487883 
   96000    247.58162   -288.67177    216009.12   -18569.874    1439.8259   -20009.699   -689.16466    570.91822    78.765642    22.587686    25.490323 
   96200    243.16355    -354.5973    216009.12   -18543.689    1414.1323   -19957.821   -909.62066    570.57126    78.767718    22.587645    25.521063 
   96400    241.94489   -361.88069    216009.12    -18583.47    1407.0451   -19990.515   -961.21976    571.11116    78.767377     22.59019    25.520087 
   96600    233.50827   -398.21426    216009.12     -18641.4    1357.9815   -19999.381   -1096.7555    571.67481     78.76594    22.593289    25.516265 
   96800    234.92154   -343.63533    216009.12   -18593.641    1366.2004   -19959.842   -878.19798    573.67794    78.765822    22.594164    25.523562 
   97000    233.19094   -371.60031    216009.12   -18634.311     1356.136   -19990.448   -988.34398    574.79159    78.765895    22.595457    25.503175 
   97200    239.86857   -186.11643    216009.12   -18596.075    1394.9701   -19991.045   -225.80424    576.18381    78.765255    22.595258    25.504762 
   97400    247.46172   -363.33262    216009.12   -18585.774    1439.1286   -20024.902   -966.97256    579.37912    78.763621    22.593321    25.522539 
   97600     239.3558   -145.96551    216009.12   -18539.611    1391.9881   -19931.599   -72.950839    581.81549    78.765088    22.593107    25.519869 
   97800    239.78131   -254.61094    216009.12    -18548.65    1394.4627   -19943.113   -494.35652    582.03588    78.767648    22.592255    25.551387 
   98000    241.42858    -209.0804    216009.12   -18606.499    1404.0425   -20010.542   -338.79047    582.26873    78.767398    22.592207    25.549455 
   98200    236.49827   -254.09811    216009.12    -18646.67    1375.3699    -20022.04   -496.95445    583.87125    78.766346    22.589952    25.561823 
   98400     244.5265   -316.11186    216009.12   -18616.782    1422.0587   -20038.841   -763.22182    581.94857    78.766179    22.588216    25.560793 
   98600    242.07691   -281.26981    216009.12   -18602.079    1407.8129   -20009.892   -649.50614    583.55144    78.766737    22.590544    25.571206 
   98800    242.61116   -319.72481    216009.12   -18560.368    1410.9198   -19971.287   -789.66257    583.72432    78.767117    22.593385    25.584163 
   99000    241.69256   -382.32712    216009.12   -18590.209    1405.5777   -19995.787   -1059.4666    585.24239    78.766317    22.590079    25.587188 
   99200    236.04373   -201.64153    216009.12   -18587.869    1372.7266   -19960.596   -292.17535    585.72041    78.766773    22.589549     25.57787 
   99400    235.10581   -258.79357    216009.12   -18631.325    1367.2721   -19998.597   -510.37532    585.87435    78.767292    22.590465    25.577088 
   99600    236.92977   -325.25403    216009.12   -18551.036    1377.8794   -19928.915   -800.19182    588.36947    78.765749    22.592159    25.575485 
   99800     237.6899   -386.45055    216009.12    -18557.89       1382.3    -19940.19   -1085.5176    590.05887    78.762741    22.589368    25.585859 
  100000    238.06346    -281.9424    216009.12   -18542.902    1384.4725   -19927.375   -649.70952    592.90734    78.762782    22.587212    25.589721 
  100200    234.54433   -364.61258    216009.12   -18573.791    1364.0067   -19937.798   -969.05664    594.85209     78.76206    22.588381    25.578956 
  100400    243.26656   -199.38409    216009.12   -18538.775    1414.7314   -19953.506   -305.58132    597.33767    78.762258    22.589071    25.571179 
  100600    236.47926   -147.72523    216009.12   -18560.192    1375.2594   -19935.451   -38.233453    599.94482     78.76301    22.592109    25.557794 
  100800    235.72563   -420.13607    216009.12   -18609.156    1370.8767   -19980.032   -1221.1446     600.7519    78.762963    22.593369    25.580073 
[...]
 5175800    227.99215   -626.52405    216009.12   -20626.695    1325.9021   -21952.597   -2031.6035    7510.0718    78.615139    23.972267    25.359629 
 5176000    226.98847   -759.46076    216009.12   -20610.506    1320.0652   -21930.571   -2557.5082     7514.117    78.614318    23.973646    25.358239 
 5176200     224.7116   -677.37635    216009.12   -20619.292    1306.8239   -21926.116   -2215.9546    7513.6509    78.613788    23.973482    25.360685 
 5176400    226.09902   -540.17278    216009.12   -20644.401    1314.8925   -21959.293    -1656.906     7509.851    78.612667    23.974041    25.362413 
 5176600    223.31217   -843.51057    216009.12   -20598.032    1298.6854   -21896.718   -2997.7834     7515.936    78.612037    23.973917    25.359863 
 5176800    233.07072   -661.80446    216009.12   -20573.214    1355.4368   -21928.651   -2173.5229    7511.2197    78.612654    23.974974     25.35098 
 5177000    231.76506    -616.4465    216009.12   -20574.917    1347.8437   -21922.761   -1958.1814    7510.1987    78.611942     23.97481    25.362229 
 5177200     224.9311   -855.29989    216009.12   -20593.181    1308.1004   -21901.281   -2998.4764    7514.4627    78.611614    23.976347    25.364181 
 5177400    225.14045    -689.2673    216009.12   -20620.889    1309.3179   -21930.207   -2272.6773    7511.2685    78.611893    23.976282    25.365218 
 5177600    240.28365    -668.7256    216009.12   -20562.249    1397.3841   -21959.633   -2205.7647    7510.1278    78.612172    23.976534     25.35921 
 5177800    222.72033   -863.70159    216009.12   -20601.586    1295.2435    -21896.83   -3042.7734    7515.7171     78.61238     23.97651      25.3639 
 5178000    231.89784   -617.17242    216009.12   -20630.655    1348.6159    -21979.27   -1978.2596    7511.0496    78.612401    23.976512    25.356559 
 5178200    230.86611   -624.06909    216009.12   -20615.461    1342.6158   -21958.076   -2012.8135    7512.6789    78.612486    23.976615    25.354312 
 5178400    228.34312   -798.54592    216009.12   -20634.828    1327.9432   -21962.771   -2769.6662    7514.7075    78.611289    23.976949    25.355237 
 5178600     225.1835   -592.10611    216009.12   -20626.947    1309.5682   -21936.515   -1872.3146     7511.118    78.610695    23.976781    25.359664 
 5178800    227.93759   -645.06878    216009.12   -20581.978    1325.5848   -21907.563    -2088.029    7510.7575    78.609361    23.976649    25.353358 
 5179000    227.08295   -746.61453    216009.12   -20613.177    1320.6146   -21933.791   -2524.7907    7512.3482    78.608368    23.976852    25.356274 
 5179200    219.44117   -599.01556    216009.12   -20581.991    1276.1734   -21858.165   -1949.0622    7509.0243    78.609453    23.975958    25.358856 
 5179400    220.31177   -688.68835    216009.12   -20644.618    1281.2364   -21925.854    -2258.376    7514.4222    78.609209    23.976227    25.361686 
 5179600    231.15553   -705.63753    216009.12   -20544.788     1344.299   -21889.087   -2367.1331    7513.6598     78.60798    23.975554    25.363472 
 5179800    228.56849   -592.48722    216009.12   -20603.069    1329.2539   -21932.322   -1854.7188    7510.9758    78.609813     23.97567    25.360761 
 5180000    227.61415   -703.07691    216009.12   -20628.134    1323.7038   -21951.838   -2345.2087     7514.223    78.609195    23.977545    25.353827 
 5180200    213.66458   -719.91728    216009.12   -20693.861    1242.5793    -21936.44   -2407.2983    7513.7044    78.607556    23.977404    25.354106 
 5180400     218.9324   -728.10781    216009.12   -20665.734    1273.2146   -21938.948   -2461.1475    7511.5301    78.608525    23.977432    25.357486 
 5180600    224.10503   -710.60702    216009.12   -20614.212    1303.2964   -21917.509   -2374.6283    7513.1986    78.608808    23.977568    25.353172 
 5180800    226.80656   -688.64174    216009.12   -20586.481    1319.0072   -21905.488   -2267.4482    7515.2523    78.609626    23.976701     25.35155 
 5181000    222.91144   -636.16806    216009.12   -20627.742    1296.3549   -21924.097   -2016.2968    7510.8703    78.608077    23.977077    25.358986 
 5181200    230.08945   -640.37362    216009.12   -20631.143    1338.0991   -21969.242   -2056.1348    7510.4282    78.607169    23.977182    25.357231 
 5181400    227.52677   -668.43207    216009.12   -20665.282    1323.1957   -21988.477   -2184.7061    7514.6262    78.606844    23.977779    25.354884 
 5181600    227.53354   -723.42817    216009.12    -20599.28    1323.2351   -21922.515   -2461.6323    7512.1266     78.60747    23.978057    25.358404 
 5181800    217.62386   -640.45732    216009.12   -20670.095    1265.6047     -21935.7   -2078.3367    7511.5016     78.60739    23.979482    25.365734 
 5182000    228.59465   -712.73783    216009.12   -20591.912     1329.406   -21921.318   -2356.4929    7513.3821    78.606928    23.980289    25.358354 
 5182200     224.9104   -658.89963    216009.12    -20587.12      1307.98     -21895.1   -2128.3424    7512.2341    78.606369    23.981623    25.357051 
 5182400    234.08192   -718.56391    216009.12   -20580.765    1361.3175   -21942.083   -2430.3762    7512.5902    78.606985    23.983237     25.36577 
 5182600    222.81963    -759.3737    216009.12   -20674.147     1295.821   -21969.968   -2596.9223    7514.9358    78.607414    23.984593    25.360759 
 5182800    229.43559   -678.81755    216009.12   -20610.662    1334.2966   -21944.959   -2245.3572     7513.387    78.605851    23.984684    25.355299 
 5183000     229.2234   -656.32118    216009.12   -20601.096    1333.0625   -21934.159   -2118.9025    7513.1621    78.604972    23.985599    25.351176 
 5183200    227.05759   -744.96056    216009.12   -20563.955    1320.4671   -21884.422   -2533.9352    7513.3863    78.605009    23.985909    25.362001 
 5183400    231.76016   -711.61603    216009.12   -20569.842    1347.8152   -21917.657   -2393.6818    7513.1912    78.605352    23.987077    25.366223 
 5183600    223.95527   -660.33602    216009.12   -20649.838    1302.4254   -21952.264    -2173.052    7510.9755    78.605637    23.987991    25.366659 
 5183800     227.7483   -727.96481    216009.12   -20679.398     1324.484   -22003.882   -2462.1184    7510.8217    78.606566    23.989276    25.363392 
 5184000    218.65283   -708.09017    216009.12    -20674.48    1271.5888   -21946.069   -2334.0742    7513.2559    78.607067    23.990197    25.356169 
 5184200    230.55588   -639.67824    216009.12   -20556.626    1340.8117   -21897.437   -2099.1071    7511.1046    78.606073    23.990623    25.358706 
 5184400    227.50622   -635.84021    216009.12   -20630.742    1323.0762   -21953.818   -2081.3113    7510.5311    78.608124    23.990531    25.368368 
 5184600    227.78273    -764.1146    216009.12    -20568.19    1324.6842   -21892.874   -2631.7054    7515.7432    78.607927    23.990337    25.367086 
 5184800     218.7516   -703.33762    216009.12   -20620.119    1272.1631   -21892.282   -2364.7843     7513.197    78.608426    23.990298    25.365869 
 5185000      224.975    -656.7762    216009.12   -20633.226    1308.3557   -21941.582   -2176.3485    7510.2856    78.608835    23.991032    25.361969 
 5185200    228.54271   -709.15524    216009.12   -20613.556    1329.1039    -21942.66   -2364.2007    7512.2639    78.608147    23.992919    25.365022 
 5185400    222.40273   -679.49713    216009.12   -20652.948    1293.3965   -21946.345   -2235.8715    7510.4795    78.609099    23.992465    25.357659 
 5185600    226.82543   -645.42302    216009.12   -20616.896     1319.117   -21936.013   -2087.9437    7511.0866    78.609303    23.991963    25.369932 
 5185800    226.69374   -675.74647    216009.12   -20632.082    1318.3511   -21950.434   -2194.1133    7513.6247    78.609714    23.992395    25.366197 
 5186000    223.76941   -700.69689    216009.12   -20577.585    1301.3445   -21878.929   -2336.3488    7512.7044    78.609747     23.99266    25.365591 
 5186200    226.51532   -645.73769    216009.12   -20580.884    1317.3135   -21898.198   -2119.0451    7513.0429     78.61085    23.991892    25.361976 
 5186400    226.41444   -647.89128    216009.12   -20594.551    1316.7269   -21911.278   -2082.7304    7513.7491    78.611218    23.992643    25.363251 
 5186600    227.01101   -709.38907    216009.12   -20589.922    1320.1962   -21910.119   -2352.8987    7513.9369    78.611442    23.994266    25.363536 
 5186800    227.60158   -675.83146    216009.12   -20583.654    1323.6308   -21907.285   -2257.4953    7510.4243    78.610909    23.995009    25.361192 
 5187000    227.94446   -620.28173    216009.12   -20602.759    1325.6248   -21928.384   -1997.4117    7512.9928    78.610921    23.995993    25.359751 
 5187200    224.91478   -660.95423    216009.12   -20568.552    1308.0055   -21876.557   -2154.6394    7513.5937    78.611916    23.995731    25.360342 
 5187400    231.76114    -667.7525    216009.12    -20584.79    1347.8209   -21932.611   -2190.5421    7511.1145    78.612063    23.995583    25.362229 
 5187600    228.55822   -671.45619    216009.12   -20620.962    1329.1941   -21950.156   -2230.0309    7512.6217    78.613706    23.996452     25.37431 
 5187800     229.4956   -714.07828    216009.12   -20572.262    1334.6455   -21906.908   -2418.2979    7515.1399    78.613331    23.996728    25.363674 
 5188000    224.86199   -660.09478    216009.12   -20593.516    1307.6985   -21901.215   -2192.1703    7512.5727    78.613893    23.997729    25.363717 
 5188200    233.03678   -657.04365    216009.12   -20549.049    1355.2395   -21904.288   -2156.9172    7513.0578    78.613222    23.998931    25.370027 
 5188400    227.73544   -725.36017    216009.12   -20589.005    1324.4092   -21913.414   -2419.5348    7514.6632    78.613997    24.000102    25.371559 
 5188600    226.94292   -661.71483    216009.12   -20596.044    1319.8003   -21915.845   -2185.6951    7512.6734    78.614154    23.999563    25.370965 
 5188800    224.53776   -691.62332    216009.12   -20650.608    1305.8129   -21956.421   -2291.4265    7512.3475    78.615159     24.00082    25.371778 
 5189000    218.89575   -692.81985    216009.12   -20639.332    1273.0014   -21912.334   -2276.7721    7513.8219    78.614129    24.001427    25.374817 
 5189200    230.32626   -694.63386    216009.12   -20635.717    1339.4763   -21975.193   -2296.2831    7513.9664    78.614275    24.002273    25.367935 
 5189400    221.74483    -683.9122    216009.12   -20693.454    1289.5704   -21983.024   -2271.4575    7512.8782    78.614045    24.002237    25.360424 
 5189600    228.12411   -738.69506    216009.12   -20644.085    1326.6695   -21970.754   -2492.5303    7514.8679    78.614932     24.00251    25.363988 
 5189800    227.33298   -714.70723    216009.12   -20599.149    1322.0687   -21921.217   -2412.6112    7512.1153    78.615552    24.003492    25.362561 
 5190000    223.89692   -732.79297    216009.12   -20635.305     1302.086   -21937.391   -2489.1768    7512.3965     78.61465    24.003531    25.359003 
 5190200     225.2246   -730.12819    216009.12   -20605.008    1309.8072   -21914.815   -2444.5708    7513.3241    78.614088    24.004139    25.371401 
 5190400    227.04051   -647.33152    216009.12   -20617.493    1320.3678   -21937.861   -2097.6508    7511.8901    78.614436    24.005317    25.367808 
 5190600    234.97432   -662.12241    216009.12   -20548.849    1366.5073   -21915.356   -2190.4421    7512.9329    78.614995    24.005194     25.36779 
 5190800    225.90501   -709.11527    216009.12   -20624.402    1313.7643   -21938.166   -2373.2903    7515.4209    78.616155    24.005466    25.362896 
 5191000    232.01687   -599.28679    216009.12   -20595.943    1349.3082   -21945.251   -1885.7268    7512.9523    78.615674    24.004215     25.37194 
 5191200    231.94623   -704.04916    216009.12   -20584.873    1348.8973    -21933.77   -2378.5559    7512.4405    78.615696     24.00472    25.365349 
 5191400    223.71276   -676.78662    216009.12   -20617.592    1301.0151   -21918.607   -2209.5185    7514.7115    78.615382    24.004679    25.376365 
 5191600    227.98454   -673.02073    216009.12   -20632.918    1325.8579   -21958.776   -2220.9425    7514.0022     78.61636    24.005784    25.377846 
 5191800    224.38566   -750.18497    216009.12   -20622.441    1304.9284   -21927.369   -2580.7338    7513.6512     78.61525    24.005905    25.376793 
 5192000    233.05896   -705.39528    216009.12   -20562.924    1355.3685   -21918.293   -2316.2146    7514.6407     78.61584    24.005791    25.384162 
 5192200    225.49234   -601.99629    216009.12   -20538.928    1311.3643   -21850.292   -1916.2795    7512.1952    78.615843    24.007424    25.381096 
 5192400    229.31987   -753.59005    216009.12   -20609.527    1333.6235   -21943.151   -2620.6158    7514.9521     78.61542    24.008523    25.369551 
 5192600     230.4258   -697.38838    216009.12   -20606.369    1340.0551   -21946.424   -2377.6642    7515.3601    78.615277    24.009723    25.369969 
 5192800    229.02878   -640.47304    216009.12   -20614.861    1331.9307   -21946.791   -2060.8474    7513.6206    78.615836    24.010588    25.366241 
 5193000    230.00242   -691.29844    216009.12   -20575.505     1337.593   -21913.098    -2265.299    7513.6686    78.615815    24.009844      25.3739 
 5193200    227.89643   -734.89549    216009.12   -20659.396    1325.3454   -21984.741   -2479.5962    7512.7041    78.616723    24.010209    25.373866 
 5193400    225.76325   -748.81524    216009.12   -20580.719    1312.9398   -21893.658   -2571.0297    7513.3851    78.618127    24.010503    25.372172 
 5193600    227.47478   -742.66542    216009.12   -20604.184    1322.8933   -21927.077   -2549.0266     7514.811    78.618266    24.010594    25.365825 
 5193800    228.87798   -675.16289    216009.12   -20592.432    1331.0537   -21923.486   -2235.1882    7513.5467    78.618587    24.011971    25.366437 
 5194000    226.72531   -640.46514    216009.12   -20582.625    1318.5347    -21901.16   -2094.0116    7514.7019    78.619124      24.0122    25.372648 
 5194200    223.68664   -676.73329    216009.12    -20657.07    1300.8632   -21957.933   -2225.2215    7511.9227    78.619052    24.012758    25.366433 
 5194400    231.94012   -625.78878    216009.12   -20638.996    1348.8618   -21987.857   -2015.5926    7513.7239    78.618843    24.012887    25.368984 
 5194600    227.46192    -712.5761    216009.12   -20601.384    1322.8185   -21924.203   -2398.2832    7512.9553    78.619623    24.014109    25.365853 
 5194800    237.25443   -642.73963    216009.12     -20562.6    1379.7675   -21942.367   -2061.4879    7512.6964    78.620625    24.014725    25.366343 
 5195000    230.73829   -658.36503    216009.12   -20626.794    1341.8725   -21968.666   -2148.6367     7511.833    78.621996    24.015308    25.370133 
 5195200    236.01535   -660.53956    216009.12   -20546.331    1372.5615   -21918.892   -2168.3049    7512.5574     78.62157    24.014441    25.367629 
 5195400    226.82517   -653.57018    216009.12   -20608.549    1319.1155   -21927.664   -2124.7107     7513.366    78.621708    24.016072    25.369496 
 5195600    228.29822   -674.50536    216009.12   -20566.699    1327.6821   -21894.381   -2242.4829    7511.0164    78.622897    24.015263    25.370482 
 5195800    231.67594    -636.6104    216009.12   -20636.221    1347.3254   -21983.547   -2049.4428    7512.9973    78.623873    24.014752    25.370414 
 5196000    236.21932   -665.08407    216009.12   -20556.088    1373.7477   -21929.835   -2172.1197    7513.6908    78.625019    24.014716    25.365974 
 5196200    230.07148   -673.52829    216009.12   -20586.256    1337.9946   -21924.251   -2208.2923    7512.4219    78.626319    24.014244     25.37281 
 5196400    228.74552   -714.57741    216009.12   -20628.725    1330.2834   -21959.008   -2373.2066    7514.5125    78.625543    24.013919    25.370397 
 5196600    228.23208   -722.74048    216009.12   -20583.291    1327.2974   -21910.588   -2424.0331    7513.6848    78.626498    24.014449    25.377619 
 5196800    227.00936   -640.11847    216009.12   -20605.025    1320.1866   -21925.211   -2085.9449    7512.3196    78.626842    24.015646    25.374579 
 5197000     226.8244   -682.23957    216009.12   -20591.467     1319.111   -21910.578   -2246.1347    7514.2578    78.626013     24.01516     25.37122 
 5197200    233.83742   -681.94649    216009.12   -20571.019    1359.8956   -21930.914   -2248.6878    7515.3988    78.625626    24.014945     25.37289 
 5197400    224.56995   -678.34588    216009.12   -20633.185    1306.0001   -21939.186   -2246.1819    7513.6168    78.625891    24.014374    25.377175 
 5197600    222.02266   -718.83069    216009.12   -20633.319    1291.1862   -21924.505   -2448.4486    7514.6561    78.625563    24.014395    25.374056 
 5197800    225.63108   -713.57836    216009.12   -20645.234    1312.1712   -21957.405   -2429.1478    7513.7058    78.625688     24.01386    25.370026 
 5198000    220.53463   -597.98996    216009.12   -20683.498    1282.5325    -21966.03   -1907.3505    7511.2467    78.625999    24.014477    25.373541 
 5198200    225.71297   -699.59585    216009.12   -20590.061    1312.6474   -21902.708    -2278.515    7512.9955    78.626444    24.014141    25.374642 
 5198400    233.47967   -651.55386    216009.12   -20581.369    1357.8151   -21939.184   -2105.2394    7514.4407    78.626614    24.013348    25.371364 
 5198600    228.76701   -648.70165    216009.12   -20602.218    1330.4083   -21932.627   -2106.5451    7513.5823    78.626462    24.013018      25.3712 
 5198800    222.66407   -776.94218    216009.12   -20679.299    1294.9163   -21974.215   -2701.2404    7514.8712    78.627287    24.012592    25.371969 
 5199000    229.47424   -780.22113    216009.12   -20642.305    1334.5213   -21976.826   -2710.5784    7514.5238    78.628685    24.012514    25.369617 
 5199200    231.67182   -649.68099    216009.12   -20548.013    1347.3014   -21895.314    -2129.108    7513.0737    78.629654    24.010999    25.368354 
 5199400     224.3199   -738.92414    216009.12   -20657.542    1304.5459   -21962.088   -2471.5794    7514.8284     78.62949    24.010419    25.370655 
 5199600    222.05125   -649.58831    216009.12    -20654.83    1291.3525   -21946.183   -2102.9675    7514.9624    78.628963    24.009713    25.371803 
 5199800    225.82745   -615.97458    216009.12   -20618.848    1313.3132   -21932.161   -1983.1629    7512.4658    78.629269    24.008948    25.379577 
 5200000    224.41222   -714.12509    216009.12    -20624.66    1305.0828   -21929.743   -2420.9245    7514.2113    78.630085    24.007782    25.373293 
Loop time of 6761.1 on 160 procs for 5200000 steps with 9248 atoms

Performance: 664.507 ns/day, 0.036 hours/ns, 769.105 timesteps/s
97.8% CPU use with 160 MPI tasks x no OpenMP threads

MPI task timing breakdown:
Section |  min time  |  avg time  |  max time  |%varavg| %total
---------------------------------------------------------------
Pair    | 0.24677    | 1407       | 5494.6     |5067.8 | 20.81
Neigh   | 0.32237    | 88.803     | 339.69     |1222.5 |  1.31
Comm    | 11.192     | 1719.8     | 5409.2     |4464.8 | 25.44
Output  | 89.767     | 89.844     | 91.854     |   1.7 |  1.33
Modify  | 214.27     | 3361.1     | 6572.7     |4686.3 | 49.71
Other   |            | 94.53      |            |       |  1.40

Nlocal:    57.8 ave 196 max 0 min
Histogram: 72 27 21 0 0 0 0 0 13 27
Nghost:    535.888 ave 917 max 0 min
Histogram: 17 7 0 8 8 32 35 15 25 13
Neighs:    0 ave 0 max 0 min
Histogram: 160 0 0 0 0 0 0 0 0 0
FullNghs:  5866.88 ave 23619 max 0 min
Histogram: 112 8 0 0 0 0 0 1 20 19

Total # of neighbors = 938700
Ave neighs/atom = 101.503
Neighbor list builds = 541788
Dangerous builds = 0
write_data 		${DIR}/data.${NAME}_run
write_data 		run_20/data.${NAME}_run
write_data 		run_20/data.ibeam_cooling_20_run
Total wall time: 1:52:56
