
# Set production fixes - Nose/Hoover
#
fix                 4 water temp/csvr ${START_TEMP} ${END_TEMP} 500.0 928347
fix                 4 water temp/csvr 240 ${END_TEMP} 500.0 928347
fix                 4 water temp/csvr 240 227 500.0 928347


## divide "droplet" into core and surface
#region		core_reg cylinder z 135 135 44.6 20 INF units box
#region		surface_reg cylinder z 135 135 44.6 20 INF units box side out
#group		core dynamic all region core_reg
#group		surface dynamic all region surface_reg

## compute pressure core
#compute        peratom_core core stress/atom NULL
#compute        p_core core reduce sum c_peratom_core[1] c_peratom_core[2] c_peratom_core[3]
#variable       press_core equal -(c_p_core[1]+c_p_core[2]+c_p_core[3])/(3*1249982.5)


## compute pressure surface
#compute        peratom_surf surface stress/atom NULL
#compute        p_surf surface reduce sum c_peratom_surf[1] c_peratom_surf[2] #c_peratom_surf[3]
#variable       press_surf equal -(c_p_surf[1]+c_p_surf[2]+c_p_surf[3])/(3*42395)

## compute total pressure of drop
compute        peratom water stress/atom NULL
compute        p water reduce sum c_peratom[1] c_peratom[2] c_peratom[3]
variable       press equal -(c_p[1]+c_p[2]+c_p[3])/(3*58301)


# compute order parameter
compute        3 all orientorder/atom nnn NULL cutoff 3.5

# compute center of mass of bridge
compute 	4 water com

# Run simulation
thermo_style        custom step c_2 press vol etotal ke pe v_press c_1[4] c_4[*]
thermo              200
dump		     1 water custom 400 ${DIR}/prod.${NAME}.dump id type x y z vx vy vz c_3[*] c_peratom[*]
dump		     1 water custom 400 run_1/prod.${NAME}.dump id type x y z vx vy vz c_3[*] c_peratom[*]
dump		     1 water custom 400 run_1/prod.ibeam_cooling_1.dump id type x y z vx vy vz c_3[*] c_peratom[*]
run                 ${STEPS}
run                 5200000
Neighbor list info ...
  update every 1 steps, delay 0 steps, check yes
  max neighbors/atom: 2000, page size: 100000
  master list distance cutoff = 6.67472
  ghost atom cutoff = 6.67472
  binsize = 3.33736, bins = 57 9 12
  2 neighbor lists, perpetual/occasional/extra = 1 1 0
  (1) pair sw, perpetual
      attributes: full, newton on
      pair build: full/bin/atomonly
      stencil: full/bin/3d
      bin: standard
  (2) compute orientorder/atom, occasional, copy from (1)
      attributes: full, newton on
      pair build: copy
      stencil: none
      bin: none
Per MPI rank memory allocation (min/avg/max) = 6.162 | 6.762 | 7.286 Mbytes
Step c_2 Press Volume TotEng KinEng PotEng v_press c_1[4] c_4[1] c_4[2] c_4[3] 
       0    237.45125   -516.69717    204420.41   -23249.299    1723.4859   -24972.785   -1251.7629    41.744774    95.093059    14.522184    27.906658 
     200    231.38796   -217.45384    204420.41   -23252.731    1679.4768   -24932.208   -236.63797    42.087616    95.093579      14.5207    27.906282 
     400    241.54687   -383.31864    204420.41   -23264.494     1753.213   -25017.707    -777.3085     43.48196    95.094798    14.521262    27.916109 
     600     243.6782   -368.45409    204420.41   -23159.355    1768.6827   -24928.038   -722.68212    44.619064    95.094745    14.521938    27.926759 
     800      246.767   -120.22208    204420.41    -23152.07    1791.1021   -24943.172    153.61597    47.047089    95.094486      14.5207    27.935051 
    1000    243.04657   -405.22179    204420.41   -23222.981    1764.0983   -24987.079   -855.93036    47.842558    95.094593    14.520862    27.935653 
    1200    237.28197   -305.38276    204420.41   -23205.541    1722.2572   -24927.798   -555.40637    48.437707    95.095272    14.519828    27.942458 
    1400    239.15769    -476.0815    204420.41    -23204.51    1735.8717   -24940.381   -1128.6333    49.570581    95.093981    14.523937    27.948651 
    1600    242.08663   -331.26577    204420.41   -23235.622    1757.1307   -24992.753   -657.35966    51.376001    95.094416    14.525617    27.924057 
    1800    236.98362   -317.35772    204420.41   -23213.781    1720.0917   -24933.872    -588.0925    52.830587    95.093714    14.524673    27.915882 
    2000    244.09579   -331.41719    204420.41   -23142.501    1771.7137   -24914.215   -660.89508      53.4962    95.094562    14.524186    27.938997 
    2200     241.0736   -461.27141    204420.41   -23192.092    1749.7779    -24941.87   -1035.4907    54.457563    95.094847    14.524826    27.926193 
    2400    242.72324   -271.40551    204420.41   -23159.841    1761.7514   -24921.592   -384.84706    55.918479    95.095432    14.523758    27.907673 
    2600    236.82569   -297.00538    204420.41   -23205.197    1718.9454   -24924.143   -539.45254    57.501639    95.096673      14.5249    27.894546 
    2800    242.37049   -312.64265    204420.41   -23129.239    1759.1911    -24888.43   -594.53852    58.514892     95.09665    14.528013    27.919563 
    3000    239.17732   -211.82263    204420.41   -23137.623    1736.0141   -24873.637   -188.99802    61.457067    95.095448    14.529189    27.949303 
    3200    238.64717   -526.89773    204420.41   -23213.884    1732.1662   -24946.051   -1275.3918    62.749463    95.095311    14.534147    27.967342 
    3400    240.44385   -300.39245    204420.41   -23249.846    1745.2069   -24995.053   -502.25964    63.942614    95.097318    14.534553    27.970686 
    3600    240.89951   -389.25078    204420.41   -23242.089    1748.5143   -24990.603   -826.55296    66.196486    95.098183    14.532127    27.978159 
    3800    241.27132   -314.83543    204420.41   -23208.453     1751.213   -24959.666   -620.72959    67.086387     95.09886    14.533745    27.968575 
    4000    235.49963   -379.35228    204420.41   -23240.791    1709.3205   -24950.111   -818.48662    68.233069    95.099716    14.532344    27.974957 
    4200    242.68923   -315.85482    204420.41   -23191.346    1761.5046   -24952.851   -610.62149    69.887833    95.100699    14.531147    27.969754 
    4400    240.50286   -511.94334    204420.41   -23233.769    1745.6353   -24979.404   -1273.8606    71.543055    95.103881    14.530723    27.963574 
    4600    240.77083   -206.55488    204420.41   -23312.438    1747.5803   -25060.018   -196.92786    72.998123    95.106533    14.532437    27.949928 
    4800    242.98609   -491.27611    204420.41   -23167.422    1763.6592   -24931.082   -1156.8312    75.201645     95.10818     14.53292    27.922582 
    5000    238.45826   -471.36449    204420.41   -23228.469     1730.795   -24959.264   -1112.5703    77.132642    95.108862    14.531308    27.916231 
    5200    235.55848   -227.85368    204420.41   -23215.423    1709.7477    -24925.17   -257.26088    78.530699    95.109635     14.53101    27.919247 
    5400     242.4049   -311.30781    204420.41   -23232.675    1759.4408   -24992.116   -585.29401    81.089132    95.111273    14.531894    27.914867 
    5600    242.05223   -295.72026    204420.41   -23276.944    1756.8811   -25033.825   -500.37041    82.596117    95.112042    14.530906    27.920376 
    5800    245.71337   -300.80635    204420.41   -23227.774    1783.4546   -25011.229   -508.30947    83.948669     95.11066     14.53467     27.91914 
    6000    236.91531   -571.31313    204420.41   -23277.042    1719.5959   -24996.638   -1493.6053    86.269509    95.111216    14.536096    27.927787 
    6200    237.84637    -221.2018    204420.41   -23267.609    1726.3538   -24993.963   -249.36264    88.073246    95.109601    14.538194    27.923637 
    6400    239.08277    -268.6406    204420.41   -23228.645    1735.3279   -24963.973   -399.20802    88.672653    95.109041    14.539198    27.914931 
    6600    240.03283    -486.4627    204420.41   -23241.999    1742.2237   -24984.223   -1206.5335    91.328191    95.108962    14.539667    27.892802 
    6800    239.53891   -274.70237    204420.41   -23253.792    1738.6387   -24992.431   -407.29115    93.505894    95.109918    14.538308    27.880973 
    7000     244.1144    -408.8827    204420.41   -23216.804    1771.8489   -24988.652    -892.0238    94.854413    95.110284    14.538891    27.871281 
    7200    238.61289   -427.67155    204420.41   -23365.491    1731.9174   -25097.408   -953.74839    95.430556    95.110225    14.538018     27.88022 
    7400     235.0844    -272.1497    204420.41   -23327.873    1706.3066   -25034.179   -422.35118    95.861972    95.109335    14.540078    27.886363 
    7600    237.74606   -466.06032    204420.41   -23197.189    1725.6257   -24922.814   -1104.5851    95.266075    95.108546    14.543129    27.882663 
    7800    237.41284    -434.5529    204420.41   -23301.691    1723.2071   -25024.899   -997.71768    94.988772     95.10927    14.543371    27.882155 
    8000    240.58762    -393.1748    204420.41   -23165.625    1746.2505   -24911.876   -834.98343    95.766377    95.108112    14.543297    27.868001 
    8200     241.7694   -251.63353    204420.41   -23213.688    1754.8281   -24968.516   -344.55662     96.99846    95.110503    14.542693    27.868727 
    8400    242.77274    -585.4693    204420.41   -23166.516    1762.1107   -24928.627   -1512.3878     99.00067    95.111576    14.542596    27.866189 
    8600    241.96173   -365.66037    204420.41   -23232.616    1756.2242    -24988.84   -789.92011    100.10181        95.11    14.541459    27.856482 
    8800    237.79338    -528.7128    204420.41   -23267.222    1725.9691   -24993.191   -1321.8577    100.39606     95.10981    14.541227    27.869508 
    9000     239.6323   -427.68274    204420.41   -23237.864    1739.3165   -24977.181   -993.82317    101.58684      95.1095    14.543863    27.896975 
    9200    242.10831   -486.24108    204420.41   -23172.495    1757.2881   -24929.783   -1182.0952    103.40093    95.110525    14.545009    27.920018 
    9400    237.98737   -326.71186    204420.41   -23225.916    1727.3772   -24953.293   -602.57934    104.15045    95.110814    14.546854    27.920964 
    9600    237.36479   -296.44676    204420.41   -23264.591    1722.8584   -24987.449   -481.32673    106.18174    95.110075    14.548685    27.925351 
    9800    242.39753   -392.38039    204420.41   -23178.978    1759.3873   -24938.365   -845.35163    108.26493    95.109088    14.548521    27.926373 
   10000    239.65441   -376.39019    204420.41   -23227.511     1739.477   -24966.988   -805.64997    109.68352    95.109364    14.549692    27.922194 
   10200     243.6545   -372.69633    204420.41    -23202.54    1768.5107   -24971.051   -816.25968    110.87879    95.109293    14.547471     27.93015 
   10400    239.94326   -308.86956    204420.41   -23192.437    1741.5735    -24934.01   -562.57398    113.34155    95.108321    14.547773    27.941333 
   10600    232.02486   -336.90726    204420.41   -23244.254    1684.0997   -24928.354   -626.13142    114.23398    95.108065    14.546022    27.939629 
   10800    233.87757   -380.36531    204420.41   -23298.845    1697.5471   -24996.392   -770.39034    116.22322    95.107957    14.545536    27.950839 
   11000    240.89301   -323.70289    204420.41   -23307.887    1748.4671   -25056.354   -593.94758    117.09544    95.105825    14.547175    27.959564 
   11200    232.79884     -296.399    204420.41   -23309.523    1689.7174    -24999.24   -499.11063    117.08075    95.104369    14.545529    27.962063 
   11400    233.61862   -214.84951    204420.41   -23242.211    1695.6676   -24937.879   -220.79091    119.03127    95.106017    14.544473    27.962701 
   11600     246.8545   -298.92957    204420.41   -23147.321    1791.7372   -24939.058   -483.18592      120.071    95.106465    14.544215    27.953522 
   11800     241.6545   -549.06259    204420.41   -23130.477    1753.9942   -24884.471   -1390.2378    122.39913    95.106039    14.544355    27.937865 
   12000    246.39133   -212.29687    204420.41   -23147.915    1788.3754    -24936.29   -216.75839    123.69264    95.105951    14.546793    27.941196 
   12200    244.09093   -423.19993    204420.41   -23160.698    1771.6785   -24932.376   -988.82068    125.70788    95.105678    14.549993    27.938745 
   12400    239.24998   -329.31607    204420.41   -23147.719    1736.5415   -24884.261   -619.88769    127.93115    95.105564    14.549613    27.917832 
   12600    245.97415   -502.79187    204420.41   -23085.553    1785.3474   -24870.901   -1218.2811    127.80149     95.10558    14.548735     27.93875 
   12800    242.76203   -385.00576    204420.41   -23179.582     1762.033   -24941.615   -811.51441     129.8381    95.104419    14.548655    27.933019 
   13000    239.40473   -392.61767    204420.41   -23218.569    1737.6648   -24956.234   -841.62187    131.62741    95.105098    14.548495    27.926604 
   13200    235.57012   -204.47806    204420.41    -23260.93    1709.8321   -24970.762   -261.53873    132.34065    95.104472    14.552712    27.928066 
   13400    231.78094   -325.63519    204420.41   -23325.327    1682.3292   -25007.656   -627.73131     132.9285    95.102934    14.551373    27.920434 
   13600    236.54978   -357.97772    204420.41    -23257.82    1716.9428   -24974.762   -716.66723    135.15231    95.103754    14.553569    27.923398 
   13800    239.79248   -375.16608    204420.41   -23204.148    1740.4791   -24944.627   -792.17088    136.79514    95.103748     14.55224    27.929524 
   14000    242.93274   -400.98466    204420.41    -23152.47     1763.272   -24915.742   -871.30081    138.06745    95.104107    14.548135    27.948678 
   14200    244.96216   -355.95305    204420.41   -23240.838    1778.0021    -25018.84   -725.11876    139.33712    95.104387    14.548754    27.962784 
   14400    242.22791   -643.73529    204420.41    -23299.86    1758.1562   -25058.016   -1677.8393    141.66984    95.104395    14.550935    27.982362 
   14600    239.25084   -299.83661    204420.41     -23257.5    1736.5478   -24994.048   -526.61875    144.04871    95.104366    14.555253    27.953493 
   14800    236.11359   -317.38615    204420.41   -23152.903    1713.7767    -24866.68   -587.40817    144.95547    95.105294    14.560535    27.938467 
   15000      238.991   -274.71542    204420.41   -23151.464    1734.6618   -24886.126   -451.05256    146.90528    95.108486    14.559856    27.957327 
   15200     236.0789   -500.94648    204420.41   -23125.563     1713.525   -24839.088   -1245.8284    149.10708    95.110221    14.555818    27.969449 
   15400    240.63297   -183.30545    204420.41   -23217.167    1746.5796   -24963.746   -106.76919    149.25585    95.109217    14.557448    27.962827 
   15600    243.71626   -249.93764    204420.41   -23113.226     1768.959   -24882.185   -357.82574    151.16431     95.10916    14.560162     27.95503 
   15800    246.24631   -464.22692    204420.41   -23117.711    1787.3228   -24905.034    -1083.754    152.68433     95.10869    14.558006    27.938653 
   16000     238.7604   -241.86566    204420.41   -23210.975     1732.988   -24943.963   -334.01708    154.33161    95.110064    14.557962    27.947445 
   16200    243.09841   -434.78114    204420.41     -23177.1    1764.4745   -24941.575   -1001.3838      155.832     95.10962    14.554605    27.965971 
   16400    239.06191   -312.67477    204420.41   -23237.863    1735.1765    -24973.04   -590.25236    156.93134    95.110812    14.553221    27.976871 
   16600     243.3731   -198.26092    204420.41   -23164.893    1766.4682   -24931.361   -197.89511    158.22847    95.110529     14.55227    27.955431 
   16800     246.6063   -219.21343    204420.41   -23202.257    1789.9357   -24992.192   -234.39652    159.31789    95.110404    14.553493    27.943626 
   17000     234.4907   -184.42798    204420.41    -23256.76    1701.9974   -24958.757   -114.67939    161.17838    95.109219    14.553278    27.938106 
   17200    239.12179   -362.38022    204420.41   -23222.199    1735.6111    -24957.81   -714.99538    161.86946    95.109059    14.552295    27.923719 
   17400    235.30851   -311.17882    204420.41   -23278.822    1707.9333   -24986.755   -559.26432    162.90067    95.108896    14.553977    27.902277 
   17600    238.76456   -378.41821    204420.41   -23197.017    1733.0183   -24930.035   -819.48702    165.35869    95.107324     14.55414    27.878294 
   17800     242.3817   -259.77247    204420.41   -23230.114    1759.2724   -24989.387    -379.2051    166.68828    95.106933    14.553335    27.874814 
   18000    243.23552   -262.77192    204420.41   -23192.574    1765.4697   -24958.044   -424.08413    167.83187    95.107103    14.552909    27.863656 
   18200    236.52145    -424.3638    204420.41   -23231.088    1716.7371   -24947.825   -976.64098    169.17766    95.105219    14.554791    27.879598 
   18400    244.80926   -177.32335    204420.41   -23202.506    1776.8923   -24979.398   -98.333596    172.02336    95.104729    14.555459    27.886503 
   18600    237.07874   -419.96655    204420.41   -23187.656    1720.7821   -24908.438   -945.49728    172.96663    95.104371    14.555127    27.892321 
   18800     242.8772   -304.69729    204420.41   -23222.169    1762.8689   -24985.038   -561.11238    175.91627    95.103299    14.552404    27.882543 
   19000      241.822   -318.44722    204420.41   -23114.974      1755.21   -24870.184   -598.20728    177.49092    95.102847    14.549924    27.887176 
   19200    237.29776   -171.97682    204420.41   -23166.844    1722.3718   -24889.216   -87.897172     177.5401    95.104156    14.546996    27.886766 
   19400    250.63546    -193.8884    204420.41   -23133.149    1819.1804   -24952.329   -179.68593     179.3578    95.105086    14.545542    27.887892 
   19600    240.47342   -322.58136    204420.41   -23139.559    1745.4216   -24884.981   -599.05388    181.24307    95.105643    14.545245    27.889046 
   19800    248.06644   -358.32281    204420.41   -23129.958    1800.5338   -24930.492   -727.11018    181.24747    95.106491    14.544679    27.886488 
   20000    244.73018   -333.59246    204420.41   -23161.463    1776.3183   -24937.781   -666.03915    182.17946    95.108083    14.542597    27.880405 
   20200    232.28384   -453.11686    204420.41   -23238.102    1685.9794   -24924.081   -1073.6546    182.63521    95.108194    14.541562     27.90174 
   20400    238.37347   -274.30113    204420.41   -23125.438    1730.1796   -24855.618   -419.06478    184.51355    95.108415    14.539939    27.916358 
   20600    235.33314   -311.54446    204420.41   -23203.856     1708.112   -24911.968   -585.72104    186.29185    95.109244    14.537305    27.911389 
   20800    244.78277   -379.51681    204420.41   -23121.222       1776.7   -24897.922   -819.35053    187.32681    95.110012    14.538435    27.929131 
   21000    238.63121    -351.0715    204420.41   -23160.348    1732.0504   -24892.398   -738.90703    188.41125    95.110526    14.538486    27.927083 
   21200    244.31076   -376.69388    204420.41   -23162.537    1773.2741   -24935.811   -827.07025    189.34144    95.110209    14.537964    27.926232 
   21400    237.25303   -354.29769    204420.41   -23177.324    1722.0471   -24899.371   -697.79726    190.82238    95.109575    14.538766    27.945976 
   21600    246.29727   -390.42946    204420.41   -23101.376    1787.6927   -24889.068   -867.09102    192.31098    95.109478    14.538994    27.946857 
   21800     237.9176   -371.09191    204420.41   -23225.685    1726.8707   -24952.556   -798.98546    194.94281    95.110409     14.53509    27.926417 
   22000    239.52932    -340.7046    204420.41    -23251.25     1738.569   -24989.819   -677.15344    196.83888    95.110346    14.533111    27.919025 
   22200    234.56148   -213.04897    204420.41    -23312.72    1702.5111   -25015.231   -223.94708    196.94648    95.110185    14.532438    27.920316 
   22400    235.58293   -355.27764    204420.41   -23164.835    1709.9251    -24874.76   -693.74725    198.26121    95.106731    14.534245    27.915421 
   22600    235.75917     -198.638    204420.41   -23211.936    1711.2043    -24923.14   -236.34999    199.85496     95.10469    14.536148    27.917365 
   22800    243.23694   -354.13087    204420.41    -23183.38      1765.48    -24948.86   -736.38111    202.02148    95.104548    14.535021     27.90794 
   23000    235.80836    -440.9138    204420.41   -23299.199    1711.5613    -25010.76   -1010.1895    202.58226    95.103468    14.535357      27.8869 
   23200    245.29165   -345.50976    204420.41   -23211.125    1780.3936   -24991.519   -656.38848    203.47024    95.103063    14.532058    27.868997 
   23400    236.05358   -351.92532    204420.41   -23206.431    1713.3412   -24919.772   -754.51852    204.73982    95.102714    14.532038    27.865243 
   23600    251.25489   -379.08775    204420.41   -23123.101    1823.6764   -24946.778   -837.00462    206.66786    95.104641    14.529885    27.862588 
   23800    243.55712   -356.13259    204420.41   -23170.716    1767.8039    -24938.52   -730.03853    207.92163    95.104529    14.526793    27.860205 
   24000     234.2434   -401.23203    204420.41   -23221.915    1700.2024   -24922.117   -875.53044    209.17519    95.104042    14.525426    27.865651 
   24200    237.66878   -376.95542    204420.41    -23201.41    1725.0648   -24926.475   -794.35456     210.3832    95.103729    14.524436    27.876847 
   24400    239.59183   -284.26533    204420.41   -23241.907    1739.0228    -24980.93    -489.7501    211.56546    95.103064    14.521636    27.902626 
   24600    241.99325   -247.50685    204420.41   -23272.926     1756.453   -25029.379   -320.00281    213.19605    95.103061    14.520304    27.875996 
   24800    241.15755   -385.01605    204420.41   -23235.966    1750.3872   -24986.353   -831.07524    215.57348    95.103018    14.518633    27.886166 
   25000    240.10763   -441.76817    204420.41   -23240.172    1742.7666   -24982.939   -1008.2245    218.64909    95.102478    14.517339    27.883325 
   25200    234.79969   -308.16277    204420.41   -23385.894    1704.2401   -25090.134   -541.29783    219.82105    95.100647    14.516413    27.900513 
   25400    237.78205   -262.55283    204420.41   -23255.731    1725.8869   -24981.618   -380.73434    221.80564    95.101703    14.517089    27.882389 
   25600    247.63485   -380.27853    204420.41   -23135.248    1797.4012   -24932.649   -780.30209    222.63886    95.104197    14.516726    27.896587 
   25800     242.7781   -396.75489    204420.41   -23194.805    1762.1496   -24956.954   -877.55063    223.72778    95.104347    14.516322     27.89316 
   26000    236.15988   -442.40297    204420.41   -23241.706    1714.1127   -24955.819   -1049.0326     225.9611    95.105649    14.517986    27.868946 
   26200    237.30827   -440.39519    204420.41   -23229.362    1722.4481    -24951.81   -1038.1529    226.96487    95.105843    14.517547    27.887402 
   26400    239.81436   -392.77664    204420.41   -23245.889     1740.638   -24986.527   -835.21628    228.65094    95.106499    14.518321    27.902332 
   26600    243.54434   -342.81054    204420.41   -23151.749    1767.7112    -24919.46   -662.50439    229.74422    95.104505    14.515652     27.91073 
   26800    243.09909   -255.32666    204420.41   -23217.334    1764.4795   -24981.814   -409.22284    231.18186    95.103203    14.513685    27.910131 
   27000    238.46269   -332.38123    204420.41   -23155.511    1730.8272   -24886.338   -645.93854    231.28551    95.101756    14.512421    27.939666 
   27200      241.256   -508.48866    204420.41     -23242.7    1751.1018   -24993.801   -1254.6182    233.16902    95.100831    14.512163    27.946499 
   27400    244.02298   -513.33408    204420.41   -23169.316    1771.1853   -24940.501   -1286.3085     236.3234    95.101457    14.512895    27.958153 
   27600     237.0436   -227.93858    204420.41    -23317.69    1720.5271   -25038.217    -285.1163     238.7481     95.09922    14.512776    27.951724 
   27800    239.29048   -459.35684    204420.41    -23201.74    1736.8355   -24938.575   -1066.2531    239.74646    95.097527    14.510222    27.957914 
   28000    233.28639   -231.60546    204420.41   -23292.004    1693.2562    -24985.26   -313.84051    239.74853    95.096866    14.512647    27.959936 
   28200    235.99212   -239.65292    204420.41   -23243.097    1712.8951   -24955.992   -283.19178    241.67325    95.096563    14.511595    27.957345 
   28400     236.1036   -338.29642    204420.41    -23255.85    1713.7042   -24969.555   -654.12857    242.24829    95.096668    14.509692    27.960492 
   28600    235.03878   -344.36772    204420.41   -23242.899    1705.9755   -24948.874   -700.29034    244.37822    95.093842    14.506755    27.950696 
   28800    241.04282   -260.08204    204420.41   -23270.374    1749.5544   -25019.928    -378.1993    245.39483    95.092365    14.505211    27.929515 
   29000    242.25329   -217.67264    204420.41   -23229.673    1758.3404   -24988.014   -203.52736    248.80978    95.092117    14.502179    27.918863 
   29200    242.72522   -329.59988    204420.41    -23221.84    1761.7658   -24983.606   -601.28641    252.01766    95.091522    14.500492     27.90319 
   29400    239.54042   -394.90548    204420.41    -23227.82    1738.6496   -24966.469   -836.94977    253.00761     95.08995    14.497565    27.889526 
   29600    233.61973   -292.27521    204420.41   -23207.441    1695.6757   -24903.117   -510.57231    255.25031    95.091538    14.498676    27.878827 
   29800    239.09521   -349.39583    204420.41   -23297.668    1735.4182   -25033.086   -690.03632    257.27775    95.092816    14.500401    27.884073 
   30000    233.33879   -278.19842    204420.41   -23357.304    1693.6365    -25050.94   -473.61281    257.45762    95.091511    14.501448     27.88418 
   30200    237.37261   -254.93283    204420.41   -23266.852    1722.9151   -24989.767     -357.882    257.19487    95.091368    14.500948    27.864352 
   30400    240.28199   -476.88634    204420.41   -23238.308    1744.0322    -24982.34   -1199.7782    257.83611    95.090245    14.502673    27.867357 
   30600    239.16022   -193.04545    204420.41    -23317.57      1735.89    -25053.46   -158.50623    257.64732    95.090871    14.503088    27.843928 
   30800    241.31796   -270.00461    204420.41   -23258.779    1751.5515   -25010.331   -415.58659     258.5384    95.092047    14.504035    27.838565 
   31000    243.60249   -341.32663    204420.41   -23275.727    1768.1332    -25043.86   -649.71962    260.48232    95.092147     14.50309    27.827724 
   31200    242.16707   -430.31614    204420.41   -23249.503    1757.7146   -25007.218   -1009.2449    261.04751    95.092405    14.501658    27.827678 
   31400    239.03869   -434.20897    204420.41   -23217.845     1735.008   -24952.853    -988.6992    262.60365      95.0911    14.504462    27.823918 
   31600    237.30071   -318.43794    204420.41   -23243.384    1722.3932   -24965.777   -662.20312    263.73452    95.090928    14.506888    27.818862 
   31800    237.19874   -287.06937    204420.41   -23142.148    1721.6531   -24863.801   -464.31719    263.56275    95.090489    14.510895    27.828014 
   32000     242.0257   -440.37096    204420.41   -23220.566    1756.6884   -24977.255   -996.47503     263.7622    95.089653    14.516098    27.818412 
   32200    239.75036   -444.61039    204420.41   -23248.049    1740.1734   -24988.222   -1037.5273    265.24872    95.089605    14.518923    27.820929 
   32400    242.19899   -346.20796    204420.41   -23260.752    1757.9462   -25018.699   -677.48933    267.32048    95.091065     14.52024    27.833261 
   32600    238.26784   -369.24444    204420.41   -23164.062    1729.4129   -24893.474   -730.23123    268.54855    95.090467    14.522898    27.843194 
   32800    246.84133   -119.38422    204420.41   -23168.228    1791.6416   -24959.869    130.94291    269.17604    95.091232    14.524114    27.830888 
   33000    245.99291   -363.89167    204420.41   -23154.176    1785.4835    -24939.66   -746.05299    271.24012    95.090322    14.520224    27.839258 
   33200    234.97274   -343.87106    204420.41   -23208.811    1705.4962   -24914.307   -653.29401    272.89659     95.09115    14.519351     27.81871 
   33400    238.85765   -282.64763    204420.41   -23222.152    1733.6939   -24955.846   -467.70109    273.34476    95.089646     14.51856    27.821011 
   33600    237.46094   -209.59159    204420.41   -23228.433    1723.5562   -24951.989    -206.2898    275.47165    95.090431     14.51902    27.824745 
   33800    244.77512   -149.43681    204420.41   -23083.974    1776.6445   -24860.619   -35.257283    277.28958    95.088068     14.51764    27.802062 
   34000    239.51442   -245.64694    204420.41   -23209.322    1738.4609   -24947.783    -312.5687     278.9176    95.087019    14.516119    27.815032 
   34200    244.36897   -360.79576    204420.41    -23190.02    1773.6966   -24963.717   -708.38437     280.1313    95.087433     14.51346    27.795933 
   34400     234.6328   -309.57444    204420.41   -23246.733    1703.0288   -24949.762   -585.11274    282.71356    95.087201    14.511924    27.814772 
   34600    245.79599   -376.29647    204420.41   -23111.809    1784.0543   -24895.864   -807.93581    285.25926     95.08738    14.513746    27.807902 
   34800     234.2285   -256.92589    204420.41   -23202.393    1700.0943   -24902.487   -369.71711    285.73499    95.089498    14.514648    27.800478 
   35000    236.24955   -255.48165    204420.41   -23207.375    1714.7636   -24922.139   -339.99651    287.39465    95.089911    14.514759    27.802039 
   35200    250.92581   -287.29666    204420.41   -23142.757    1821.2879   -24964.045   -481.62438    288.41988    95.087815    14.515118    27.790117 
   35400    235.92629   -551.52449    204420.41     -23151.3    1712.4173   -24863.717    -1434.915    290.18241    95.088784    14.515873    27.805853 
   35600    243.83328   -181.83705    204420.41   -23153.496    1769.8084   -24923.305   -88.131204    291.34507    95.088988    14.519039    27.806413 
   35800    246.22229   -482.84069    204420.41    -23078.58    1787.1485   -24865.729   -1158.8265    293.67152    95.089769    14.523838    27.808481 
   36000    234.87898   -226.85112    204420.41   -23195.964    1704.8156   -24900.779   -275.59899     293.3273    95.089105     14.52462    27.817078 
   36200    231.17919   -324.11585    204420.41   -23214.316    1677.9616   -24892.277   -594.02568     293.5799    95.089027    14.526523    27.824384 
   36400     240.6923   -328.38785    204420.41   -23191.052    1747.0103   -24938.062   -624.13419    296.34268    95.087456    14.530551    27.809943 
   36600    239.08943   -424.91367    204420.41   -23157.178    1735.3763   -24892.555    -921.7411    297.45011    95.087044    14.529697    27.795741 
   36800    237.63557   -183.28091    204420.41   -23246.712    1724.8237   -24971.536    -168.5824    300.17445    95.085494    14.530551    27.783291 
   37000    242.21138   -159.68569    204420.41    -23250.41    1758.0362   -25008.446   -13.997793    301.66071    95.085352    14.532238    27.778376 
   37200    239.51866   -384.60517    204420.41   -23254.532    1738.4917   -24993.024   -848.39236    304.42728    95.085683    14.531931    27.788947 
   37400    238.04369   -233.70526    204420.41   -23272.898     1727.786   -25000.684   -299.80284    305.40979    95.084661    14.531676    27.806889 
   37600    235.83141   -302.55769    204420.41   -23290.754    1711.7286   -25002.483   -536.20678     308.0084    95.085852    14.531598    27.827012 
   37800    238.50872   -280.79778    204420.41    -23317.54    1731.1613   -25048.702    -440.5786    308.75112    95.084878    14.531611    27.838542 
   38000    247.19412   -409.77239    204420.41   -23242.535    1794.2023   -25036.737   -910.62339    311.41599     95.08448    14.531501    27.861936 
   38200    240.81051   -349.36685    204420.41   -23265.804    1747.8683   -25013.672   -681.67773    311.74055    95.082978    14.534001    27.860828 
   38400    243.16022   -222.54169    204420.41   -23190.365    1764.9231   -24955.288   -276.43889    313.08007    95.083589     14.53829    27.865758 
   38600    234.92883   -274.96777    204420.41   -23241.119    1705.1775   -24946.297   -394.98391    314.67292    95.082682    14.538003    27.869012 
   38800    240.39187    -504.7591    204420.41   -23180.721    1744.8297   -24925.551   -1190.9946    316.18799     95.08003     14.53993     27.86471 
   39000    240.51028   -222.69929    204420.41   -23140.203    1745.6891   -24885.892    -259.5271    316.79813    95.079263     14.54418    27.858726 
   39200    235.27254   -441.03816    204420.41   -23252.162    1707.6722   -24959.834   -997.07971    318.23228    95.080008    14.542111    27.858223 
   39400    244.13218   -377.84001    204420.41   -23203.713    1771.9779   -24975.691   -808.73824    321.29786    95.078612    14.542211     27.85503 
   39600    243.83082   -284.98131    204420.41   -23169.439    1769.7905    -24939.23   -468.85347    322.61321    95.077133    14.542553    27.814015 
   39800    242.75547   -302.04857    204420.41   -23267.255    1761.9853    -25029.24   -501.71414    323.71515    95.078523    14.539834     27.81006 
   40000      243.766   -425.29699    204420.41   -23231.784    1769.3201   -25001.104   -986.97892    325.69597    95.079753    14.536611    27.813725 
   40200    243.46389    -394.7158    204420.41   -23232.512    1767.1272   -24999.639   -837.68556    326.61153    95.080344    14.537391    27.810442 
   40400    236.28612   -537.88328    204420.41   -23296.936    1715.0291   -25011.965   -1358.4323    329.76768    95.079397    14.537313    27.813394 
   40600    241.30011   -57.246236    204420.41   -23185.203     1751.422   -24936.625    320.89835    332.56946     95.07865    14.534646    27.809464 
   40800    241.77162   -290.26531    204420.41   -23251.968    1754.8443   -25006.813   -449.45958    332.61526    95.080155    14.534457    27.812039 
   41000    236.17672   -210.95084    204420.41   -23266.254     1714.235   -24980.489   -276.88208    332.94933    95.081063     14.53652    27.796312 
   41200    242.29159   -319.19199    204420.41   -23141.316    1758.6184   -24899.935   -591.12205    333.05868    95.079239    14.536271    27.804572 
   41400    238.24303   -292.73346    204420.41   -23169.278    1729.2328   -24898.511    -509.2353    335.78496    95.078242     14.53629    27.806088 
   41600    242.08305   -316.54614    204420.41   -23131.452    1757.1048   -24888.557   -566.43729    335.54666    95.078272    14.534611    27.793677 
   41800    243.66116   -265.45229    204420.41   -23141.981    1768.5591    -24910.54   -410.15658     336.7935    95.076134    14.532478     27.79754 
   42000    240.06926   -501.70857    204420.41   -23205.004    1742.4881   -24947.492   -1199.0203      339.144    95.075322    14.533619    27.811757 
   42200    238.84883   -325.95358    204420.41   -23268.248    1733.6299   -25001.878   -618.09122    339.79234    95.073954    14.538473    27.821317 
   42400    235.02651   -396.04404    204420.41   -23196.097    1705.8864   -24901.984   -847.06471    341.23408    95.072234    14.540897    27.828852 
   42600    241.93742   -349.93277    204420.41   -23185.978    1756.0477   -24942.025   -690.48189    341.86786    95.071733     14.54204    27.816643 
   42800    244.03378   -294.49652    204420.41   -23158.655    1771.2637   -24929.919   -457.43899    343.26021    95.070434     14.54076     27.79392 
   43000    236.05547   -221.71258    204420.41    -23201.98    1713.3549   -24915.335   -240.97264    344.08236    95.070589     14.54039    27.807037 
   43200    234.64148   -475.04194    204420.41   -23203.597    1703.0918   -24906.689   -1094.6878    345.99966    95.070387    14.539976    27.794654 
   43400    242.17387   -287.00469    204420.41   -23205.736    1757.7639     -24963.5   -427.05225    347.92854    95.070235    14.542266    27.814526 
   43600    240.48238   -237.61471    204420.41   -23241.727    1745.4867   -24987.214   -297.61379    350.04681     95.07166    14.543467    27.814368 
   43800    235.16461    -287.1508    204420.41   -23262.348    1706.8888   -24969.237   -416.34288    350.95993    95.071275    14.539453    27.807553 
   44000    237.58986   -455.66646    204420.41   -23328.179    1724.4919    -25052.67   -1044.5231    350.30482      95.0702    14.537053    27.826696 
   44200    236.63016   -233.30392    204420.41   -23272.807    1717.5262   -24990.333   -263.11315    351.18104    95.070237    14.535475    27.852035 
   44400    237.08934    -240.4447    204420.41   -23297.017     1720.859   -25017.876   -333.89145    351.82298    95.070599    14.532164    27.858037 
   44600    236.22276   -390.23605    204420.41   -23283.387    1714.5692   -24997.956   -832.81205    353.88487    95.069019     14.53272    27.852902 
   44800    241.59248   -353.32077    204420.41   -23236.603     1753.544   -24990.147   -682.63618    356.72512    95.068565    14.534766    27.838419 
   45000    237.33122   -234.84048    204420.41   -23208.765    1722.6146    -24931.38   -318.11735    358.22926     95.06803    14.535099    27.841392 
   45200    236.92646   -339.62951    204420.41   -23185.253    1719.6768    -24904.93   -673.97226    359.80905    95.068662    14.536763    27.833241 
   45400    237.70903   -456.38155    204420.41   -23228.006    1725.3569   -24953.362   -1037.4111    359.29036    95.068004    14.535737    27.850663 
   45600    240.42036   -633.15745    204420.41   -23139.471    1745.0365   -24884.508   -1721.6228    361.93458    95.069367    14.536349    27.860507 
   45800    244.20897    -361.3257    204420.41   -23175.707    1772.5352   -24948.243    -730.2098    362.21206    95.069571    14.535326    27.840203 
   46000     244.1586   -350.25239    204420.41   -23133.998    1772.1696   -24906.168   -700.32793    364.01091    95.069988    14.534565    27.853957 
   46200    247.02798   -252.99335    204420.41   -23124.239    1792.9964   -24917.235   -334.13259     363.5988    95.070962    14.534775    27.825076 
   46400    237.99055   -468.68264    204420.41   -23214.519    1727.4003   -24941.919    -1065.789    365.10253    95.069031    14.536519     27.80946 
   46600     234.1374   -291.41904    204420.41   -23228.765     1699.433   -24928.198   -478.91678    368.30777    95.066622    14.534643    27.813567 
   46800    236.59417   -463.35187    204420.41   -23174.281     1717.265   -24891.546   -1121.8726    370.13431    95.067779    14.535924    27.820644 
   47000    235.92564   -434.74278    204420.41   -23130.388    1712.4126   -24842.801   -1027.1489    371.83687    95.067584    14.533984     27.83447 
   47200    235.69512   -346.60933    204420.41   -23245.152    1710.7394   -24955.892   -667.41932    370.47982     95.06901    14.533168    27.849897 
   47400    242.05798   -194.44107    204420.41   -23177.843    1756.9228   -24934.766   -174.85608    371.98814    95.069366    14.532973    27.859328 
   47600    235.78752   -169.22432    204420.41   -23196.366    1711.4101   -24907.776   -31.840914    374.01924    95.069094     14.53174    27.861397 
   47800    231.55391   -512.98994    204420.41   -23215.781    1680.6814   -24896.463   -1288.0613    377.15184    95.070199    14.532421    27.882644 
   48000     232.8392   -418.23752    204420.41   -23198.171    1690.0104   -24888.181   -892.03723    376.87303    95.071845    14.531269    27.879194 
   48200    237.46446   -189.86588    204420.41    -23218.04    1723.5817   -24941.622   -130.68338    376.73694    95.071853    14.531946    27.881544 
   48400    238.21069   -363.24956    204420.41   -23212.166    1728.9981   -24941.164   -748.46359    379.43539    95.071031    14.533958    27.901107 
   48600    239.83619   -427.72638    204420.41    -23275.47    1740.7964   -25016.266   -985.95717    381.63667    95.069716    14.529797    27.903524 
   48800    240.92681   -439.99468    204420.41   -23272.403    1748.7124   -25021.115   -982.46286    380.84019    95.068659    14.526637    27.919935 
   49000    231.09971   -262.13836    204420.41   -23288.789    1677.3847   -24966.174   -389.19305    383.22249    95.066855    14.526053    27.945883 
   49200    236.48112   -301.94187    204420.41   -23221.705    1716.4444   -24938.149    -555.8325    386.06707    95.066548    14.529016    27.952185 
   49400    232.80043   -437.05384    204420.41   -23259.225     1689.729   -24948.954   -1008.6078    387.05324     95.06572    14.529948     27.94707 
   49600    238.74128   -417.05308    204420.41   -23203.252    1732.8492   -24936.101   -929.04719    389.26519      95.0661    14.533012    27.933687 
   49800    241.45544   -190.19685    204420.41   -23218.918    1752.5494   -24971.467   -137.55267    390.34398    95.066077    14.533909    27.921046 
   50000    234.53569   -427.46061    204420.41   -23226.502     1702.324   -24928.826   -939.40758    390.52301    95.066042    14.534089    27.917967 
   50200    241.63336   -374.13306    204420.41   -23163.784    1753.8408   -24917.625    -816.1349    391.17956    95.064918    14.535043    27.911829 
   50400    241.87929   -226.74762    204420.41   -23215.881    1755.6258   -24971.507   -294.48768    391.33265    95.066192    14.534505       27.913 
   50600     247.5391   -282.22172    204420.41   -23129.136    1796.7062   -24925.842   -503.68913    390.32625     95.06751    14.535958     27.90434 
   50800    232.26325    -514.6775    204420.41   -23305.473    1685.8299   -24991.303   -1240.8947    391.50708    95.068658    14.538717    27.923589 
   51000    240.42442   -282.33903    204420.41   -23251.905     1745.066   -24996.971   -462.87772    390.98034    95.068407     14.54058    27.949068 
   51200    237.93954   -207.05087    204420.41    -23243.58      1727.03    -24970.61   -222.40182    392.19995    95.069271    14.538752    27.941778 
   51400    234.45172   -595.67976    204420.41   -23218.508    1701.7144   -24920.223   -1574.6192    395.81064    95.071724     14.53318    27.924631 
   51600    236.80635   -244.30097    204420.41   -23245.596     1718.805   -24964.401   -323.99057    396.86435    95.071069    14.535482    27.932911 
   51800    236.27338   -106.18843    204420.41   -23216.439    1714.9365   -24931.376    154.95883    397.17919    95.068822    14.536764    27.935603 
   52000      237.981   -457.92651    204420.41   -23274.538     1727.331   -25001.869    -1050.298    398.71901    95.068091    14.533557    27.924233 
   52200    237.47088   -289.07471    204420.41   -23313.181    1723.6283   -25036.809   -491.90876    400.19898    95.066865    14.529234    27.919397 
   52400    236.09809   -231.86273    204420.41   -23372.596    1713.6642    -25086.26   -263.58107    401.58749    95.064371    14.527817    27.911714 
   52600    240.77781   -325.86795    204420.41   -23241.906    1747.6309   -24989.537    -565.9159    401.94422    95.063511    14.528023    27.902228 
   52800    243.08934   -268.02537    204420.41   -23150.573    1764.4086   -24914.982   -404.83412    400.69847    95.063307    14.528786    27.905192 
   53000    239.21319   -367.96971    204420.41   -23114.568    1736.2745   -24850.843   -768.18456    399.97066    95.062816    14.528003    27.909502 
   53200    238.75703    -460.7783    204420.41   -23194.449    1732.9636   -24927.412   -1109.6571    401.45176    95.062441    14.526576    27.902706 
   53400    242.54475   -263.75727    204420.41   -23200.539    1760.4559   -24960.995   -437.45886    402.03055    95.063326    14.526453    27.906562 
   53600    237.92009   -322.43536    204420.41    -23277.25    1726.8888   -25004.139   -590.01659     403.7291    95.062248    14.524284     27.88706 
   53800    235.85886   -449.55212    204420.41   -23249.485    1711.9279   -24961.413   -1037.2636    406.64268    95.061441     14.52259    27.875936 
   54000    237.26934   -373.32878    204420.41    -23215.05    1722.1655   -24937.215   -764.97746    405.80611    95.063236    14.524701    27.868231 
   54200    240.03566   -394.51089    204420.41   -23183.631    1742.2442   -24925.875   -869.72588    408.29104    95.063975    14.527013    27.868217 
   54400    241.90172    -207.5193    204420.41   -23126.196    1755.7886   -24881.984   -233.94689    410.43298     95.06443    14.526401     27.86778 
   54600    248.14979   -226.23538    204420.41   -23183.714    1801.1388   -24984.853   -251.93628    412.40057    95.066129    14.525535    27.876897 
   54800    237.80819   -381.98949    204420.41   -23152.197    1726.0766   -24878.274   -816.40405    414.27858     95.06772    14.524059    27.878734 
   55000    244.93255   -332.98392    204420.41   -23131.906    1777.7872   -24909.693   -633.45733    414.64085    95.068881    14.525204     27.87329 
   55200    236.60602   -495.12961    204420.41   -23303.725     1717.351   -25021.076   -1182.3792    416.99751    95.071228    14.528431    27.895923 
   55400    240.73279   -167.47327    204420.41   -23267.257    1747.3042   -25014.561   -37.613497    416.79551    95.071804    14.527624    27.908929 
   55600    238.70069   -303.55392    204420.41   -23227.479    1732.5547   -24960.034   -512.12058    415.91047    95.072338    14.524913    27.928806 
   55800     250.6247   -266.98788    204420.41   -23107.774    1819.1023   -24926.876    -435.2939    417.83543    95.074913    14.521176    27.935873 
   56000    236.19119   -358.36997    204420.41   -23128.431      1714.34   -24842.771    -726.7011    420.21579    95.075678    14.519554    27.935512 
   56200    244.49527   -341.31047    204420.41   -23155.107    1774.6133    -24929.72   -681.54827    419.56444    95.076242    14.517878    27.932461 
   56400    237.30096   -257.14706    204420.41   -23277.817     1722.395   -25000.212   -387.95728    420.49489    95.076598    14.518254    27.938094 
   56600    230.76689   -102.07092    204420.41   -23382.725     1674.969   -25057.694    178.61862     423.0502    95.078073    14.518172    27.929583 
   56800    242.78649   -460.29841    204420.41   -23267.191    1762.2105   -25029.402   -1082.2183    426.41919    95.080176    14.519156    27.931843 
   57000    227.62132   -376.47893    204420.41   -23310.313    1652.1375   -24962.451   -795.27527    428.51183    95.083384    14.517492    27.943706 
   57200    247.04827    -270.5679    204420.41   -23193.186    1793.1437    -24986.33   -390.55148    431.30509    95.084912    14.520248    27.965116 
   57400    237.05902   -428.84583    204420.41   -23252.874     1720.639   -24973.513   -943.41905    431.82735    95.084222    14.519634     27.96101 
   57600    238.62172   -375.86344    204420.41   -23282.682    1731.9814   -25014.664    -821.7577    431.20521    95.082515    14.518018    27.971113 
   57800    241.61587   -323.27002    204420.41   -23265.817    1753.7138   -25019.531   -612.77792    433.14211    95.082131    14.516887     27.97604 
   58000    241.60806   -313.13551    204420.41   -23285.394    1753.6571   -25039.052     -572.006    434.52374    95.081461    14.514949     28.00118 
   58200    242.67855   -360.43997    204420.41   -23204.778    1761.4271   -24966.205   -732.90015     434.0388    95.081826    14.513222    28.021279 
   58400    237.05405    -372.0745    204420.41   -23229.222    1720.6029   -24949.824    -786.6573    433.38196     95.07859    14.512903    28.041035 
   58600    237.88399   -429.95188    204420.41   -23267.844    1726.6268   -24994.471   -957.16129    434.09448    95.076101    14.516727    28.016504 
   58800    239.27502    -330.4333    204420.41   -23215.493    1736.7233   -24952.217   -611.33892    433.80636    95.073765    14.521918    28.006459 
   59000     240.6072   -282.75185    204420.41   -23189.005    1746.3926   -24935.397   -458.40014    436.92989     95.07315    14.527816    28.005053 
   59200    234.03779   -415.58323    204420.41   -23224.274    1698.7101   -24922.984   -885.88483    440.32723     95.07532    14.528718    28.014434 
   59400    233.14986   -465.35505    204420.41   -23260.808    1692.2652   -24953.074   -1056.9335    440.52749    95.076405    14.529628    28.005081 
   59600    234.51151   -102.79947    204420.41   -23314.558    1702.1484   -25016.707    176.17613     440.9563    95.076909    14.525688    28.014231 
   59800    240.27022   -152.60918    204420.41    -23258.26    1743.9467   -25002.207     5.305087    442.89635    95.076475    14.523625    28.005332 
   60000    237.93813   -427.70985    204420.41   -23231.547    1727.0198   -24958.567   -932.85527    441.73528     95.07612    14.520941    28.009287 
   60200    238.58584   -366.53182    204420.41   -23228.559     1731.721    -24960.28   -762.29682    443.21801    95.074239    14.524845    27.991995 
   60400    243.95359   -290.13238    204420.41   -23220.964    1770.6816   -24991.646   -483.64473    446.47827    95.076138    14.525406    27.980837 
   60600    240.42703   -393.67427    204420.41   -23221.878    1745.0849   -24966.963   -882.26012    450.01353    95.077511     14.52857     27.97652 
   60800    241.54584   -479.86954    204420.41   -23129.975    1753.2055   -24883.181   -1132.3017    451.55591     95.07762    14.532583    27.985737 
   61000    241.82835   -539.31428    204420.41   -23227.117     1755.256   -24982.373   -1329.3728    452.71884    95.077444    14.529119    27.967711 
   61200    244.04621    -300.0738    204420.41   -23194.167    1771.3539   -24965.521   -530.98933    455.28606    95.078459    14.525924    27.971815 
   61400    241.97949   -543.21399    204420.41   -23234.145    1756.3531   -24990.498   -1302.2397    456.39858    95.078419    14.527314    27.955613 
   61600    237.92456   -402.92144    204420.41   -23240.822    1726.9213   -24967.744   -848.58618    457.47285    95.078368    14.528095    27.948597 
   61800    242.85575   -331.29967    204420.41   -23294.827    1762.7132    -25057.54   -605.37204    457.70289    95.078809    14.527787    27.925443 
   62000    239.86006   -225.16003    204420.41   -23232.393    1740.9697   -24973.362   -276.72376    461.30055    95.078029    14.528787    27.914763 
   62200    240.25911   -397.88182    204420.41   -23222.379    1743.8661   -24966.245   -868.19053    464.30077    95.077615    14.525953    27.931191 
   62400    236.98197   -362.31277    204420.41   -23283.001    1720.0797   -25003.081   -725.54619    464.65515    95.075778    14.526088    27.950327 
   62600    240.78375   -448.39591    204420.41   -23312.723    1747.6741   -25060.397   -1020.4328    467.04879    95.076095    14.527946    27.967815 
   62800    228.29082   -519.29814    204420.41    -23350.59     1656.997   -25007.587   -1315.9744    466.94287    95.077597    14.529419    27.989397 
   63000    241.91151     -610.691    204420.41   -23242.434    1755.8597   -24998.294   -1582.4638    468.81199    95.076927    14.531738     27.99147 
   63200    239.39153   -259.18475    204420.41   -23285.152    1737.5689   -25022.721   -373.64252    468.68483    95.077248     14.53218    28.014352 
   63400    237.56981   -347.54717    204420.41   -23368.746    1724.3464   -25093.092   -701.40184    469.80319    95.076469    14.532318    28.023805 
   63600    240.93086   -377.02297    204420.41   -23358.384    1748.7418   -25107.125   -772.36735    472.81335    95.075398    14.530408    27.993852 
   63800    237.25821   -413.04627    204420.41   -23378.786    1722.0847   -25100.871   -901.65184    475.01051    95.075027    14.532449    28.009062 
   64000    245.27887   -378.45612    204420.41   -23249.166    1780.3009   -25029.467   -810.25764     474.2631    95.073995    14.534238    27.997031 
   64200       245.33   -405.24946    204420.41   -23251.213     1780.672   -25031.885   -887.07311    476.61414    95.074575    14.533537    28.002272 
   64400    234.05238   -514.27844    204420.41   -23314.257    1698.8159   -25013.073   -1252.6533    477.73665    95.074676    14.534656    27.983438 
   64600    232.38557   -246.76437    204420.41   -23331.485    1686.7178   -25018.203   -292.82839    478.92981    95.073093    14.537665    27.974696 
   64800    239.79638    -198.0252    204420.41   -23334.992    1740.5075   -25075.499   -131.89175    481.30256    95.072991    14.539119    27.990706 
   65000    241.29838   -240.56232    204420.41   -23220.391    1751.4094     -24971.8   -294.17605    484.05702    95.073092    14.539684    27.990566 
   65200    239.61373   -385.18587    204420.41   -23282.389    1739.1818   -25021.571   -806.20012    484.66472    95.074838    14.541266    28.006196 
   65400    238.04183    -166.0122    204420.41   -23283.519    1727.7724   -25011.292    -100.9577    485.03503    95.073008    14.541292    28.012434 
   65600    243.92793   -217.10106    204420.41   -23173.887    1770.4954   -24944.382   -233.90151     486.6347    95.072735    14.537558    28.008653 
   65800    235.83478   -395.23267    204420.41   -23225.494    1711.7531   -24937.247   -844.80607    488.45683    95.070372    14.536131    28.008616 
   66000    241.47697   -165.63924    204420.41   -23201.293    1752.7056   -24953.999    -57.09804    490.94481    95.071717     14.53477    28.023833 
   66200    231.88787   -426.43363    204420.41   -23249.276    1683.1054   -24932.382   -938.04276    493.50646    95.071186    14.533655    28.029628 
   66400    245.55998   -349.53679    204420.41   -23241.256    1782.3412   -25023.598   -723.01959    491.52367    95.071293    14.533025    28.009501 
   66600    234.59925   -549.60574    204420.41   -23284.818    1702.7853   -24987.603   -1391.6923    490.96728    95.071969    14.535559    27.997978 
   66800    240.17522   -131.30553    204420.41   -23271.462    1743.2572   -25014.719    39.169509    492.15143    95.072683    14.536411    28.000727 
   67000    235.62648   -370.94242    204420.41   -23343.796    1710.2412   -25054.037   -776.95619     493.3791    95.072849     14.54002    28.016791 
   67200    232.18962   -270.25982    204420.41   -23247.606    1685.2955   -24932.901   -419.36111    494.96869    95.074911    14.541868     28.03308 
   67400    233.33838   -73.369033    204420.41   -23199.793    1693.6335   -24893.427    262.37751    497.59658    95.077506    14.543935    28.040977 
   67600    241.59415   -366.48882    204420.41   -23179.687    1753.5562   -24933.243     -766.145    497.77278    95.078554    14.542918    28.042559 
   67800    236.75509    -439.8024    204420.41   -23210.373    1718.4329   -24928.806   -1030.3766    498.39749    95.077953     14.54297    28.037095 
   68000    237.93594   -169.76491    204420.41   -23308.054    1727.0039   -25035.058    -120.0622    498.32843    95.077396    14.541577    28.026467 
   68200    236.06862   -297.08236    204420.41   -23257.501    1713.4503   -24970.951   -479.50511    498.38866    95.077203    14.539388    28.025126 
   68400    237.84438   -385.75726    204420.41   -23202.739    1726.3394   -24929.079   -863.91366     499.5377    95.076434    14.537069      28.0259 
   68600      236.211   -323.63658    204420.41   -23261.534    1714.4838   -24976.018   -579.87125    500.39114    95.078567    14.537958    28.041569 
   68800    241.16386   -366.98127    204420.41   -23211.539     1750.433   -24961.972   -780.81501    503.20904    95.080444    14.538276    28.044646 
   69000    245.22246   -323.45956    204420.41   -23211.068    1779.8914   -24990.959   -668.41952    504.03185    95.081148    14.533993    28.047703 
   69200    233.82447   -254.33792    204420.41   -23284.248    1697.1617    -24981.41   -369.43141    506.93559    95.082059     14.53323    28.049583 
   69400    230.60939   -388.63336    204420.41   -23284.847    1673.8258   -24958.673   -793.36366    507.02926    95.083109    14.532942    28.031485 
   69600    246.47348   -496.06196    204420.41   -23153.418    1788.9717    -24942.39    -1213.572    507.36659    95.083374    14.530467    28.032115 
   69800    243.39118   -327.85469    204420.41   -23209.182    1766.5995   -24975.782   -634.89823    507.93768    95.082486    14.529919    28.009028 
   70000    238.54751    -291.0053    204420.41   -23238.793    1731.4428   -24970.236   -518.85304    508.37539    95.080486    14.527441    27.994863 
   70200    249.06304   -302.56775    204420.41     -23179.4    1807.7674   -24987.168   -533.91987    509.84369    95.080984     14.52495    27.998981 
   70400    240.27477   -254.64834    204420.41    -23181.01    1743.9798    -24924.99   -373.74807    512.63645    95.080887    14.524634    27.990634 
   70600    238.77095   -438.13343    204420.41   -23251.129    1733.0646   -24984.193   -997.64668    515.14159    95.081794    14.525963    27.998498 
   70800      241.286   -382.84909    204420.41   -23236.813    1751.3195   -24988.133   -799.85589    513.71308    95.081855    14.524722    27.969427 
   71000    236.47921    -284.7623    204420.41    -23249.51    1716.4306   -24965.941   -463.91993    518.32472    95.084573    14.528001    27.994454 
   71200    236.82014   -419.16378    204420.41   -23273.349    1718.9051   -24992.255   -997.90342    522.25062     95.08704    14.529788    27.991482 
   71400    242.33907   -213.22133    204420.41   -23323.174     1758.963   -25082.137   -228.62559     523.8607    95.088669    14.533094    27.993014 
   71600    249.05189   -335.32509    204420.41   -23243.507    1807.6865   -25051.194   -615.19908    525.57583    95.088418    14.532106    27.985813 
   71800    233.63581   -515.60577    204420.41   -23347.443    1695.7924   -25043.235   -1255.7036    527.27378    95.088724    14.532469    27.987677 
   72000    233.90417   -340.71118    204420.41   -23374.104    1697.7402   -25071.845    -636.3486    526.60149    95.090443    14.534756    27.972621 
   72200    234.98181   -334.07424    204420.41   -23202.344     1705.562   -24907.906   -679.22834    525.19227    95.092297    14.533994    27.954693 
   72400    237.54873   -206.36117    204420.41   -23252.112    1724.1934   -24976.305   -198.24855    522.76602    95.093223     14.53388     27.93918 
   72600    246.49773   -162.96266    204420.41   -23225.105    1789.1477   -25014.253   -60.688073    523.48329    95.093557    14.534065     27.93449 
   72800     240.6093   -602.91129    204420.41   -23239.767    1746.4078   -24986.175   -1555.0783    529.02032    95.091533    14.534016    27.930904 
   73000    238.66041   -315.07135    204420.41   -23309.262    1732.2623   -25041.524    -539.0807    528.11234     95.09133    14.533513    27.924686 
   73200    236.85386   -401.17338    204420.41    -23252.61    1719.1498    -24971.76   -868.80937    529.73882    95.091513    14.531362     27.92074 
   73400    242.94468   -273.26001    204420.41   -23173.538    1763.3587   -24936.897   -433.46852    532.16257    95.091312    14.531644    27.932097 
   73600    244.20302   -416.95445    204420.41   -23213.326     1772.492   -24985.818   -932.97881    535.26057    95.093376    14.535398    27.962685 
   73800    233.22175   -456.01622    204420.41   -23273.959     1692.787   -24966.746   -1045.5652    534.83903    95.096302    14.535189    27.956081 
   74000    234.32569   -386.92396    204420.41   -23262.887    1700.7997   -24963.687   -817.96545    537.88466    95.096406    14.536449    27.963234 
   74200    237.99876   -282.72437    204420.41   -23119.686    1727.4598   -24847.146   -491.75344    539.44025    95.094795    14.539104    27.958111 
   74400      245.727    -521.3526    204420.41   -23139.943    1783.5535   -24923.497   -1280.6151    539.90857     95.09421    14.540417     27.95044 
   74600    241.88679   -215.46247    204420.41   -23163.202    1755.6802   -24918.883   -189.11083    538.47475    95.095005    14.544365    27.965492 
   74800    237.60567   -351.95451    204420.41   -23187.507    1724.6067   -24912.114   -706.67373    540.78187    95.096603    14.545267    27.985386 
   75000     235.3394   -464.17621    204420.41   -23167.023    1708.1575   -24875.181   -1105.2434    545.18354    95.096072    14.544866    27.999369 
   75200    238.15068   -243.70372    204420.41   -23134.496    1728.5625   -24863.059   -308.65569     545.4285    95.096539    14.543502    28.001641 
   75400    232.46657   -589.43491    204420.41   -23238.484    1687.3057    -24925.79   -1533.4723    546.53421    95.097182    14.542471    27.993058 
   75600    237.49141   -326.45028    204420.41   -23192.755    1723.7774   -24916.533   -623.50702    547.07459    95.099125    14.541831     28.00587 
   75800    240.64713   -341.53292    204420.41   -23149.903    1746.6825   -24896.586   -699.19929    547.87781    95.100682    14.538885    28.015551 
   76000    247.18834   -310.25489    204420.41   -23164.898    1794.1603   -24959.058   -561.50852    549.68503     95.09924    14.539808    27.992656 
   76200    234.63242   -383.02746    204420.41   -23257.473     1703.026   -24960.499   -851.81725    554.14142    95.099355    14.538915    28.014973 
   76400    238.72901   -282.76358    204420.41   -23245.849    1732.7602    -24978.61   -466.98688    555.51454    95.098828    14.539311    28.036724 
   76600    236.48736   -428.01315    204420.41    -23209.91    1716.4897     -24926.4   -958.45429    557.45251    95.097445    14.541566    28.015602 
   76800    240.24869    -158.0887    204420.41   -23199.881    1743.7905   -24943.672   -40.611302    558.67307    95.095854    14.539824    28.017763 
   77000    241.62267   -376.32588    204420.41   -23207.615    1753.7632   -24961.378   -754.66204    562.18035    95.096076    14.536293    28.006013 
   77200    240.65054   -245.71989    204420.41   -23194.499    1746.7072   -24941.206   -334.83881    566.82383    95.096864    14.535335    28.023369 
   77400    240.80946   -92.315663    204420.41   -23216.146    1747.8607   -24964.006    231.62042     569.3934    95.097149    14.536414    28.014721 
   77600    232.86004   -143.81441    204420.41   -23250.982    1690.1616   -24941.143    22.338994    573.80483    95.095973    14.535766    28.008068 
   77800    240.41471   -408.18543    204420.41   -23241.432    1744.9955   -24986.428   -929.68716    576.41842    95.095698    14.538777    27.993613 
   78000    237.38217   -413.06842    204420.41   -23254.858    1722.9845   -24977.842   -947.85131    577.98548    95.094584    14.540724    27.997322 
   78200    238.09798   -580.94162    204420.41    -23236.39      1728.18    -24964.57   -1524.9087    579.56688    95.095228    14.542168    27.969231 
   78400    242.54529   -157.98205    204420.41   -23171.731    1760.4598   -24932.191   -60.087111    580.68388    95.095556    14.540463    27.957563 
   78600    237.63131   -323.66367    204420.41   -23195.565    1724.7928   -24920.358    -639.3665    585.03765    95.093468    14.540991    27.969635 
   78800    237.01959   -368.14304    204420.41   -23136.132    1720.3528   -24856.485   -802.36041    582.99145    95.090816    14.541402    27.954409 
   79000    238.40909   -188.49548    204420.41   -23172.283    1730.4382   -24902.721   -138.87237    584.38998    95.089147    14.542699    27.965213 
   79200     246.2754   -513.02703    204420.41   -23129.805    1787.5339   -24917.339   -1236.3366    586.58163     95.08856    14.540057    27.940464 
   79400    243.08396   -226.63253    204420.41   -23151.646    1764.3696   -24916.016   -249.72083    586.31614    95.089915    14.535737    27.924143 
   79600    236.88063   -206.90735    204420.41   -23254.708    1719.3442   -24974.052   -189.50012    588.11765    95.090011    14.536727    27.908169 
   79800    239.33113   -402.64298    204420.41   -23224.241    1737.1305   -24961.372   -877.30734    589.46532    95.088126    14.533964    27.903602 
   80000    232.58732   -169.21049    204420.41   -23250.029    1688.1822   -24938.211   -77.097806    593.30028    95.086868    14.530901    27.906532 
   80200    236.95145    -296.5437    204420.41   -23265.697    1719.8582   -24985.555   -512.41749    595.99311    95.087962    14.529631     27.91876 
   80400    234.09531   -460.56951    204420.41   -23264.271    1699.1275   -24963.399   -1099.0678    598.29923    95.089596    14.529645    27.898132 
   80600    234.95755   -313.78896    204420.41   -23277.656    1705.3859   -24983.042   -574.59195    595.86002    95.090665    14.530432    27.868228 
   80800     234.5848   -167.38758    204420.41   -23239.256    1702.6804   -24941.936   -46.371834    597.17677    95.090923    14.531089    27.834126 
   81000     240.7692   -326.66622    204420.41   -23234.493    1747.5684   -24982.062   -575.06134     598.2744    95.092234    14.530328    27.815275 
   81200    239.35709   -410.61142    204420.41    -23178.32     1737.319   -24915.639   -920.69412    598.24273    95.092483    14.529462    27.807635 
   81400    243.62498   -438.90921    204420.41   -23173.107    1768.2965   -24941.403   -1035.8339    601.39304    95.091303     14.52626    27.814536 
   81600    239.70103   -392.23984    204420.41   -23276.237    1739.8154   -25016.052   -798.60392    603.55289    95.090966    14.519796    27.806104 
   81800    235.37516   -164.13817    204420.41   -23324.744     1708.417   -25033.161   -60.834779    605.16383    95.091166    14.518904    27.785092 
   82000     238.6371   -389.14861    204420.41   -23259.171    1732.0931   -24991.264   -845.17744    606.18649    95.092042    14.517027    27.778908 
   82200    244.31517    -423.6679    204420.41   -23185.768    1773.3061   -24959.074   -942.95646    607.54375    95.090945    14.515906    27.774087 
   82400    236.61975   -289.30205    204420.41   -23222.217    1717.4506   -24939.668   -508.46212    609.84656    95.090846     14.51669    27.763013 
   82600    248.34475   -254.28507    204420.41   -23123.238    1802.5539   -24925.792    -326.5334    609.92954    95.093197    14.515172    27.767627 
   82800    233.64903   -382.75585    204420.41   -23266.923    1695.8883   -24962.811   -797.31169    612.38891    95.095348    14.514561    27.760847 
   83000     248.1071   -307.11448    204420.41   -23183.064    1800.8289   -24983.893   -574.29384    615.77371    95.095196    14.514425    27.757153 
   83200    244.62766   -316.84838    204420.41   -23247.497    1775.5742   -25023.071   -563.94749    619.56333    95.095489    14.517602    27.772717 
   83400    239.47084   -349.10887    204420.41   -23229.639    1738.1446   -24967.783   -691.02718     621.5581    95.097087    14.519485    27.786839 
   83600    240.22182   -337.18473    204420.41   -23345.619    1743.5955   -25089.215   -660.63001    625.03966    95.095656    14.521453    27.767003 
   83800     236.6984   -234.84348    204420.41   -23310.062    1718.0215   -25028.084   -287.00065    626.99243    95.095078    14.520876    27.772437 
   84000    235.62408   -451.71708    204420.41   -23294.633    1710.2238   -25004.856   -1098.3179    628.96196    95.094915    14.516566    27.777823 
   84200    243.07844   -418.71057    204420.41   -23253.956    1764.3296   -25018.285   -907.48006    630.15211    95.095884    14.515926    27.759952 
   84400    238.64721   -348.36837    204420.41    -23305.41    1732.1664   -25037.576    -688.3031    634.21817    95.096697    14.517411    27.750703 
   84600    240.00947   -312.04609    204420.41   -23230.972    1742.0542   -24973.026   -581.10795    635.47424    95.097134    14.518323    27.745405 
   84800    238.47333   -220.07797    204420.41   -23249.478    1730.9044   -24980.382   -221.07621    636.44911    95.097419    14.517626    27.729819 
   85000    242.91589   -399.46866    204420.41   -23207.011    1763.1497   -24970.161   -885.27566    637.43999    95.098136    14.520988    27.696866 
   85200    244.35594   -378.33775    204420.41    -23232.75     1773.602   -25006.352   -780.76889    638.31858    95.099016    14.524767    27.685083 
   85400    231.30268   -345.43315    204420.41   -23327.604    1678.8579   -25006.462   -663.03634    640.84531    95.099058    14.525463    27.689064 
   85600    235.93214   -386.59212    204420.41    -23270.19    1712.4597   -24982.649   -843.91112    637.18965    95.096162    14.525252    27.679919 
   85800    237.94856   -339.26256    204420.41   -23307.222    1727.0955   -25034.317   -657.96097    635.33458     95.09651    14.523058    27.682082 
   86000    238.64102    -492.9553    204420.41   -23255.609    1732.1215   -24987.731   -1208.9862    636.36483    95.096691    14.521514    27.717115 
   86200    237.20317   -309.97294    204420.41   -23223.589    1721.6853   -24945.274   -585.85933    638.77004    95.097091    14.519528    27.717816 
   86400    238.56975   -224.25826    204420.41   -23283.721    1731.6042   -25015.326   -284.58869    642.01911    95.097512    14.520863    27.717587 
   86600    239.44086    -176.5366    204420.41   -23190.305     1737.927   -24928.232   -93.115299     641.8975    95.097278     14.52211    27.713986 
   86800    237.75728   -295.95714    204420.41   -23248.038    1725.7071   -24973.745   -524.91241    644.25555    95.096889    14.521971    27.719089 
   87000    239.41749    -192.5671    204420.41   -23219.109    1737.7573   -24956.867   -149.35139    648.46516    95.095106    14.523543    27.738924 
   87200    241.89712   -453.88462    204420.41   -23183.373    1755.7552   -24939.128   -1038.7156     657.1333     95.09652    14.522785    27.755293 
   87400      228.388   -439.01913    204420.41   -23328.527    1657.7023   -24986.229   -998.27085     656.8511    95.096825    14.526457    27.757727 
   87600    235.20205   -461.48182    204420.41   -23226.215    1707.1606   -24933.376   -1065.0079     657.7667     95.09804    14.528209     27.74679 
   87800    237.50078   -415.61325    204420.41   -23284.502    1723.8454   -25008.347   -910.90814    660.57106    95.097234    14.534329    27.760672 
   88000    242.88626   -491.62991    204420.41   -23279.384    1762.9346   -25042.319   -1207.8434    659.70254    95.094857     14.53782    27.765508 
   88200    236.95677   -232.23001    204420.41   -23265.212    1719.8968   -24985.109   -299.82755    657.51832    95.091725    14.534988    27.749522 
   88400    244.01531   -485.82609    204420.41   -23182.012    1771.1296   -24953.141   -1155.8319    660.01823    95.089699    14.537594    27.741686 
   88600    236.29961   -101.90734    204420.41   -23184.797    1715.1269   -24899.924     127.9473    661.06969    95.088084     14.53677    27.745373 
   88800    238.64388   -415.05366    204420.41   -23192.016    1732.1423   -24924.158   -924.85427    663.88911    95.087927     14.53794     27.75641 
   89000    236.24866   -142.79953    204420.41   -23176.163    1714.7571    -24890.92    62.953412    665.07651    95.086229    14.536737    27.740197 
   89200    239.92714   -228.97359    204420.41    -23166.66    1741.4565   -24908.116   -277.84924    669.34244    95.085415      14.5354    27.742161 
   89400    238.78172   -188.76799    204420.41   -23138.103    1733.1428   -24871.246   -149.30575    671.32693    95.086255    14.538756    27.735676 
   89600    234.02156   -235.73274    204420.41   -23281.815    1698.5923   -24980.408   -315.71559    673.36122    95.086869    14.537516    27.729686 
   89800    239.36034   -442.61891    204420.41   -23194.157    1737.3426     -24931.5     -1049.87    677.84127    95.087038    14.537627    27.733001 
   90000    236.71024   -217.50417    204420.41   -23208.386    1718.1074   -24926.494   -254.23778    681.34322     95.08759    14.537669    27.725993 
   90200    235.93536   -335.43319    204420.41   -23264.104    1712.4831   -24976.587   -654.33212    683.32954    95.087383    14.540881    27.728102 
   90400    246.18459   -241.95368    204420.41   -23232.239    1786.8748   -25019.114   -349.41774    688.70818     95.08714    14.543509    27.724113 
   90600    239.31343   -466.41864    204420.41   -23223.069    1737.0021   -24960.071   -1115.6317    690.80865    95.085539    14.543337    27.725012 
   90800    242.46092   -190.01424    204420.41   -23192.391    1759.8474   -24952.239   -176.32705    690.52279    95.083537    14.543074    27.716264 
   91000    240.14272   -110.67162    204420.41   -23245.798    1743.0213   -24988.819    157.05307    688.80363    95.083941    14.543798     27.74173 
   91200    238.05315   -379.96424    204420.41    -23272.72    1727.8546   -25000.575   -843.32977    687.97728    95.084773    14.545877    27.742067 
   91400    237.89847   -373.96462    204420.41   -23231.141    1726.7319   -24957.873   -766.57865    687.70426    95.084554     14.54287     27.75193 
   91600    240.51097   -402.14715    204420.41   -23125.191    1745.6941   -24870.885   -907.86939    689.47886    95.082386    14.540228    27.752489 
   91800    240.99716   -158.48287    204420.41   -23203.739    1749.2231   -24952.962   -55.036656    691.00223    95.080978    14.536479    27.759925 
   92000    240.80944   -294.65617    204420.41   -23196.676    1747.8605   -24944.537    -502.9975    690.56657      95.0818    14.538179    27.734301 
   92200    246.81601   -378.03174    204420.41   -23203.283    1791.4579   -24994.741   -801.67274    690.35765    95.080383     14.53948    27.734179 
   92400    245.00178   -248.28878    204420.41   -23186.207    1778.2897   -24964.496   -362.30093    687.39506    95.080891    14.536939     27.71684 
   92600    239.97751   -361.12477    204420.41   -23175.785    1741.8222   -24917.607   -760.75419    690.16449    95.080945    14.536256    27.732075 
   92800    240.12502    -324.8793    204420.41   -23228.387    1742.8928    -24971.28   -606.33045     689.6722     95.08077    14.537083      27.7364 
   93000    237.61647   -291.59104    204420.41    -23218.31     1724.685   -24942.995   -507.01072    689.94858    95.080864    14.536546    27.719936 
   93200    241.06076   -455.55808    204420.41   -23219.358    1749.6847   -24969.043   -1060.1353     689.1523    95.079789    14.534504    27.743898 
   93400    232.10346   -191.94947    204420.41   -23269.388    1684.6702   -24954.058   -136.38781    688.86428    95.078172    14.534136    27.764496 
   93600    239.14373   -453.84642    204420.41   -23236.954    1735.7703   -24972.724   -1082.0238    691.93883    95.077415    14.532659    27.770269 
   93800    234.81777   -302.58737    204420.41   -23271.365    1704.3714   -24975.736   -555.03314    693.96902    95.076579    14.530715    27.776671 
   94000    239.08833   -174.53659    204420.41     -23298.3    1735.3682   -25033.668    -65.88057    695.59429    95.076172    14.530797    27.794199 
   94200    236.12434   -434.07451    204420.41   -23209.578    1713.8548   -24923.433   -1002.1916    702.63769     95.07701    14.531067     27.78178 
   94400    246.88825   -186.13493    204420.41   -23236.115    1791.9822   -25028.097   -132.73874    707.02897    95.079999    14.531738    27.771376 
   94600    238.23755   -468.93999    204420.41   -23254.998    1729.1931   -24984.191   -1171.5003    711.31487    95.079949    14.533836    27.770845 
   94800    240.25676   -169.01707    204420.41   -23235.062     1743.849   -24978.911     -46.4549    714.08338    95.081394    14.533243    27.786183 
   95000    234.11146   -227.78334    204420.41   -23298.115    1699.2448   -24997.359   -301.25739    716.41685    95.083414    14.532248    27.793688 
   95200    239.54904   -589.02502    204420.41   -23293.957    1738.7122    -25032.67   -1534.0799    721.39424    95.084958    14.529825    27.801811 
   95400    240.31362   -181.60524    204420.41   -23259.827    1744.2617   -25004.089   -129.62588    724.41188    95.085309    14.528986     27.78169 
   95600    246.21509   -523.76124    204420.41   -23273.456    1787.0962   -25060.552   -1268.8551     721.7008     95.08437    14.525408    27.785879 
   95800     238.0861   -311.88578    204420.41   -23294.907    1728.0938   -25023.001   -546.40918    720.91866    95.082239     14.52601    27.771956 
   96000    246.40076   -470.70828    204420.41   -23279.089    1788.4438   -25067.533   -1092.9292    720.30673    95.081406    14.525419     27.75676 
   96200    248.68263   -257.59175    204420.41   -23203.178    1805.0063   -25008.184   -378.67123    724.66792    95.082969     14.52433     27.74252 
   96400    234.87844   -447.53283    204420.41   -23287.062    1704.8117   -24991.873    -1029.704    732.39873    95.083854    14.522479    27.739684 
   96600    239.51412   -13.162643    204420.41   -23301.109    1738.4587   -25039.567    454.92324    735.09628    95.083299    14.522594    27.738576 
   96800     243.3596   -441.63797    204420.41   -23286.111    1766.3703   -25052.482   -1001.6926    738.31139    95.082319     14.52144    27.732449 
   97000    239.68637   -385.77803    204420.41   -23296.158     1739.709   -25035.867   -817.62412    737.13235    95.082721    14.521141    27.728551 
   97200    236.74774   -199.95546    204420.41   -23276.758    1718.3796   -24995.138   -163.50834    736.63952    95.082426    14.521371    27.711051 
   97400    237.59112   -252.54816    204420.41   -23248.561    1724.5011   -24973.063   -412.27427    735.91707    95.081683    14.520111    27.716603 
   97600    242.01587    -400.7771    204420.41    -23182.49    1756.6171   -24939.107   -898.80307    741.51583    95.080623    14.522065    27.689603 
   97800    241.12218   -370.25816    204420.41   -23203.649    1750.1305    -24953.78   -769.48116    746.76556    95.080482    14.525113    27.671581 
   98000    236.75966    -551.2536    204420.41    -23248.91    1718.4661   -24967.377   -1422.1553    749.60491    95.079613    14.527058    27.671343 
   98200    237.17387   -401.43258    204420.41   -23280.292    1721.4726   -25001.764   -887.77695    751.10187     95.07919    14.527644    27.693501 
   98400    243.75856   -519.02304    204420.41   -23191.962     1769.266   -24961.228   -1327.1191    756.32174    95.078919    14.529515    27.702603 
   98600    240.39355   -456.79128    204420.41   -23238.677    1744.8419   -24983.519   -1100.8875    757.34714    95.079422    14.531073    27.690902 
   98800    242.41419   -356.14013    204420.41   -23184.407    1759.5083   -24943.915   -744.61978    755.73391    95.079043    14.531817    27.666032 
   99000    237.61444   -268.82033    204420.41   -23232.425    1724.6704   -24957.096   -424.81691    757.05734    95.078249    14.531465    27.672965 
   99200    238.19368   -211.19944    204420.41   -23205.447    1728.8747   -24934.321   -176.16915    763.65802    95.078216    14.529095    27.671843 
   99400    243.51569    -353.4368    204420.41   -23187.971    1767.5032   -24955.475   -729.23196    767.91013    95.079147    14.528188    27.685136 
   99600     237.6184   -518.40266    204420.41   -23175.092    1724.6991   -24899.791   -1308.0452    774.24091    95.078872    14.528117    27.709741 
   99800    242.59954   -242.87607    204420.41   -23218.445    1760.8536   -24979.299   -363.46564    772.53893    95.078617    14.529708    27.726369 
  100000    242.30135   -493.34351    204420.41   -23230.263    1758.6892   -24988.952   -1213.6614    771.65003    95.078895    14.531853    27.725824 
  100200    245.67346   -298.72728    204420.41   -23265.104    1783.1649   -25048.268   -503.38091    771.65658    95.080805    14.531302    27.715547 
  100400    241.00183   -193.84681    204420.41   -23192.175     1749.257   -24941.432   -156.18843     766.2056    95.080307    14.533073     27.71451 
  100600    243.25157   -402.65331    204420.41   -23244.333    1765.5862   -25009.919   -863.99443    764.03109    95.079419    14.533756    27.721194 
  100800    235.97353   -312.30347    204420.41   -23264.781    1712.7602   -24977.541   -568.93941    762.10374    95.078564    14.530303    27.740114 
[...]
 5175800    225.00834     189.7335    204420.41   -25644.427    1633.1718   -27277.599    1137.5876     6235.863    93.575095    16.258789    27.705765 
 5176000     229.0528   -80.069858    204420.41    -25657.26    1662.5276   -27319.787    206.52511     6242.679    93.574256    16.258424     27.70318 
 5176200    216.19677    172.36121    204420.41   -25673.313    1569.2151   -27242.528    1089.7864    6235.0252    93.574169    16.257612    27.701203 
 5176400    223.35375   -95.746498    204420.41   -25595.407    1621.1624   -27216.569    143.87147    6240.3496    93.574629    16.257407     27.70975 
 5176600    227.60841     83.96036    204420.41    -25531.03    1652.0439   -27183.074    778.35425    6236.5843    93.574606    16.258771    27.701346 
 5176800    225.44017   -10.430696    204420.41   -25587.643    1636.3062    -27223.95    455.42751    6238.6538     93.57465    16.259973    27.707062 
 5177000    227.68397    92.982178    204420.41   -25560.574    1652.5923   -27213.166    814.93458    6238.8177    93.574838     16.26133    27.715086 
 5177200    230.55876    42.029933    204420.41   -25535.288    1673.4583   -27208.746    611.11039    6240.0137    93.574563    16.263478    27.716858 
 5177400    238.14353    46.491546    204420.41   -25489.752    1728.5106   -27218.263    676.52211    6241.0574    93.574652    16.264768    27.722423 
 5177600    228.27889    33.790267    204420.41   -25582.043    1656.9104   -27238.954    581.80215    6235.9454    93.573766    16.266362    27.718957 
 5177800    226.08616   -19.962536    204420.41   -25609.422     1640.995   -27250.417    388.75302    6239.2379    93.574599    16.266918    27.721332 
 5178000    224.87673    97.321777    204420.41   -25608.585    1632.2166   -27240.801    841.76157    6236.3828    93.574901    16.267332    27.719009 
 5178200    224.01939   -141.82704    204420.41   -25596.428    1625.9938   -27222.422   -19.751007    6241.8382    93.575872    16.268452     27.71641 
 5178400    225.18791    164.87042    204420.41    -25608.42    1634.4752   -27242.895    1057.4367    6236.6074    93.576221    16.270788    27.715682 
 5178600     229.6002     5.116292    204420.41   -25575.313    1666.5008   -27241.814    484.48635    6242.5734    93.575426    16.270095    27.713568 
 5178800     225.1216    104.01138    204420.41   -25587.751    1633.9939   -27221.745     831.9276    6235.1326    93.575608    16.269433     27.70972 
 5179000    222.07889    37.104574    204420.41   -25617.451    1611.9091    -27229.36    659.55039    6240.4307    93.575043    16.268546    27.712491 
 5179200      225.537    62.190378    204420.41    -25611.32     1637.009   -27248.329    706.74088     6237.449    93.575119    16.268589    27.714576 
 5179400    235.88494    105.11381    204420.41   -25557.976    1712.1172   -27270.093    848.07298    6237.8847    93.575332    16.268376    27.713477 
 5179600    226.41031    42.735533    204420.41   -25606.403    1643.3477   -27249.751    651.05661    6239.1114    93.575236    16.267201    27.725031 
 5179800    224.39653    123.89172    204420.41   -25604.614    1628.7312   -27233.345     873.4583    6235.4007    93.574674     16.26803    27.723296 
 5180000    219.67402    26.894323    204420.41    -25695.48    1594.4539   -27289.934    570.92221    6240.0061    93.575031     16.26853    27.725389 
 5180200    223.59329    61.205731    204420.41    -25674.51     1622.901   -27297.411    669.32236    6237.4216    93.574478    16.267375    27.730639 
 5180400    228.31399   -57.214886    204420.41   -25590.844    1657.1652   -27248.009    289.35332    6240.9598    93.575217    16.266688     27.71629 
 5180600    222.19083    185.62888    204420.41   -25593.057    1612.7216   -27205.778    1102.1165    6234.7318    93.574721    16.266737    27.716521 
 5180800    230.60325    -65.67319    204420.41   -25612.208    1673.7812   -27285.989    252.75145    6243.8457    93.574244    16.267487      27.7212 
 5181000    223.59171    129.49679    204420.41    -25666.77    1622.8895    -27289.66    887.66451    6235.2065    93.574324    16.268595    27.718814 
 5181200    226.29303   -93.100362    204420.41   -25643.779    1642.4965   -27286.276    131.68613     6244.291    93.574753    16.267797    27.722158 
 5181400    232.34612    168.31348    204420.41   -25561.628    1686.4315    -27248.06    1065.3179    6235.7074    93.574989    16.267757    27.718756 
 5181600     221.2777   -54.311039    204420.41   -25682.031    1606.0938   -27288.125    290.31918     6242.807    93.573616    16.268051    27.724418 
 5181800    231.58249    203.11773    204420.41   -25568.196    1680.8888   -27249.084    1189.6592    6232.7049    93.573125      16.2672     27.72396 
 5182000    226.41605   -45.818326    204420.41   -25592.702    1643.3894   -27236.092    368.22865    6240.8703    93.573442    16.268833    27.720568 
 5182200    228.41257    197.98448    204420.41   -25558.085    1657.8806   -27215.966    1158.4034    6235.1999    93.572765    16.267821    27.719343 
 5182400    223.00655   -34.736817    204420.41    -25637.32    1618.6423   -27255.963    349.54087    6240.8531    93.572162    16.267633    27.711993 
 5182600    230.45851    71.470106    204420.41   -25601.003    1672.7306   -27273.734    730.24912    6237.0608    93.572656    16.266883    27.720253 
 5182800    223.44148     74.90948    204420.41   -25585.481    1621.7991    -27207.28    724.54867     6235.186    93.572132    16.266274    27.717149 
 5183000    231.22829    -42.60841    204420.41   -25551.885     1678.318   -27230.203    317.27649    6241.0643    93.572282    16.266844    27.712097 
 5183200    225.78494    159.13561    204420.41   -25574.074    1638.8086   -27212.882    1033.0474    6235.6502    93.572854    16.265394    27.716793 
 5183400    218.94299   -41.709889    204420.41   -25693.683    1589.1478   -27282.831    328.87093    6243.1534    93.572892    16.265729    27.710127 
 5183600    222.61333    244.90679    204420.41   -25685.359    1615.7882   -27301.147     1324.797    6231.9485    93.572824    16.265511    27.711909 
 5183800    226.03409   -90.150767    204420.41   -25647.843     1640.617    -27288.46    170.14864    6240.1848    93.572791    16.264453    27.710851 
 5184000    227.14925    202.55977    204420.41    -25590.64    1648.7112   -27239.351    1192.7418    6232.7465    93.573102    16.264074    27.718959 
 5184200     228.4809   -51.468253    204420.41   -25610.615    1658.3767   -27268.991    327.44414    6243.7401    93.573548    16.262742    27.710926 
 5184400    229.96259    297.58702    204420.41   -25598.083    1669.1311   -27267.214    1510.5611    6234.3482    93.573973    16.262581    27.702786 
 5184600    225.79157    -36.84721    204420.41   -25635.131    1638.8567   -27273.987    367.23344    6243.6023    93.575475    16.264215    27.708894 
 5184800    222.43221    247.75116    204420.41   -25619.241    1614.4736   -27233.715    1333.4334    6233.8664    93.575696    16.263025    27.709457 
 5185000    223.78453   -50.128542    204420.41   -25625.067    1624.2891   -27249.356    283.97337    6241.6431    93.576027    16.263405    27.704949 
 5185200     221.2557    119.63553    204420.41   -25688.635    1605.9341   -27294.569    886.42192    6235.8197    93.577037    16.262572    27.704115 
 5185400    227.26077    33.408014    204420.41   -25626.372    1649.5206   -27275.892    594.07079    6240.2266     93.57673    16.262453    27.705652 
 5185600     227.2527    103.39515    204420.41   -25619.991     1649.462   -27269.453    805.15365    6237.3342    93.576956    16.262656    27.703271 
 5185800    229.73474    39.127369    204420.41   -25600.925    1667.4774   -27268.403      621.529    6236.1143    93.576327    16.263258    27.716047 
 5186000    225.67307     86.08105    204420.41   -25601.393    1637.9966   -27239.389    780.58182    6238.7648    93.576262    16.264163    27.719266 
 5186200    231.35204    100.43238    204420.41   -25588.328    1679.2162   -27267.544    815.95317    6237.3211    93.576337    16.264561    27.709011 
 5186400    229.01655   -51.688885    204420.41   -25614.709    1662.2645   -27276.974     283.2258    6243.7844    93.575434    16.265667    27.709087 
 5186600    230.29762      217.426    204420.41   -25604.808    1671.5629   -27276.371    1224.7957    6235.0071    93.574751    16.266291     27.70172 
 5186800    229.91632   -90.118594    204420.41   -25605.747    1668.7953   -27274.542    206.17207    6243.8457    93.573762    16.268232    27.705353 
 5187000    228.42058    303.30421    204420.41   -25581.584    1657.9388   -27239.523    1587.1936    6229.7863    93.572256    16.268918     27.70616 
 5187200    224.36461   -178.78228    204420.41   -25627.529    1628.4995   -27256.028    -139.8305    6246.6576    93.571641    16.269971    27.709809 
 5187400    219.79387    239.14765    204420.41   -25657.902    1595.3238   -27253.226    1353.5388    6232.4423    93.570794    16.268622    27.708015 
 5187600    234.17659   -7.0089695    204420.41   -25580.036    1699.7175   -27279.754    503.48653    6245.5613    93.571041    16.268108    27.709149 
 5187800    224.49346    117.69421    204420.41   -25627.125    1629.4347   -27256.559    884.47384      6234.17    93.570714    16.267566    27.710496 
 5188000    231.60882   -44.735748    204420.41   -25570.248    1681.0799   -27251.328    292.66227    6239.8338    93.569322     16.26827    27.705952 
 5188200    226.89033    126.91442    204420.41   -25596.309    1646.8319    -27243.14    940.20594    6238.2719    93.569287    16.269621    27.708655 
 5188400    227.85953    112.55814    204420.41   -25598.515    1653.8666   -27252.381    894.38797     6239.317    93.569819    16.271629     27.70995 
 5188600    224.95139    54.970612    204420.41   -25629.711    1632.7585    -27262.47    652.38513    6238.8161    93.568276    16.271881    27.712038 
 5188800    229.43446    91.479737    204420.41   -25674.092    1665.2978    -27339.39    783.22148    6236.2316    93.567958    16.271997    27.707873 
 5189000      226.511   -47.592518    204420.41   -25619.564    1644.0786   -27263.642     310.1055    6242.8799    93.567884    16.270593     27.70989 
 5189200     220.4227    125.33681    204420.41   -25724.193     1599.888   -27324.081     919.6018    6239.0136    93.567527    16.272354    27.707692 
 5189400    221.57064    18.147739    204420.41   -25663.597    1608.2201   -27271.817    606.81766    6242.5856    93.567448    16.272175    27.709424 
 5189600    228.37693    124.77512    204420.41   -25592.364     1657.622   -27249.986    909.80543    6236.6252    93.566682    16.273099    27.700956 
 5189800    223.34127    23.338382    204420.41   -25611.961    1621.0718   -27233.032    571.04041    6240.1083    93.565005    16.273626     27.70007 
 5190000    223.74055     76.03677    204420.41   -25611.518    1623.9699   -27235.487    737.37708    6237.7233    93.562983    16.276092    27.701564 
 5190200    226.37097   -14.814773    204420.41   -25633.409    1643.0622   -27276.471    448.01191    6243.6506    93.561621    16.276704    27.700307 
 5190400    233.17495    166.56777    204420.41   -25550.555    1692.4473   -27243.002    1036.5842    6238.1671    93.561281    16.276525    27.697718 
 5190600    229.77935    -117.3098    204420.41   -25625.965    1667.8012   -27293.766    100.02942    6242.0582    93.560726    16.276092    27.703196 
 5190800    229.80643    119.99462    204420.41   -25598.125    1667.9977   -27266.123    836.23102    6237.5479    93.559455    16.275497    27.708892 
 5191000    229.51939    1.7528496    204420.41   -25615.548    1665.9142   -27281.462    480.70367    6243.7327    93.559101    16.274785    27.705268 
 5191200    228.09247    79.997655    204420.41   -25617.045    1655.5573   -27272.602    767.72263    6239.1113    93.558151    16.274121    27.702405 
 5191400    226.95699    58.587563    204420.41   -25594.528    1647.3156   -27241.844    668.17545    6239.7802    93.556431     16.27484    27.699897 
 5191600    223.25018    110.55083    204420.41   -25614.806    1620.4106   -27235.216    879.46937    6236.8632    93.556584    16.274743    27.706565 
 5191800    226.50477    95.921982    204420.41   -25570.353    1644.0333   -27214.387    803.55148    6240.1235    93.556842    16.274627     27.70808 
 5192000    227.50729    77.365517    204420.41   -25549.635    1651.3099   -27200.945    755.35308    6243.3648    93.557094    16.274913    27.713919 
 5192200    228.31347    114.24557    204420.41   -25615.763    1657.1614   -27272.925    875.09598    6239.2274    93.557902    16.276036    27.711757 
 5192400    222.24867   -31.960628    204420.41   -25611.631    1613.1414   -27224.773    361.47742    6242.1921    93.558113    16.274507    27.710421 
 5192600    219.53857    121.04764    204420.41   -25640.677    1593.4708   -27234.147    909.16081    6236.5217    93.557486    16.273767      27.7134 
 5192800    230.27506     -55.4659    204420.41   -25603.206    1671.3991   -27274.605    282.61623     6244.119    93.557342    16.272296    27.717177 
 5193000    220.85636    168.15601    204420.41   -25665.949    1603.0357   -27268.984    1045.0756    6236.7127     93.55706    16.272169    27.719726 
 5193200    230.51274   -54.959186    204420.41   -25603.342    1673.1243   -27276.466     280.9494    6242.7285    93.556696    16.272908    27.711039 
 5193400    232.23091    160.47759    204420.41   -25604.942    1685.5952   -27290.537    1002.4935    6235.1004    93.556289    16.273991    27.711379 
 5193600     229.6914   -29.942719    204420.41   -25589.096    1667.1628   -27256.258    361.23502    6245.3403    93.555362    16.274184    27.716524 
 5193800    226.61898     158.3657    204420.41   -25611.864    1644.8623   -27256.726    1020.1234    6239.0267    93.555043    16.274651    27.705787 
 5194000    221.74142    35.751602    204420.41   -25718.102    1609.4596   -27327.562    580.42437    6241.3995    93.553561    16.275164    27.712049 
 5194200    221.31086    12.264095    204420.41   -25646.886    1606.3345   -27253.221    470.94898    6238.9742    93.551405    16.275121    27.719463 
 5194400    228.50314    109.21872    204420.41   -25598.055    1658.5381   -27256.593    872.47272    6237.1702    93.549451    16.274149    27.716792 
 5194600    226.87463    23.730041    204420.41   -25558.459    1646.7179   -27205.177    559.65902    6244.4149    93.549164     16.27478    27.707377 
 5194800    229.44927    61.824088    204420.41   -25596.832    1665.4053   -27262.237    689.20914    6240.1715    93.549436     16.27456    27.707249 
 5195000     226.0385   -67.102683    204420.41   -25605.662     1640.649   -27246.311    223.48725    6242.7221    93.548548    16.274272    27.714395 
 5195200    228.55395    162.91701    204420.41   -25600.484    1658.9069   -27259.391    1041.5651    6236.5925    93.548006     16.27436    27.709218 
 5195400    228.53926   -38.646005    204420.41   -25603.439    1658.8002   -27262.239    376.30157    6241.7253    93.545986    16.273719     27.72072 
 5195600    221.45289    120.01826    204420.41   -25645.078    1607.3654   -27252.443    882.17733    6237.5734    93.545858     16.27393    27.723932 
 5195800    226.87403   -22.571537    204420.41   -25538.518    1646.7135   -27185.231     418.9134    6245.1875    93.545479    16.273226    27.717417 
 5196000    231.49962    105.01841    204420.41    -25618.38    1680.2873   -27298.668    826.81524    6237.1955    93.544416    16.274229    27.715557 
 5196200    225.15358    145.56892    204420.41   -25624.381     1634.226   -27258.607    1014.1021    6239.5915    93.542977    16.274118     27.71323 
 5196400    226.92671    118.24295    204420.41    -25608.91    1647.0959   -27256.006    849.51926    6237.4353     93.54245    16.274391    27.713004 
 5196600    229.89678    97.478183    204420.41   -25582.036    1668.6535   -27250.689    830.37227    6241.5002    93.541887    16.274533    27.711904 
 5196800     230.5029    5.5071931    204420.41   -25568.325    1673.0528   -27241.378    468.31982    6240.4571    93.541054    16.273706    27.719428 
 5197000    230.39526     191.4087    204420.41   -25542.974    1672.2715   -27215.246    1163.4155     6234.812    93.539293    16.273348    27.713748 
 5197200     230.0384   -24.496737    204420.41   -25623.913    1669.6814   -27293.595    379.58663    6238.8196    93.537817    16.273759    27.717077 
 5197400    222.80864    106.43634    204420.41   -25629.501    1617.2058   -27246.707    834.80923     6238.998    93.537209    16.273601    27.713424 
 5197600    221.88133    11.167681    204420.41   -25653.671    1610.4752   -27264.146    538.32881     6244.621    93.536824    16.273819    27.707512 
 5197800    218.54159    198.76121    204420.41   -25684.151    1586.2344   -27270.385    1177.7649     6235.193    93.535884    16.275618    27.704789 
 5198000    231.58517    22.668119    204420.41   -25554.681    1680.9083   -27235.589    606.33126    6241.7227    93.535336    16.277701    27.708172 
 5198200    228.84149    216.14166    204420.41    -25570.38    1660.9939   -27231.373    1219.0894    6233.2345    93.535118    16.277201    27.699173 
 5198400    221.80357   -31.329993    204420.41   -25628.583    1609.9107   -27238.494    379.96945     6241.872    93.534666    16.277297    27.701046 
 5198600    224.31445    120.83852    204420.41    -25673.01    1628.1354   -27301.145    894.57802    6235.6209    93.534261    16.276372    27.708094 
 5198800    229.58888    7.2353045    204420.41   -25591.203    1666.4186   -27257.621    531.54888    6241.1482    93.533146    16.276117    27.707646 
 5199000     226.5229    203.16228    204420.41   -25538.769    1644.1649   -27182.934    1201.1865    6234.6031    93.531944    16.277513    27.703616 
 5199200    226.29796    22.634395    204420.41   -25611.607    1642.5323   -27254.139    576.52746    6239.7459    93.531279    16.277794    27.707263 
 5199400    228.02128    110.24992    204420.41   -25595.034    1655.0406   -27250.074    842.29474    6240.1049    93.530416     16.27638    27.697901 
 5199600    226.58798    60.335601    204420.41   -25585.909    1644.6373   -27230.547    680.46911    6238.9654    93.529813    16.276833    27.702424 
 5199800    226.06908    2.1266832    204420.41   -25605.419     1640.871    -27246.29    484.62541     6239.158    93.530216    16.276796    27.704352 
 5200000    229.66569     158.7552    204420.41   -25565.406    1666.9762   -27232.382    1017.4095    6234.0781    93.529192    16.276836    27.701794 
Loop time of 5503.77 on 64 procs for 5200000 steps with 8482 atoms

Performance: 816.314 ns/day, 0.029 hours/ns, 944.808 timesteps/s
100.0% CPU use with 64 MPI tasks x no OpenMP threads

MPI task timing breakdown:
Section |  min time  |  avg time  |  max time  |%varavg| %total
---------------------------------------------------------------
Pair    | 0.42916    | 1841.8     | 4169.9     |3631.6 | 33.46
Neigh   | 4.6696     | 223.55     | 576.3      |1138.8 |  4.06
Comm    | 110.16     | 1140.2     | 3477.7     |2989.2 | 20.72
Output  | 136.65     | 136.72     | 136.93     |   0.3 |  2.48
Modify  | 199.58     | 2104.7     | 5192.5     |4447.6 | 38.24
Other   |            | 56.85      |            |       |  1.03

Nlocal:    132.531 ave 257 max 0 min
Histogram: 16 0 2 1 13 0 2 13 4 13
Nghost:    804.438 ave 1126 max 520 min
Histogram: 14 8 8 2 0 4 4 0 20 4
Neighs:    0 ave 0 max 0 min
Histogram: 64 0 0 0 0 0 0 0 0 0
FullNghs:  13210.2 ave 28810 max 0 min
Histogram: 18 14 0 0 0 0 2 9 10 11

Total # of neighbors = 845454
Ave neighs/atom = 99.6763
Neighbor list builds = 547332
Dangerous builds = 0
write_data 		${DIR}/data.${NAME}_run
write_data 		run_1/data.${NAME}_run
write_data 		run_1/data.ibeam_cooling_1_run
Total wall time: 1:31:54
