
### Dimensions ###


### IMPORT ATOMS ###
read_data ../Box_Setup/data.Ibeam_240K
  orthogonal box = (0 0 0) to (189.989 26.9999 39.8504)
  16 by 2 by 2 MPI processor grid
  reading atoms ...
  8482 atoms
  reading velocities ...
  8482 velocities
group water type 2
2436 atoms in group water
group graphite type 1
6046 atoms in group graphite


# Define potential
#
pair_style          sw
pair_coeff * * MLC_e.sw C mW

# Add velocity/set timestep
#

fix		1 graphite setforce 0.0 0.0 0.0
velocity 	graphite set 0.0 0.0 0.0
velocity            water create ${START_TEMP} ${SEED} rot yes dist gaussian
velocity            water create 240 ${SEED} rot yes dist gaussian
velocity            water create 240 28713 rot yes dist gaussian
timestep            5.0

# Define output
#
compute 1 water msd
compute 2 water temp


thermo	            100
thermo_style custom step c_2 press vol etotal ke pe c_1[4] density

# Neighbor lists
#
neigh_modify        delay 0 every 1 check yes


# Set fixes
#
fix                 2 water momentum 10 linear 1 1 1 rescale
fix                 3 all nve
fix                 4 water temp/csvr ${START_TEMP} ${START_TEMP} 500.0 928347
fix                 4 water temp/csvr 240 ${START_TEMP} 500.0 928347
fix                 4 water temp/csvr 240 240 500.0 928347

# Run 0.05 ns equilibration
#
dump                1 all custom 100 ${DIR}/eq.${NAME}.dump id type x y z vx vy vz
dump                1 all custom 100 run_1/eq.${NAME}.dump id type x y z vx vy vz
dump                1 all custom 100 run_1/eq.ibeam_cooling_1.dump id type x y z vx vy vz
run                 10000
Neighbor list info ...
  update every 1 steps, delay 0 steps, check yes
  max neighbors/atom: 2000, page size: 100000
  master list distance cutoff = 6.67472
  ghost atom cutoff = 6.67472
  binsize = 3.33736, bins = 57 9 12
  1 neighbor lists, perpetual/occasional/extra = 1 0 0
  (1) pair sw, perpetual
      attributes: full, newton on
      pair build: full/bin/atomonly
      stencil: full/bin/3d
      bin: standard
Per MPI rank memory allocation (min/avg/max) = 3.381 | 4.313 | 4.753 Mbytes
Step c_2 Press Volume TotEng KinEng PotEng c_1[4] Density 
       0          240   -262.64038    204420.41   -23347.773    1741.9854   -25089.758            0   0.94632332 
     100    234.60432   -111.99036    204420.41   -23360.354     1702.822   -25063.176   0.86601205   0.94632332 
     200    239.50749   -167.29704    204420.41   -23386.064    1738.4106   -25124.474    1.2680145   0.94632332 
     300    236.58845   -214.15436    204420.41   -23390.748    1717.2234   -25107.972    1.6691502   0.94632332 
     400    240.49345   -264.00236    204420.41   -23384.644     1745.567   -25130.211    2.0826403   0.94632332 
     500    242.68619   -353.30721    204420.41   -23355.024    1761.4825   -25116.506    2.4973248   0.94632332 
     600    242.68263   -589.00958    204420.41   -23277.961    1761.4566   -25039.418    2.9883278   0.94632332 
     700    240.35017   -425.03719    204420.41   -23270.806     1744.527   -25015.333    3.2835072   0.94632332 
     800    236.99387   -424.67433    204420.41   -23230.009    1720.1661   -24950.175    3.8117878   0.94632332 
     900    239.01339   -378.33298    204420.41   -23240.233    1734.8243   -24975.058    4.1345276   0.94632332 
    1000    241.71604   -191.10441    204420.41    -23275.11    1754.4409   -25029.551    4.4591089   0.94632332 
    1100    245.82902   -433.88075    204420.41   -23255.411     1784.294   -25039.705    4.8564388   0.94632332 
    1200    242.21938   -419.08154    204420.41   -23253.121    1758.0942   -25011.215     5.167344   0.94632332 
    1300    251.57367   -229.83082    204420.41   -23213.852    1825.9902   -25039.843    5.4730141   0.94632332 
    1400    243.58304   -178.35505    204420.41   -23236.771    1767.9921   -25004.763    5.9628488   0.94632332 
    1500     239.4032   -309.63149    204420.41   -23266.421    1737.6537   -25004.075    6.2863185   0.94632332 
    1600    241.56985   -315.24294    204420.41   -23247.234    1753.3798   -25000.614    6.4809221   0.94632332 
    1700     241.9258   -353.45189    204420.41    -23258.14    1755.9634   -25014.104     6.655337   0.94632332 
    1800     234.8939   -601.22427    204420.41   -23233.159    1704.9239   -24938.083     7.062865   0.94632332 
    1900    246.09005   -480.78105    204420.41   -23194.677    1786.1886   -24980.866    7.5071493   0.94632332 
    2000    248.28202   -324.49025    204420.41    -23172.48    1802.0986   -24974.578    7.9556777   0.94632332 
    2100    229.71631   -313.10185    204420.41   -23273.257    1667.3436   -24940.601    8.4078549   0.94632332 
    2200    239.25977   -423.98424    204420.41   -23231.877    1736.6126    -24968.49    8.8020239   0.94632332 
    2300    245.01361   -399.28816    204420.41   -23212.534    1778.3755   -24990.909    9.3848102   0.94632332 
    2400    244.71918   -505.76745    204420.41   -23216.622    1776.2385   -24992.861    9.9362998   0.94632332 
    2500    240.63236   -349.78056    204420.41   -23249.453    1746.5753   -24996.028    10.478137   0.94632332 
    2600    238.51896   -242.76538    204420.41   -23260.193    1731.2356   -24991.429    10.855699   0.94632332 
    2700    237.87794   -375.03355    204420.41   -23256.719    1726.5829   -24983.302    11.195271   0.94632332 
    2800    248.91222   -286.55787    204420.41    -23209.23    1806.6727   -25015.903    11.619885   0.94632332 
    2900    242.18858   -229.33728    204420.41   -23224.569    1757.8707   -24982.439    12.119914   0.94632332 
    3000    246.86844   -284.78685    204420.41    -23225.69    1791.8384   -25017.528    12.728072   0.94632332 
    3100    243.80362   -458.18689    204420.41   -23220.324    1769.5931   -24989.917    13.277893   0.94632332 
    3200    239.13604   -295.32709    204420.41   -23281.662    1735.7145   -25017.377    13.842107   0.94632332 
    3300    233.14811   -434.90633    204420.41   -23360.934    1692.2525   -25053.186    14.407497   0.94632332 
    3400    239.33031   -254.29166    204420.41   -23302.047    1737.1246   -25039.171    14.738374   0.94632332 
    3500    246.37969    -202.7109    204420.41   -23287.418    1788.2909   -25075.709    15.171566   0.94632332 
    3600     238.6655   -258.62523    204420.41   -23284.529    1732.2992   -25016.829    15.629323   0.94632332 
    3700    241.13641   -295.21661    204420.41   -23256.531    1750.2338   -25006.765    15.949399   0.94632332 
    3800    237.53087   -414.53268    204420.41   -23232.747    1724.0638   -24956.811    16.478655   0.94632332 
    3900    242.02273   -397.03794    204420.41    -23221.28    1756.6669   -24977.947    17.059919   0.94632332 
    4000    232.83753   -405.07005    204420.41    -23250.96    1689.9982   -24940.958    17.499213   0.94632332 
    4100    236.58927   -296.35008    204420.41   -23217.966    1717.2294   -24935.196    18.274219   0.94632332 
    4200    246.44213   -151.38332    204420.41   -23190.664    1788.7442   -24979.409    18.716059   0.94632332 
    4300    231.07179   -376.37293    204420.41   -23255.199     1677.182   -24932.381    19.292581   0.94632332 
    4400    247.04562   -377.78056    204420.41   -23215.256    1793.1245   -25008.381    20.006003   0.94632332 
    4500    240.96745   -186.76225    204420.41   -23256.288    1749.0074   -25005.296    20.583406   0.94632332 
    4600    237.94194   -321.55953    204420.41   -23313.001    1727.0474   -25040.048    21.123943   0.94632332 
    4700    244.27626   -302.28742    204420.41   -23239.361    1773.0236   -25012.385     21.85014   0.94632332 
    4800    242.63387   -491.27383    204420.41   -23215.637    1761.1027    -24976.74    22.334276   0.94632332 
    4900     248.3895   -270.52475    204420.41   -23184.275    1802.8786   -24987.153    22.905359   0.94632332 
    5000    238.83298   -300.01191    204420.41   -23236.097    1733.5148   -24969.611    23.480651   0.94632332 
    5100    244.65183     -162.158    204420.41   -23186.752    1775.7496   -24962.502    24.294761   0.94632332 
    5200    240.22172   -193.02566    204420.41   -23222.227    1743.5947   -24965.822     24.99866   0.94632332 
    5300    234.16852   -272.89356    204420.41   -23291.572    1699.6589   -24991.231    25.421477   0.94632332 
    5400    243.26468   -255.85816    204420.41   -23279.956    1765.6813   -25045.637    25.923426   0.94632332 
    5500    242.58104   -338.89153    204420.41     -23271.9    1760.7193    -25032.62    26.111753   0.94632332 
    5600    238.19078   -384.11173    204420.41   -23296.235    1728.8536   -25025.088    26.193624   0.94632332 
    5700    239.93363   -272.39277    204420.41    -23262.48    1741.5036   -25003.984    26.305773   0.94632332 
    5800    238.24151   -388.30406    204420.41   -23243.552    1729.2218   -24972.774    26.813516   0.94632332 
    5900     238.1234   -418.84598    204420.41   -23258.634    1728.3645   -24986.998    27.582889   0.94632332 
    6000    234.91218   -389.00018    204420.41   -23276.849    1705.0566   -24981.906    28.021106   0.94632332 
    6100    236.99535   -274.82052    204420.41   -23300.865    1720.1769   -25021.042    28.393549   0.94632332 
    6200    233.58765   -369.30853    204420.41   -23307.186    1695.4428   -25002.629     29.11844   0.94632332 
    6300    239.31607   -84.535183    204420.41   -23229.659    1737.0212    -24966.68    29.701985   0.94632332 
    6400    241.94764   -285.77549    204420.41   -23285.741    1756.1219   -25041.863    30.230239   0.94632332 
    6500    240.18777   -341.91687    204420.41   -23298.833    1743.3482   -25042.181    30.766153   0.94632332 
    6600    234.58927   -231.12368    204420.41   -23293.619    1702.7128   -24996.332    31.342671   0.94632332 
    6700    233.05164   -465.39284    204420.41   -23318.975    1691.5523   -25010.527     31.79764   0.94632332 
    6800     236.1841   -394.28366    204420.41   -23304.705    1714.2885   -25018.994    32.128787   0.94632332 
    6900    246.84573   -167.22042    204420.41   -23258.614    1791.6735   -25050.288    32.240245   0.94632332 
    7000    240.07167   -198.30711    204420.41   -23256.898    1742.5056   -24999.404    32.700465   0.94632332 
    7100    245.29766   -345.29804    204420.41   -23253.751    1780.4372   -25034.189     32.97565   0.94632332 
    7200    233.40154   -395.34062    204420.41   -23310.196    1694.0919   -25004.288    33.325173   0.94632332 
    7300    232.15744   -311.26282    204420.41   -23334.456    1685.0619   -25019.518    33.829499   0.94632332 
    7400     237.4182   -372.00509    204420.41   -23289.885     1723.246   -25013.131    34.301127   0.94632332 
    7500    242.66997   -464.76215    204420.41   -23256.642    1761.3648   -25018.007    35.043988   0.94632332 
    7600    246.38701   -336.06215    204420.41   -23218.735    1788.3441   -25007.079    35.224154   0.94632332 
    7700    240.28039   -565.47374    204420.41   -23242.533    1744.0206   -24986.554    35.567506   0.94632332 
    7800    233.31969   -462.07982    204420.41   -23300.501    1693.4979   -24993.999    35.400059   0.94632332 
    7900    245.14478   -403.68704    204420.41   -23281.412    1779.3276   -25060.739    35.508848   0.94632332 
    8000    244.38983   -362.43968    204420.41   -23218.718     1773.848   -24992.566    35.580479   0.94632332 
    8100     244.5548   -282.95548    204420.41   -23205.936    1775.0454   -24980.982    35.629123   0.94632332 
    8200    244.85801   -272.34433    204420.41   -23240.825    1777.2462   -25018.071    35.685352   0.94632332 
    8300    246.77367   -360.08511    204420.41   -23206.695    1791.1506   -24997.845    35.979144   0.94632332 
    8400    246.81489   -247.37872    204420.41   -23217.093    1791.4497   -25008.542    36.472239   0.94632332 
    8500    234.65855   -391.99136    204420.41   -23254.312    1703.2157   -24957.528    36.903943   0.94632332 
    8600    237.49045   -379.55847    204420.41   -23268.535    1723.7704   -24992.305    36.981028   0.94632332 
    8700    238.47368   -411.46798    204420.41   -23280.261     1730.907   -25011.168     37.23697   0.94632332 
    8800    236.86073   -538.69585    204420.41   -23278.476    1719.1997   -24997.676     37.55437   0.94632332 
    8900    240.36465   -297.82169    204420.41    -23317.02    1744.6321   -25061.653    37.910056   0.94632332 
    9000    239.13685   -260.39679    204420.41   -23274.995    1735.7204   -25010.715     38.36382   0.94632332 
    9100    238.66975   -517.73437    204420.41    -23290.09    1732.3301    -25022.42    38.852939   0.94632332 
    9200    242.32547   -506.54908    204420.41   -23240.455    1758.8643   -24999.319    39.258554   0.94632332 
    9300    232.15593   -443.33049    204420.41   -23315.828     1685.051   -25000.879     39.65243   0.94632332 
    9400    240.43308   -126.04395    204420.41   -23292.266    1745.1288   -25037.394    39.902039   0.94632332 
    9500    238.83024   -303.96621    204420.41   -23318.371    1733.4949   -25051.866    39.908287   0.94632332 
    9600    232.87441   -134.79316    204420.41   -23332.124    1690.2659    -25022.39    40.108286   0.94632332 
    9700    239.76859   -592.87803    204420.41   -23284.989    1740.3057   -25025.295    40.700848   0.94632332 
    9800    242.92031   -633.70911    204420.41   -23224.481    1763.1818   -24987.663     41.28617   0.94632332 
    9900    240.18093   -422.82066    204420.41     -23247.7    1743.2986   -24990.998    41.485673   0.94632332 
   10000    237.45125   -516.69717    204420.41   -23249.299    1723.4859   -24972.785    41.744774   0.94632332 
Loop time of 10.8094 on 64 procs for 10000 steps with 8482 atoms

Performance: 399.653 ns/day, 0.060 hours/ns, 925.122 timesteps/s
99.9% CPU use with 64 MPI tasks x no OpenMP threads

MPI task timing breakdown:
Section |  min time  |  avg time  |  max time  |%varavg| %total
---------------------------------------------------------------
Pair    | 0.00083642 | 3.8994     | 8.8258     | 169.5 | 36.07
Neigh   | 0.0047757  | 0.23929    | 0.5285     |  37.0 |  2.21
Comm    | 0.19204    | 1.9978     | 6.7855     | 125.3 | 18.48
Output  | 0.16589    | 0.16595    | 0.16668    |   0.0 |  1.54
Modify  | 0.38089    | 4.3979     | 10.332     | 196.8 | 40.69
Other   |            | 0.109      |            |       |  1.01

Nlocal:    132.531 ave 265 max 0 min
Histogram: 16 0 2 6 8 0 10 7 5 10
Nghost:    806.797 ave 1144 max 520 min
Histogram: 14 10 7 1 2 4 1 3 16 6
Neighs:    0 ave 0 max 0 min
Histogram: 64 0 0 0 0 0 0 0 0 0
FullNghs:  13276 ave 29019 max 0 min
Histogram: 16 16 0 0 0 0 2 9 12 9

Total # of neighbors = 849664
Ave neighs/atom = 100.173
Neighbor list builds = 582
Dangerous builds = 0
write_data 	    ${DIR}/data.${NAME}_eq
write_data 	    run_1/data.${NAME}_eq
write_data 	    run_1/data.ibeam_cooling_1_eq

undump              1
unfix               4



################################################
#######         Run Simulation         #########
################################################

reset_timestep      0
timestep	    10.0
log                 ${DIR}/log.run_${NAME}
log                 run_1/log.run_${NAME}
log                 run_1/log.run_ibeam_cooling_1
