LAMMPS data file via write_data, version 29 Sep 2021, timestep = 5200000

9436 atoms
2 atom types

0 157.504 xlo xhi
0 36.48765944037512 ylo yhi
0 45.87204637965853 zlo zhi

Masses

1 12.01
2 18.015

Atoms # atomic

1 1 0 2.8417180249513345 1.677 0 0 0
3 1 0 0 1.677 0 0 0
5 1 1.2305 0.7104295062378347 1.677 0 0 0
12 1 1.2305 2.1312885187135 1.677 0 0 0
14 1 2.461 2.8417180249513345 1.677 0 0 0
16 1 2.461 0 1.677 0 0 0
18 1 3.6915 0.7104295062378347 1.677 0 0 0
33 1 3.6914999999999996 2.1312885187135 1.677 0 0 0
35 1 4.922 2.841718024951334 1.677 0 0 0
37 1 4.922 0 1.677 0 0 0
39 1 6.1525 0.7104295062378343 1.677 0 0 0
62 1 6.1525 2.1312885187134993 1.677 0 0 0
64 1 7.382999999999999 2.8417180249513345 1.677 0 0 0
66 1 7.382999999999999 0 1.677 0 0 0
68 1 8.613499999999998 0.7104295062378343 1.677 0 0 0
97 1 8.613499999999998 2.1312885187135002 1.677 0 0 0
99 1 9.844 2.8417180249513336 1.677 0 0 0
101 1 9.844 0 1.677 0 0 0
103 1 11.0745 0.7104295062378334 1.677 0 0 0
132 1 11.0745 2.1312885187135002 1.677 0 0 0
134 1 12.305 2.8417180249513336 1.677 0 0 0
136 1 12.305 0 1.677 0 0 0
138 1 13.535499999999999 0.7104295062378352 1.677 0 0 0
167 1 13.535499999999999 2.1312885187134984 1.677 0 0 0
169 1 14.765999999999998 2.8417180249513354 1.677 0 0 0
171 1 14.765999999999998 0 1.677 0 0 0
6 1 0 7.104295062378334 1.677 0 0 0
8 1 0 4.262577037427 1.677 0 0 0
10 1 1.2305000000000001 4.973006543664834 1.677 0 0 0
25 1 1.2305 6.393865556140499 1.677 0 0 0
27 1 2.461 7.104295062378334 1.677 0 0 0
29 1 2.461 4.262577037427 1.677 0 0 0
31 1 3.6914999999999996 4.973006543664834 1.677 0 0 0
54 1 3.6914999999999996 6.393865556140499 1.677 0 0 0
56 1 4.922 7.104295062378334 1.677 0 0 0
58 1 4.922 4.262577037426999 1.677 0 0 0
60 1 6.1525 4.973006543664834 1.677 0 0 0
89 1 6.1525 6.393865556140499 1.677 0 0 0
91 1 7.383 7.104295062378334 1.677 0 0 0
93 1 7.382999999999999 4.262577037427 1.677 0 0 0
95 1 8.6135 4.973006543664834 1.677 0 0 0
124 1 8.6135 6.3938655561405 1.677 0 0 0
126 1 9.844 7.104295062378334 1.677 0 0 0
128 1 9.844 4.2625770374270004 1.677 0 0 0
130 1 11.074499999999999 4.973006543664834 1.677 0 0 0
159 1 11.074499999999999 6.393865556140499 1.677 0 0 0
161 1 12.305 7.104295062378334 1.677 0 0 0
163 1 12.305 4.262577037426999 1.677 0 0 0
165 1 13.535499999999999 4.973006543664834 1.677 0 0 0
194 1 13.535499999999999 6.393865556140499 1.677 0 0 0
196 1 14.765999999999998 7.104295062378332 1.677 0 0 0
198 1 14.766 4.262577037426999 1.677 0 0 0
21 1 0 8.525154074854 1.677 0 0 0
23 1 1.2304999999999997 9.235583581091834 1.677 0 0 0
46 1 1.2304999999999997 10.656442593567498 1.677 0 0 0
50 1 2.4609999999999994 8.525154074854 1.677 0 0 0
52 1 3.6915 9.235583581091834 1.677 0 0 0
81 1 3.6914999999999996 10.6564425935675 1.677 0 0 0
85 1 4.922 8.525154074854 1.677 0 0 0
87 1 6.1525 9.235583581091834 1.677 0 0 0
116 1 6.1525 10.6564425935675 1.677 0 0 0
120 1 7.383 8.525154074854 1.677 0 0 0
122 1 8.613499999999998 9.235583581091834 1.677 0 0 0
151 1 8.613499999999998 10.656442593567498 1.677 0 0 0
155 1 9.844 8.525154074853997 1.677 0 0 0
157 1 11.074499999999999 9.235583581091834 1.677 0 0 0
186 1 11.0745 10.656442593567498 1.677 0 0 0
190 1 12.305 8.525154074854 1.677 0 0 0
192 1 13.535499999999999 9.235583581091833 1.677 0 0 0
221 1 13.535499999999999 10.6564425935675 1.677 0 0 0
225 1 14.765999999999998 8.525154074854 1.677 0 0 0
19 1 0 11.366872099805333 1.677 0 0 0
42 1 0 12.787731112280998 1.677 0 0 0
44 1 1.2305000000000001 13.498160618518833 1.677 0 0 0
48 1 2.461 11.366872099805335 1.677 0 0 0
77 1 2.461 12.787731112280998 1.677 0 0 0
79 1 3.6915 13.498160618518833 1.677 0 0 0
83 1 4.922 11.366872099805333 1.677 0 0 0
112 1 4.922 12.787731112281 1.677 0 0 0
114 1 6.152499999999999 13.498160618518833 1.677 0 0 0
118 1 7.382999999999999 11.366872099805335 1.677 0 0 0
147 1 7.382999999999999 12.787731112280998 1.677 0 0 0
149 1 8.6135 13.498160618518835 1.677 0 0 0
153 1 9.844 11.366872099805335 1.677 0 0 0
182 1 9.844 12.787731112280998 1.677 0 0 0
184 1 11.074499999999999 13.498160618518833 1.677 0 0 0
188 1 12.304999999999998 11.366872099805333 1.677 0 0 0
217 1 12.305 12.787731112280998 1.677 0 0 0
219 1 13.535499999999999 13.498160618518837 1.677 0 0 0
223 1 14.765999999999998 11.366872099805336 1.677 0 0 0
252 1 14.765999999999998 12.787731112281 1.677 0 0 0
40 1 0 15.629449137232333 1.677 0 0 0
69 1 0 17.050308149708 1.677 0 0 0
71 1 1.2305000000000001 17.76073765594583 1.677 0 0 0
73 1 1.2305000000000001 14.919019630994498 1.677 0 0 0
75 1 2.4610000000000003 15.629449137232331 1.677 0 0 0
104 1 2.4610000000000003 17.050308149708 1.677 0 0 0
106 1 3.6914999999999996 17.76073765594583 1.677 0 0 0
108 1 3.6915 14.919019630994498 1.677 0 0 0
110 1 4.921999999999999 15.629449137232333 1.677 0 0 0
139 1 4.921999999999999 17.050308149708 1.677 0 0 0
141 1 6.1525 17.76073765594583 1.677 0 0 0
143 1 6.152499999999999 14.919019630994498 1.677 0 0 0
145 1 7.382999999999999 15.629449137232333 1.677 0 0 0
174 1 7.383 17.050308149708 1.677 0 0 0
176 1 8.613499999999998 17.76073765594583 1.677 0 0 0
178 1 8.6135 14.919019630994498 1.677 0 0 0
180 1 9.844 15.629449137232331 1.677 0 0 0
209 1 9.844 17.050308149708 1.677 0 0 0
211 1 11.0745 17.760737655945835 1.677 0 0 0
213 1 11.074499999999999 14.919019630994498 1.677 0 0 0
215 1 12.305 15.629449137232337 1.677 0 0 0
244 1 12.304999999999998 17.050308149708 1.677 0 0 0
246 1 13.5355 17.760737655945835 1.677 0 0 0
248 1 13.535499999999999 14.919019630994498 1.677 0 0 0
250 1 14.766 15.629449137232337 1.677 0 0 0
279 1 14.766 17.050308149708 1.677 0 0 0
2 1 0 1.420859012475665 5.031000000000001 0 0 0
4 1 0 0 5.031000000000001 0 0 0
11 1 1.2305 3.552147531189165 5.031000000000001 0 0 0
13 1 1.2305 2.1312885187135 5.031000000000001 0 0 0
15 1 2.461 1.420859012475665 5.031000000000001 0 0 0
17 1 2.461 0 5.031000000000001 0 0 0
32 1 3.6914999999999996 3.552147531189165 5.031000000000001 0 0 0
34 1 3.6914999999999996 2.1312885187135 5.031000000000001 0 0 0
36 1 4.922 1.420859012475665 5.031000000000001 0 0 0
38 1 4.922 0 5.031000000000001 0 0 0
61 1 6.1525 3.5521475311891653 5.031000000000001 0 0 0
63 1 6.1525 2.1312885187134993 5.031000000000001 0 0 0
65 1 7.382999999999999 1.420859012475666 5.031000000000001 0 0 0
67 1 7.382999999999999 0 5.031000000000001 0 0 0
96 1 8.613499999999998 3.552147531189166 5.031000000000001 0 0 0
98 1 8.613499999999998 2.1312885187135002 5.031000000000001 0 0 0
100 1 9.844 1.420859012475666 5.031000000000001 0 0 0
102 1 9.844 0 5.031000000000001 0 0 0
131 1 11.0745 3.5521475311891644 5.031000000000001 0 0 0
133 1 11.0745 2.1312885187135002 5.031000000000001 0 0 0
135 1 12.305 1.420859012475665 5.031000000000001 0 0 0
137 1 12.305 0 5.031000000000001 0 0 0
166 1 13.535499999999999 3.5521475311891653 5.031000000000001 0 0 0
168 1 13.535499999999999 2.1312885187134984 5.031000000000001 0 0 0
170 1 14.765999999999998 1.420859012475665 5.031000000000001 0 0 0
172 1 14.765999999999998 0 5.031000000000001 0 0 0
7 1 0 5.683436049902665 5.031000000000001 0 0 0
9 1 0 4.262577037427 5.031000000000001 0 0 0
26 1 1.2305 6.393865556140499 5.031000000000001 0 0 0
28 1 2.461 5.683436049902665 5.031000000000001 0 0 0
30 1 2.461 4.262577037427 5.031000000000001 0 0 0
55 1 3.6914999999999996 6.393865556140499 5.031000000000001 0 0 0
57 1 4.922 5.6834360499026655 5.031000000000001 0 0 0
59 1 4.922 4.262577037426999 5.031000000000001 0 0 0
90 1 6.1525 6.393865556140499 5.031000000000001 0 0 0
92 1 7.382999999999999 5.6834360499026655 5.031000000000001 0 0 0
94 1 7.382999999999999 4.262577037427 5.031000000000001 0 0 0
125 1 8.6135 6.3938655561405 5.031000000000001 0 0 0
127 1 9.844 5.683436049902665 5.031000000000001 0 0 0
129 1 9.844 4.2625770374270004 5.031000000000001 0 0 0
160 1 11.074499999999999 6.393865556140499 5.031000000000001 0 0 0
162 1 12.305 5.683436049902665 5.031000000000001 0 0 0
164 1 12.305 4.262577037426999 5.031000000000001 0 0 0
195 1 13.535499999999999 6.393865556140499 5.031000000000001 0 0 0
197 1 14.765999999999998 5.6834360499026655 5.031000000000001 0 0 0
199 1 14.766 4.262577037426999 5.031000000000001 0 0 0
20 1 0 9.946013087329664 5.031000000000001 0 0 0
22 1 0 8.525154074854 5.031000000000001 0 0 0
24 1 1.2304999999999997 7.814724568616164 5.031000000000001 0 0 0
47 1 1.2304999999999997 10.656442593567498 5.031000000000001 0 0 0
49 1 2.4609999999999994 9.946013087329664 5.031000000000001 0 0 0
51 1 2.4609999999999994 8.525154074854 5.031000000000001 0 0 0
53 1 3.6914999999999996 7.814724568616165 5.031000000000001 0 0 0
82 1 3.6914999999999996 10.6564425935675 5.031000000000001 0 0 0
84 1 4.922 9.946013087329666 5.031000000000001 0 0 0
86 1 4.922 8.525154074854 5.031000000000001 0 0 0
88 1 6.1525 7.814724568616166 5.031000000000001 0 0 0
117 1 6.1525 10.6564425935675 5.031000000000001 0 0 0
119 1 7.383 9.946013087329664 5.031000000000001 0 0 0
121 1 7.383 8.525154074854 5.031000000000001 0 0 0
123 1 8.6135 7.814724568616164 5.031000000000001 0 0 0
152 1 8.613499999999998 10.656442593567498 5.031000000000001 0 0 0
154 1 9.844 9.946013087329664 5.031000000000001 0 0 0
156 1 9.844 8.525154074853997 5.031000000000001 0 0 0
158 1 11.0745 7.814724568616165 5.031000000000001 0 0 0
187 1 11.0745 10.656442593567498 5.031000000000001 0 0 0
189 1 12.305 9.946013087329664 5.031000000000001 0 0 0
191 1 12.305 8.525154074854 5.031000000000001 0 0 0
193 1 13.535499999999999 7.814724568616165 5.031000000000001 0 0 0
222 1 13.535499999999999 10.6564425935675 5.031000000000001 0 0 0
224 1 14.765999999999998 9.94601308732966 5.031000000000001 0 0 0
226 1 14.765999999999998 8.525154074854 5.031000000000001 0 0 0
41 1 0 14.208590124756665 5.031000000000001 0 0 0
43 1 0 12.787731112280998 5.031000000000001 0 0 0
45 1 1.2304999999999997 12.077301606043164 5.031000000000001 0 0 0
76 1 2.461 14.208590124756665 5.031000000000001 0 0 0
78 1 2.461 12.787731112280998 5.031000000000001 0 0 0
80 1 3.6914999999999996 12.077301606043164 5.031000000000001 0 0 0
111 1 4.922 14.208590124756663 5.031000000000001 0 0 0
113 1 4.922 12.787731112281 5.031000000000001 0 0 0
115 1 6.1525 12.077301606043164 5.031000000000001 0 0 0
146 1 7.383 14.208590124756665 5.031000000000001 0 0 0
148 1 7.382999999999999 12.787731112280998 5.031000000000001 0 0 0
150 1 8.6135 12.077301606043164 5.031000000000001 0 0 0
181 1 9.844 14.208590124756665 5.031000000000001 0 0 0
183 1 9.844 12.787731112280998 5.031000000000001 0 0 0
185 1 11.074499999999999 12.077301606043164 5.031000000000001 0 0 0
216 1 12.304999999999998 14.208590124756661 5.031000000000001 0 0 0
218 1 12.305 12.787731112280998 5.031000000000001 0 0 0
220 1 13.535499999999999 12.07730160604316 5.031000000000001 0 0 0
251 1 14.765999999999998 14.208590124756661 5.031000000000001 0 0 0
253 1 14.765999999999998 12.787731112281 5.031000000000001 0 0 0
70 1 0 17.050308149708 5.031000000000001 0 0 0
72 1 1.2305000000000001 16.339878643470165 5.031000000000001 0 0 0
74 1 1.2305000000000001 14.919019630994498 5.031000000000001 0 0 0
105 1 2.4610000000000003 17.050308149708 5.031000000000001 0 0 0
107 1 3.6915 16.339878643470165 5.031000000000001 0 0 0
109 1 3.6915 14.919019630994498 5.031000000000001 0 0 0
140 1 4.921999999999999 17.050308149708 5.031000000000001 0 0 0
142 1 6.1525 16.339878643470165 5.031000000000001 0 0 0
144 1 6.152499999999999 14.919019630994498 5.031000000000001 0 0 0
175 1 7.383 17.050308149708 5.031000000000001 0 0 0
177 1 8.613499999999998 16.339878643470165 5.031000000000001 0 0 0
179 1 8.6135 14.919019630994498 5.031000000000001 0 0 0
210 1 9.844 17.050308149708 5.031000000000001 0 0 0
212 1 11.074499999999999 16.33987864347016 5.031000000000001 0 0 0
214 1 11.074499999999999 14.919019630994498 5.031000000000001 0 0 0
245 1 12.304999999999998 17.050308149708 5.031000000000001 0 0 0
247 1 13.535499999999997 16.33987864347016 5.031000000000001 0 0 0
249 1 13.535499999999999 14.919019630994498 5.031000000000001 0 0 0
280 1 14.766 17.050308149708 5.031000000000001 0 0 0
386 1 0 2.8417180249513345 8.385 0 0 0
387 1 0 0 8.385 0 0 0
388 1 1.2305 0.7104295062378347 8.385 0 0 0
392 1 1.2305 2.1312885187135 8.385 0 0 0
393 1 2.461 2.8417180249513345 8.385 0 0 0
394 1 2.461 0 8.385 0 0 0
395 1 3.6915 0.7104295062378347 8.385 0 0 0
403 1 3.6914999999999996 2.1312885187135 8.385 0 0 0
4116 2 6.164682998517499 5.406964472466327 11.069501030668192 1 -1 0
404 1 4.922 2.841718024951334 8.385 0 0 0
405 1 4.922 0 8.385 0 0 0
406 1 6.1525 0.7104295062378343 8.385 0 0 0
418 1 6.1525 2.1312885187134993 8.385 0 0 0
419 1 7.382999999999999 2.8417180249513345 8.385 0 0 0
420 1 7.382999999999999 0 8.385 0 0 0
7528 2 4.33539027696259 3.222398317703112 10.991473531276297 1 1 0
6313 2 10.122781519535875 2.677050637286031 10.697797508788312 1 2 0
421 1 8.613499999999998 0.7104295062378343 8.385 0 0 0
436 1 8.613499999999998 2.1312885187135002 8.385 0 0 0
437 1 9.844 2.8417180249513336 8.385 0 0 0
438 1 9.844 0 8.385 0 0 0
439 1 11.0745 0.7104295062378334 8.385 0 0 0
454 1 11.0745 2.1312885187135002 8.385 0 0 0
455 1 12.305 2.8417180249513336 8.385 0 0 0
456 1 12.305 0 8.385 0 0 0
457 1 13.535499999999999 0.7104295062378352 8.385 0 0 0
472 1 13.535499999999999 2.1312885187134984 8.385 0 0 0
473 1 14.765999999999998 2.8417180249513354 8.385 0 0 0
474 1 14.765999999999998 0 8.385 0 0 0
6912 2 2.207127426893672 8.140142720844434 10.984623898634416 1 1 0
497 1 12.305 15.629449137232337 8.385 0 0 0
389 1 0 7.104295062378334 8.385 0 0 0
390 1 0 4.262577037427 8.385 0 0 0
391 1 1.2305000000000001 4.973006543664834 8.385 0 0 0
399 1 1.2305 6.393865556140499 8.385 0 0 0
400 1 2.461 7.104295062378334 8.385 0 0 0
401 1 2.461 4.262577037427 8.385 0 0 0
402 1 3.6914999999999996 4.973006543664834 8.385 0 0 0
414 1 3.6914999999999996 6.393865556140499 8.385 0 0 0
415 1 4.922 7.104295062378334 8.385 0 0 0
416 1 4.922 4.262577037426999 8.385 0 0 0
417 1 6.1525 4.973006543664834 8.385 0 0 0
432 1 6.1525 6.393865556140499 8.385 0 0 0
433 1 7.383 7.104295062378334 8.385 0 0 0
434 1 7.382999999999999 4.262577037427 8.385 0 0 0
512 1 12.304999999999998 17.050308149708 8.385 0 0 0
5502 2 5.10731784767514 8.024480271053797 11.01348198844005 1 -3 1
435 1 8.6135 4.973006543664834 8.385 0 0 0
450 1 8.6135 6.3938655561405 8.385 0 0 0
451 1 9.844 7.104295062378334 8.385 0 0 0
452 1 9.844 4.2625770374270004 8.385 0 0 0
453 1 11.074499999999999 4.973006543664834 8.385 0 0 0
468 1 11.074499999999999 6.393865556140499 8.385 0 0 0
6346 2 8.812771621969835 5.1045324449780995 11.123520006195651 1 1 0
5662 2 5.334458995269308 12.514063868692256 10.750382586432254 1 4 0
3461 2 6.676632387244259 10.272851470288272 11.400871716683826 1 1 0
469 1 12.305 7.104295062378334 8.385 0 0 0
470 1 12.305 4.262577037426999 8.385 0 0 0
471 1 13.535499999999999 4.973006543664834 8.385 0 0 0
486 1 13.535499999999999 6.393865556140499 8.385 0 0 0
487 1 14.765999999999998 7.104295062378332 8.385 0 0 0
488 1 14.766 4.262577037426999 8.385 0 0 0
6401 2 2.9920549249214474 17.636926883302987 10.920033455926637 1 0 0
397 1 0 8.525154074854 8.385 0 0 0
398 1 1.2304999999999997 9.235583581091834 8.385 0 0 0
410 1 1.2304999999999997 10.656442593567498 8.385 0 0 0
412 1 2.4609999999999994 8.525154074854 8.385 0 0 0
413 1 3.6915 9.235583581091834 8.385 0 0 0
428 1 3.6914999999999996 10.6564425935675 8.385 0 0 0
4178 2 1.0167170386074489 10.528359777386987 10.891733552904816 1 -1 0
530 1 14.766 17.050308149708 8.385 0 0 0
8241 2 14.622070523148587 4.136714718934981 10.915502845268877 1 0 -1
430 1 4.922 8.525154074854 8.385 0 0 0
431 1 6.1525 9.235583581091834 8.385 0 0 0
446 1 6.1525 10.6564425935675 8.385 0 0 0
448 1 7.383 8.525154074854 8.385 0 0 0
449 1 8.613499999999998 9.235583581091834 8.385 0 0 0
464 1 8.613499999999998 10.656442593567498 8.385 0 0 0
466 1 9.844 8.525154074853997 8.385 0 0 0
467 1 11.074499999999999 9.235583581091834 8.385 0 0 0
482 1 11.0745 10.656442593567498 8.385 0 0 0
1754 2 9.339936947181101 9.90953035328981 10.9153474313691 1 3 0
484 1 12.305 8.525154074854 8.385 0 0 0
485 1 13.535499999999999 9.235583581091833 8.385 0 0 0
500 1 13.535499999999999 10.6564425935675 8.385 0 0 0
502 1 14.765999999999998 8.525154074854 8.385 0 0 0
5707 2 6.987159147968217 14.79933448736775 10.893140350267323 1 -2 0
396 1 0 11.366872099805333 8.385 0 0 0
408 1 0 12.787731112280998 8.385 0 0 0
409 1 1.2305000000000001 13.498160618518833 8.385 0 0 0
411 1 2.461 11.366872099805335 8.385 0 0 0
426 1 2.461 12.787731112280998 8.385 0 0 0
427 1 3.6915 13.498160618518833 8.385 0 0 0
4600 2 15.617181288981362 13.544056076691689 10.902046298852532 1 0 0
514 1 13.535499999999999 14.919019630994498 8.385 0 0 0
2395 2 13.333143464671581 6.850115815086687 10.906552248112275 1 1 -1
429 1 4.922 11.366872099805333 8.385 0 0 0
444 1 4.922 12.787731112281 8.385 0 0 0
445 1 6.152499999999999 13.498160618518833 8.385 0 0 0
447 1 7.382999999999999 11.366872099805335 8.385 0 0 0
462 1 7.382999999999999 12.787731112280998 8.385 0 0 0
3454 2 10.791340266667259 12.234224969783986 10.912516944338389 1 1 0
8190 2 8.328178126753434 0.555999977093631 10.889274630098727 1 2 0
463 1 8.6135 13.498160618518835 8.385 0 0 0
465 1 9.844 11.366872099805335 8.385 0 0 0
480 1 9.844 12.787731112280998 8.385 0 0 0
481 1 11.074499999999999 13.498160618518833 8.385 0 0 0
483 1 12.304999999999998 11.366872099805333 8.385 0 0 0
498 1 12.305 12.787731112280998 8.385 0 0 0
499 1 13.535499999999999 13.498160618518837 8.385 0 0 0
501 1 14.765999999999998 11.366872099805336 8.385 0 0 0
516 1 14.765999999999998 12.787731112281 8.385 0 0 0
4217 2 10.596678881528094 7.402944066808408 11.04493623392506 1 3 0
3426 2 5.937938673964003 17.339355209084406 11.117858766778948 1 1 1
7546 2 1.5020895343207619 15.181473647358633 11.168668049773915 1 -1 0
407 1 0 15.629449137232333 8.385 0 0 0
422 1 0 17.050308149708 8.385 0 0 0
423 1 1.2305000000000001 17.76073765594583 8.385 0 0 0
424 1 1.2305000000000001 14.919019630994498 8.385 0 0 0
425 1 2.4610000000000003 15.629449137232331 8.385 0 0 0
440 1 2.4610000000000003 17.050308149708 8.385 0 0 0
441 1 3.6914999999999996 17.76073765594583 8.385 0 0 0
442 1 3.6915 14.919019630994498 8.385 0 0 0
443 1 4.921999999999999 15.629449137232333 8.385 0 0 0
458 1 4.921999999999999 17.050308149708 8.385 0 0 0
459 1 6.1525 17.76073765594583 8.385 0 0 0
460 1 6.152499999999999 14.919019630994498 8.385 0 0 0
461 1 7.382999999999999 15.629449137232333 8.385 0 0 0
476 1 7.383 17.050308149708 8.385 0 0 0
4210 2 14.671913823663983 16.112382182170567 10.891189624281916 1 -3 0
479 1 9.844 15.629449137232331 8.385 0 0 0
495 1 11.0745 17.760737655945835 8.385 0 0 0
477 1 8.613499999999998 17.76073765594583 8.385 0 0 0
494 1 9.844 17.050308149708 8.385 0 0 0
478 1 8.6135 14.919019630994498 8.385 0 0 0
496 1 11.074499999999999 14.919019630994498 8.385 0 0 0
515 1 14.766 15.629449137232337 8.385 0 0 0
5402 2 2.710459644798578 12.758509899529331 10.812507135332941 1 1 0
513 1 13.5355 17.760737655945835 8.385 0 0 0
4575 2 11.711064093725625 16.90487901142075 11.093262619482065 1 2 0
3227 2 1.5718831860839824 3.5693796188626767 10.778278855479343 1 1 0
7541 2 13.101029190987045 1.900682985230589 11.048125722602718 1 2 0
6558 2 5.341323861646306 0.763121185827052 11.133099049589505 1 0 0
3433 2 9.7451555204526 14.834069554931377 11.26398245853265 1 0 0
4177 2 14.943165326789766 9.005678660581653 10.880504194694854 1 2 0
4165 2 13.598528970913636 11.67842205614794 10.601595013006659 1 -1 0
5636 2 0.5197091189653339 6.13565592285853 10.98452820259609 1 3 1
4647 2 0.0019877505784506866 1.1570053407912786 10.915613378694834 1 -1 0
5319 2 1.4566655359084832 3.5337909044375704 13.808011538215416 1 1 0
5519 2 11.631921263087373 16.66588747380505 13.968590603546645 1 0 0
4442 2 4.3150002048961635 3.215565092704218 14.002368337139032 1 1 -1
4279 2 10.149092664072684 2.5410839685295596 13.73786350006479 1 -1 0
4668 2 12.948896313809344 2.079806876426477 13.98979970803773 1 1 0
5523 2 14.501618134526687 4.280886751558184 13.828148609080639 1 0 1
4658 2 0.17729256166322166 6.147435588434332 13.900503310420477 1 -2 -1
6881 2 6.014162387311832 5.47662073858797 13.777268659686122 1 2 0
4072 2 4.728575252112466 7.881136280487116 13.755492027209485 1 2 0
5447 2 8.707516669975373 5.127329833379713 13.840622017955006 1 1 1
8308 2 10.464946015600544 7.127305197621522 14.115948902821486 1 1 0
2434 2 13.304290943186784 6.741047684531934 14.106317619407616 1 -1 0
4494 2 2.0541375483393356 8.149194891112657 13.853081898038825 1 0 0
4531 2 0.6080347775422392 10.47296009946809 13.690877676388821 1 2 0
3238 2 6.493812775364723 10.085295880356336 14.05523395315155 1 1 0
6529 2 9.261009059959012 9.715342053453655 13.866520084339642 1 0 0
5314 2 14.790359701992921 9.114830273661157 13.549180560690946 1 0 1
3299 2 2.413972197799465 12.848017118735266 13.7751979534927 1 -1 0
4648 2 6.935725757175026 14.713157584377397 13.818274661387324 1 -1 0
6470 2 5.155191514519187 12.521642162202628 13.574798361919695 1 0 0
2461 2 9.986254281458482 14.545958809505054 14.062271397158515 1 1 0
3193 2 11.072776772125305 12.032404767064206 13.729350790820662 1 2 0
2379 2 13.721206472059592 11.702620239912136 13.516782868776795 1 2 0
6323 2 14.502854361148389 16.393346435001533 13.610817241089478 1 -2 -1
3279 2 1.5419847020056472 15.402362639101808 13.993135906667026 1 0 0
2374 2 3.1820008609742154 17.628634633301427 13.775265879149586 1 1 0
3264 2 6.006929552114777 17.375589096506367 13.882501182928921 1 0 0
4639 2 5.6411813602451755 0.602558092358725 13.792784692618282 1 4 0
6755 2 15.35257226741175 13.94325203361611 14.046666388979482 1 -1 0
4438 2 8.484420304623184 0.2214173167231056 13.787784645515059 1 1 0
4174 2 10.46816965196701 0.626078991170093 42.26307247057473 0 -1 0
1717 2 7.239341702073302 5.071011236712267 42.25325566366669 0 -1 0
7615 2 9.70918833441346 6.353692881307795 42.099946671941105 0 0 1
4126 2 14.36102169020126 6.719828317678409 42.26847719645814 0 0 0
7526 2 12.169063051396872 5.158503765945035 41.6668490675345 0 1 1
3251 2 7.130475006180282 10.30626004969612 42.24934758361659 0 -1 0
6411 2 9.574435002090995 9.140533517766915 42.16442307361305 0 2 0
4582 2 14.335452949502146 9.443004034638484 41.876167878310746 0 1 0
7611 2 6.529806225080349 13.217338785041783 42.23208616119418 0 -1 0
6391 2 11.183603607579348 13.800857730427728 41.91056948411627 0 1 0
4198 2 3.876447024751525 16.972697565630696 44.73768983118597 0 -1 0
4480 2 8.63797606227395 14.752285270459247 41.992608428337576 0 1 0
5349 2 8.066869224913843 2.325043930641885 42.26528591247313 0 0 0
4704 2 7.7502970527009865 2.233897916040987 45.12880027874249 0 1 0
4697 2 8.766126305663912 17.714797758822446 45.23836740131182 0 1 0
2466 2 8.597804513316227 17.34542493780696 42.43677672610008 0 -2 0
3332 2 10.214580766425934 1.050661400448912 44.98492753589601 0 3 0
3455 2 15.153769605189789 1.1355397663276658 44.99100843352172 0 0 0
4221 2 14.924778759408396 1.2979293642090834 41.98443048166284 0 -1 0
6786 2 12.508858590369586 2.521834267409556 42.224328614190924 0 1 -1
4359 2 12.576697952429905 2.424303258581798 45.0649995602517 0 0 0
4214 2 4.591387219622456 6.411921056476934 42.05175451641416 0 0 0
2370 2 7.437584645076337 4.995169201648117 45.04423934454484 0 0 0
3109 2 4.920453820148445 6.107366330239471 44.83912007864071 0 -1 1
4311 2 9.592234345959376 6.373146542136146 44.74001798462978 0 0 0
3245 2 12.19168141244544 5.1990967426255255 44.8227419009768 0 0 0
4052 2 14.522802952514736 6.678953556219553 44.96463636057174 0 -1 -1
3302 2 2.202254011540668 10.035059161661659 42.5377003903937 0 0 1
6736 2 1.4403810693703345 9.811455825219205 45.13482196540938 0 1 0
4349 2 4.746879395281291 8.97759698787819 42.16622741857121 0 -1 0
4230 2 4.6176378315377 9.03614760800959 44.859852721359694 0 0 0
5588 2 6.99396668560405 10.49833894413532 45.00712530653774 0 -2 1
3167 2 11.892285388346814 10.884453888624666 42.01612347029177 0 -1 0
5549 2 9.551624201906801 9.218102278871156 45.154438828477645 0 -2 1
4300 2 11.853943796530528 10.667954261176083 45.11206709626535 0 1 0
4135 2 14.404753009906226 9.461399265358713 44.810542928803685 0 2 -1
4419 2 1.9728849158349744 12.84118235428765 41.76442380908784 0 -3 0
6857 2 1.3011023723621218 12.760145874466646 44.58831384942324 0 -2 0
2458 2 4.160224324344173 14.473042813032377 40.788668792851176 0 -3 0
2416 2 3.5451141259591124 14.146875077647028 45.03389232026028 0 1 0
4445 2 6.324413492694724 13.299244929225818 44.86565890030487 0 -2 0
3154 2 11.372157756597991 13.415409247977662 44.933527945760396 0 -1 0
6944 2 13.768019155537752 14.91802724248802 42.274738578513805 0 -2 0
6646 2 13.54510247804905 17.75300924536889 44.967725650362624 0 1 0
4156 2 8.654207594401358 14.93851646856754 44.86877436258639 0 -1 0
1713 2 6.2240002349695365 0.35037342225529156 41.93216696502639 0 2 0
6764 2 13.787553702205892 14.799640218936974 45.1228263005813 0 -3 0
4341 2 3.8567435928260845 16.70548741855262 42.30539913674877 0 0 0
4709 2 5.390566656397914 0.3092703772142362 44.77739927062471 0 0 0
4433 2 13.418077849883346 17.762844531456235 42.17861721493432 0 0 -1
3180 2 6.13085284669021 18.22668210616041 41.72809096123814 0 1 1
584 1 0 19.892026174659332 1.677 0 0 0
1130 1 3.6914999999999996 19.1815966684215 1.677 0 0 0
1134 1 2.4609999999999994 21.312885187134995 1.677 0 0 0
1146 1 2.4609999999999994 19.892026174659332 1.677 0 0 0
1148 1 1.2305000000000001 19.1815966684215 1.677 0 0 0
1152 1 0 21.312885187135 1.677 0 0 0
1075 1 7.382999999999999 21.312885187135 1.677 0 0 0
1102 1 7.382999999999999 19.892026174659332 1.677 0 0 0
1104 1 6.1525 19.1815966684215 1.677 0 0 0
1108 1 4.922000000000001 21.312885187134995 1.677 0 0 0
1128 1 4.922 19.892026174659332 1.677 0 0 0
1036 1 11.074499999999999 19.1815966684215 1.677 0 0 0
1040 1 9.844 21.312885187135 1.677 0 0 0
1069 1 9.844 19.892026174659335 1.677 0 0 0
1071 1 8.6135 19.1815966684215 1.677 0 0 0
970 1 14.765999999999998 21.312885187135 1.677 0 0 0
999 1 14.766 19.892026174659332 1.677 0 0 0
1001 1 13.535499999999999 19.1815966684215 1.677 0 0 0
1005 1 12.305 21.312885187135 1.677 0 0 0
1034 1 12.305000000000001 19.892026174659335 1.677 0 0 0
1112 1 3.6915000000000004 23.4441737058485 1.677 0 0 0
1132 1 3.6914999999999996 22.023314693372832 1.677 0 0 0
1136 1 2.4609999999999994 24.154603212086332 1.677 0 0 0
1138 1 1.2304999999999993 23.4441737058485 1.677 0 0 0
1150 1 1.2304999999999993 22.023314693372832 1.677 0 0 0
1154 1 0 24.154603212086332 1.677 0 0 0
1077 1 7.383 24.154603212086336 1.677 0 0 0
1079 1 6.1525 23.4441737058485 1.677 0 0 0
1106 1 6.152499999999999 22.023314693372832 1.677 0 0 0
1110 1 4.921999999999999 24.154603212086332 1.677 0 0 0
1009 1 11.0745 23.4441737058485 1.677 0 0 0
1038 1 11.0745 22.023314693372836 1.677 0 0 0
1042 1 9.844000000000001 24.154603212086336 1.677 0 0 0
1044 1 8.613499999999998 23.4441737058485 1.677 0 0 0
1073 1 8.6135 22.023314693372836 1.677 0 0 0
972 1 14.766000000000002 24.154603212086332 1.677 0 0 0
974 1 13.535499999999999 23.4441737058485 1.677 0 0 0
1003 1 13.5355 22.023314693372832 1.677 0 0 0
1007 1 12.305 24.154603212086332 1.677 0 0 0
1087 1 3.6914999999999996 27.7067507432755 1.677 0 0 0
1114 1 3.6914999999999987 26.285891730799833 1.677 0 0 0
1116 1 2.4610000000000003 25.575462224561996 1.677 0 0 0
1118 1 2.4609999999999994 28.41718024951333 1.677 0 0 0
1120 1 1.230500000000001 27.706750743275496 1.677 0 0 0
1140 1 1.2305000000000001 26.285891730799833 1.677 0 0 0
1142 1 0 25.575462224561996 1.677 0 0 0
1144 1 0 28.417180249513333 1.677 0 0 0
1048 1 7.382999999999999 25.575462224561996 1.677 0 0 0
1050 1 7.383000000000001 28.417180249513336 1.677 0 0 0
1052 1 6.152499999999999 27.7067507432755 1.677 0 0 0
1081 1 6.1525 26.285891730799836 1.677 0 0 0
1083 1 4.922 25.575462224561996 1.677 0 0 0
1085 1 4.922 28.417180249513336 1.677 0 0 0
982 1 11.074499999999999 27.7067507432755 1.677 0 0 0
1011 1 11.0745 26.285891730799833 1.677 0 0 0
1013 1 9.844 25.575462224562 1.677 0 0 0
1015 1 9.844000000000001 28.417180249513333 1.677 0 0 0
1017 1 8.6135 27.7067507432755 1.677 0 0 0
1046 1 8.613500000000002 26.285891730799836 1.677 0 0 0
943 1 14.765999999999998 25.575462224561996 1.677 0 0 0
945 1 14.766 28.417180249513333 1.677 0 0 0
947 1 13.535499999999999 27.706750743275496 1.677 0 0 0
976 1 13.5355 26.285891730799833 1.677 0 0 0
978 1 12.305 25.575462224562 1.677 0 0 0
980 1 12.305000000000001 28.417180249513333 1.677 0 0 0
1060 1 3.6914999999999996 31.969327780702496 1.677 0 0 0
1089 1 3.6915000000000004 30.548468768226833 1.677 0 0 0
1091 1 2.4610000000000003 29.838039261988996 1.677 0 0 0
1093 1 2.4610000000000003 32.67975728694034 1.677 0 0 0
1095 1 1.2304999999999993 31.969327780702496 1.677 0 0 0
1122 1 1.2304999999999993 30.548468768226833 1.677 0 0 0
1124 1 0 29.838039261988996 1.677 0 0 0
1126 1 0 32.67975728694033 1.677 0 0 0
1021 1 7.383 29.838039261988996 1.677 0 0 0
1023 1 7.383 32.67975728694033 1.677 0 0 0
1025 1 6.1525 31.9693277807025 1.677 0 0 0
1054 1 6.152500000000001 30.548468768226833 1.677 0 0 0
1056 1 4.921999999999999 29.838039261988996 1.677 0 0 0
1058 1 4.9220000000000015 32.67975728694034 1.677 0 0 0
955 1 11.074499999999999 31.969327780702493 1.677 0 0 0
984 1 11.0745 30.548468768226833 1.677 0 0 0
986 1 9.844 29.838039261988996 1.677 0 0 0
988 1 9.844000000000001 32.67975728694033 1.677 0 0 0
990 1 8.613499999999998 31.9693277807025 1.677 0 0 0
1019 1 8.6135 30.548468768226833 1.677 0 0 0
916 1 14.766 29.838039261988996 1.677 0 0 0
918 1 14.766000000000002 32.67975728694033 1.677 0 0 0
920 1 13.535499999999999 31.969327780702496 1.677 0 0 0
949 1 13.5355 30.548468768226833 1.677 0 0 0
951 1 12.304999999999998 29.838039261988996 1.677 0 0 0
953 1 12.305 32.67975728694033 1.677 0 0 0
1032 1 3.6914999999999996 36.23190481812949 1.677 0 0 0
1062 1 3.6915000000000013 34.81104580565383 1.677 0 0 0
1064 1 2.4609999999999985 34.100616299416 1.677 0 0 0
1067 1 1.2304999999999993 36.23190481812949 1.677 0 0 0
1097 1 1.230500000000001 34.81104580565383 1.677 0 0 0