
### Dimensions ###


### IMPORT ATOMS ###
read_data ../Box_Setup/data.Ibeam_240K
Reading data file ...
  orthogonal box = (0.0000000 0.0000000 0.0000000) to (157.50400 36.487659 45.872046)
  10 by 2 by 4 MPI processor grid
  reading atoms ...
  9436 atoms
  reading velocities ...
  9436 velocities
  read_data CPU = 0.028 seconds
group water type 2
2716 atoms in group water
group graphite type 1
6720 atoms in group graphite


# Define potential
#
pair_style          sw
pair_coeff * * MLC_e.sw C mW

# Add velocity/set timestep
#

fix		1 graphite setforce 0.0 0.0 0.0
velocity 	graphite set 0.0 0.0 0.0
velocity            water create ${START_TEMP} ${SEED} rot yes dist gaussian
velocity            water create 240 ${SEED} rot yes dist gaussian
velocity            water create 240 22386 rot yes dist gaussian
timestep            5.0

# Define output
#
compute 1 water msd
compute 2 water temp


thermo	            100
thermo_style custom step c_2 press vol etotal ke pe c_1[4] density

# Neighbor lists
#
neigh_modify        delay 0 every 1 check yes


# Set fixes
#
fix                 2 water momentum 10 linear 1 1 1 rescale
fix                 3 all nve
fix                 4 water temp/csvr ${START_TEMP} ${START_TEMP} 500.0 928347
fix                 4 water temp/csvr 240 ${START_TEMP} 500.0 928347
fix                 4 water temp/csvr 240 240 500.0 928347

# Run 0.05 ns equilibration
#
dump                1 all custom 100 ${DIR}/eq.${NAME}.dump id type x y z vx vy vz
dump                1 all custom 100 run_4/eq.${NAME}.dump id type x y z vx vy vz
dump                1 all custom 100 run_4/eq.ibeam_cooling_4.dump id type x y z vx vy vz
run                 10000
Neighbor list info ...
  update every 1 steps, delay 0 steps, check yes
  max neighbors/atom: 2000, page size: 100000
  master list distance cutoff = 6.6747184
  ghost atom cutoff = 6.6747184
  binsize = 3.3373592, bins = 48 11 14
  1 neighbor lists, perpetual/occasional/extra = 1 0 0
  (1) pair sw, perpetual
      attributes: full, newton on
      pair build: full/bin/atomonly
      stencil: full/bin/3d
      bin: standard
Per MPI rank memory allocation (min/avg/max) = 3.597 | 4.372 | 4.790 Mbytes
Step c_2 Press Volume TotEng KinEng PotEng c_1[4] Density 
       0          240   -384.81349    263624.46   -25860.227    1942.2958   -27802.523            0   0.81656126 
     100    244.06985   -287.89545    263624.46   -25873.033    1975.2327   -27848.266   0.85374402   0.81656126 
     200    237.46447   -175.52103    263624.46   -25895.635     1921.776   -27817.411    1.3478527   0.81656126 
     300    236.38363   -315.44739    263624.46   -25886.459    1913.0289   -27799.488    1.7621855   0.81656126 
     400    235.55117   -311.74382    263624.46   -25866.994    1906.2919   -27773.286    2.1153748   0.81656126 
     500    239.67464   -298.31903    263624.46   -25836.426    1939.6627   -27776.089    2.4102849   0.81656126 
     600    246.20086   -259.38187    263624.46   -25767.501    1992.4787    -27759.98    2.8052979   0.81656126 
     700    241.34771    -215.0297    263624.46   -25786.212    1953.2027   -27739.415    3.3727921   0.81656126 
     800    241.92901   -377.98004    263624.46   -25773.496    1957.9071   -27731.403    3.7416904   0.81656126 
     900    241.22596   -244.86761    263624.46   -25800.099    1952.2174   -27752.316    4.0458585   0.81656126 
    1000    237.09156   -357.30327    263624.46   -25820.787    1918.7582   -27739.545    4.4389298   0.81656126 
    1100    246.89298   -449.79889    263624.46    -25805.34    1998.0801    -27803.42    4.8500988   0.81656126 
    1200     234.1153    -386.6797    263624.46     -25804.5    1894.6716   -27699.172    5.1213575   0.81656126 
    1300    241.22724    -347.1976    263624.46   -25751.011    1952.2277   -27703.239    5.3678042   0.81656126 
    1400    242.61699   -275.46583    263624.46   -25783.783    1963.4749   -27747.258    5.6638185   0.81656126 
    1500    241.67609    -267.3291    263624.46   -25810.669    1955.8602   -27766.529     5.956858   0.81656126 
    1600    236.40819   -235.07093    263624.46   -25778.812    1913.2276    -27692.04    6.3686614   0.81656126 
    1700     238.1489   -304.49455    263624.46   -25801.015     1927.315    -27728.33    6.6807433   0.81656126 
    1800    238.49509   -265.28077    263624.46   -25766.595    1930.1167   -27696.711    7.0679727   0.81656126 
    1900    245.46611   -488.49771    263624.46   -25729.648    1986.5325   -27716.181    7.4065481   0.81656126 
    2000      242.106   -287.02393    263624.46   -25713.445    1959.3395   -27672.784     7.937487   0.81656126 
    2100    237.58543   -318.17972    263624.46   -25820.673     1922.755   -27743.428    8.3987949   0.81656126 
    2200    239.46002   -384.89218    263624.46   -25786.102    1937.9259   -27724.028     8.869534   0.81656126 
    2300    249.21847   -158.71259    263624.46   -25764.148       2016.9   -27781.048    9.2701285   0.81656126 
    2400    248.88459   -238.90437    263624.46   -25786.474    2014.1979   -27800.672    9.6512135   0.81656126 
    2500    238.40537   -235.98801    263624.46   -25816.774    1929.3906   -27746.165    9.8874751   0.81656126 
    2600    238.08505   -221.62816    263624.46   -25833.057    1926.7983   -27759.856    10.509037   0.81656126 
    2700    240.83221   -294.24951    263624.46    -25825.59    1949.0308   -27774.621    10.798916   0.81656126 
    2800    249.13309   -172.52359    263624.46   -25770.872     2016.209   -27787.081    11.211848   0.81656126 
    2900    241.20615    -283.6551    263624.46    -25770.32    1952.0571   -27722.377    11.618381   0.81656126 
    3000    245.63712   -170.52028    263624.46   -25758.182    1987.9165   -27746.099    11.954367   0.81656126 
    3100    245.92464   -289.49154    263624.46   -25762.489    1990.2433   -27752.733    12.400373   0.81656126 
    3200     240.1962   -372.74489    263624.46   -25823.949    1943.8837   -27767.832    12.697293   0.81656126 
    3300    232.92058   -317.70559    263624.46   -25904.601    1885.0028   -27789.604    12.863745   0.81656126 
    3400    241.55979   -80.477919    263624.46   -25863.875     1954.919   -27818.794     13.22468   0.81656126 
    3500    233.83643   -276.59433    263624.46   -25863.573    1892.4146   -27755.988     13.46458   0.81656126 
    3600    236.69703    -274.5984    263624.46   -25844.942    1915.5652   -27760.507    13.791162   0.81656126 
    3700    244.44133   -229.80144    263624.46   -25808.148     1978.239   -27786.387    13.893703   0.81656126 
    3800    232.55035   -358.50634    263624.46   -25775.762    1882.0066   -27657.768     14.35912   0.81656126 
    3900    242.00845   -353.02085    263624.46   -25765.827      1958.55   -27724.377    14.645907   0.81656126 
    4000    242.54056   -361.63808    263624.46   -25799.274    1962.8563    -27762.13    15.123403   0.81656126 
    4100    240.13783   -248.55005    263624.46   -25789.571    1943.4113   -27732.982    15.699016   0.81656126 
    4200    241.64411   -188.53112    263624.46   -25761.905    1955.6014   -27717.507    16.340789   0.81656126 
    4300    233.18151   -217.25964    263624.46   -25832.699    1887.1145   -27719.813    17.013431   0.81656126 
    4400    237.36085   -157.74697    263624.46    -25781.28    1920.9374   -27702.218    17.229618   0.81656126 
    4500     235.7274   -281.87504    263624.46   -25791.269    1907.7181   -27698.987    17.685317   0.81656126 
    4600    240.03003   -182.98075    263624.46   -25826.615    1942.5389   -27769.154    17.937697   0.81656126 
    4700    239.89859   -228.35166    263624.46   -25754.916    1941.4751   -27696.391    18.202089   0.81656126 
    4800    243.16331   -202.29729    263624.46    -25720.61    1967.8961   -27688.506    18.355505   0.81656126 
    4900    245.06082   -121.39591    263624.46   -25659.786    1983.2525   -27643.039    18.474416   0.81656126 
    5000    240.14916   -342.45887    263624.46   -25735.658     1943.503   -27679.161    18.817414   0.81656126 
    5100    236.59139   -223.81122    263624.46   -25687.825    1914.7103   -27602.535    19.027498   0.81656126 
    5200    239.16601   -243.33679    263624.46   -25724.301    1935.5464   -27659.848    19.388358   0.81656126 
    5300    244.85853   -313.60098    263624.46   -25799.012    1981.6154   -27780.628    19.823848   0.81656126 
    5400    231.36372   -178.94661    263624.46    -25796.69    1872.4033   -27669.093    20.142652   0.81656126 
    5500    243.64061   -516.62021    263624.46   -25791.946    1971.7589   -27763.705     20.41613   0.81656126 
    5600    236.36674   -281.30426    263624.46   -25813.373    1912.8922   -27726.265     20.61208   0.81656126 
    5700    236.99114   -256.48026    263624.46   -25792.018    1917.9454   -27709.963    20.948448   0.81656126 
    5800    239.48198   -216.78955    263624.46   -25774.742    1938.1035   -27712.845    21.559552   0.81656126 
    5900      246.065    -237.6605    263624.46   -25819.218    1991.3793   -27810.597    22.115824   0.81656126 
    6000    232.63897   -308.35632    263624.46   -25827.718    1882.7238   -27710.442    22.432001   0.81656126 
    6100    231.90757   -218.39019    263624.46   -25829.013    1876.8046   -27705.818    23.062029   0.81656126 
    6200    240.97234   -284.60778    263624.46   -25801.253    1950.1649   -27751.418     23.47299   0.81656126 
    6300    242.73725   -210.25475    263624.46    -25728.59    1964.4481   -27693.038    24.104067   0.81656126 
    6400    236.59974   -392.09061    263624.46    -25779.51    1914.7778   -27694.288    24.465103   0.81656126 
    6500    240.05124   -201.44117    263624.46   -25782.722    1942.7105   -27725.433    24.836864   0.81656126 
    6600    235.36233   -278.14306    263624.46   -25799.568    1904.7636   -27704.331    25.330639   0.81656126 
    6700    239.85985   -331.69395    263624.46    -25833.37    1941.1616   -27774.532    25.591445   0.81656126 
    6800    239.45722   -355.24251    263624.46   -25817.792    1937.9032   -27755.695    25.865617   0.81656126 
    6900    239.92092   -332.49407    263624.46   -25784.452    1941.6559   -27726.108     26.56618   0.81656126 
    7000    240.75504   -418.23857    263624.46   -25785.918    1948.4063   -27734.324     26.75763   0.81656126 
    7100    238.03564   -225.39371    263624.46   -25790.212    1926.3985    -27716.61    27.027687   0.81656126 
    7200    238.29221   -142.12453    263624.46   -25851.194    1928.4748   -27779.668    27.251331   0.81656126 
    7300    237.36863   -376.56521    263624.46   -25883.444    1921.0004   -27804.445    27.402925   0.81656126 
    7400    240.49851   -254.72414    263624.46   -25821.247    1946.3302   -27767.577    27.547982   0.81656126 
    7500    237.98431   -371.06392    263624.46   -25793.166    1925.9831   -27719.149    27.920053   0.81656126 
    7600    244.68592   -355.15082    263624.46   -25764.471    1980.2185    -27744.69    28.175792   0.81656126 
    7700    240.66475   -350.88834    263624.46   -25803.283    1947.6755   -27750.959    28.509722   0.81656126 
    7800    233.59012   -311.62836    263624.46   -25868.239    1890.4213    -27758.66    28.771814   0.81656126 
    7900       242.94   -154.80079    263624.46   -25831.988     1966.089   -27798.077    29.009641   0.81656126 
    8000     242.4178   -243.77174    263624.46   -25777.899    1961.8628   -27739.762    29.658308   0.81656126 
    8100    239.21281    -252.5887    263624.46   -25745.044    1935.9252   -27680.969     29.84965   0.81656126 
    8200    242.75023   -265.08669    263624.46   -25748.756    1964.5531   -27713.309    30.095838   0.81656126 
    8300    239.88425   -265.54628    263624.46   -25703.852    1941.3591   -27645.211    30.723475   0.81656126 
    8400     244.9134   -130.54731    263624.46   -25688.304    1982.0595   -27670.363    31.100936   0.81656126 
    8500     245.3064   -354.22834    263624.46   -25730.983      1985.24   -27716.223    31.322536   0.81656126 
    8600    242.51542   -224.46439    263624.46   -25738.184    1962.6528   -27700.836    31.983954   0.81656126 
    8700    241.11124   -202.12144    263624.46   -25763.705     1951.289   -27714.994    32.204988   0.81656126 
    8800     241.1583   -295.85454    263624.46   -25773.159    1951.6698   -27724.829    32.702417   0.81656126 
    8900    240.02046   -180.28701    263624.46   -25792.386    1942.4614   -27734.847    33.054609   0.81656126 
    9000    239.07995   -307.03086    263624.46   -25762.131      1934.85   -27696.981    33.866375   0.81656126 
    9100    240.16837   -454.87937    263624.46   -25768.903    1943.6584   -27712.562    34.528513   0.81656126 
    9200    241.25435   -423.70963    263624.46   -25711.755    1952.4472   -27664.202    34.938775   0.81656126 
    9300    238.02564   -88.097867    263624.46   -25786.833    1926.3175   -27713.151    34.938905   0.81656126 
    9400    237.14872   -144.42133    263624.46   -25771.996    1919.2207   -27691.217    35.136848   0.81656126 
    9500    237.77347   -181.47279    263624.46   -25799.526    1924.2767   -27723.803    35.999477   0.81656126 
    9600    242.42437   -293.85428    263624.46   -25815.752     1961.916   -27777.668    36.171356   0.81656126 
    9700    243.96128   -455.76968    263624.46   -25786.541    1974.3541   -27760.895    36.327903   0.81656126 
    9800    240.92362   -315.72886    263624.46   -25726.851    1949.7706   -27676.622    36.553907   0.81656126 
    9900    239.95656   -210.12805    263624.46    -25756.33    1941.9443   -27698.274    36.719652   0.81656126 
   10000    238.12594   -229.60075    263624.46   -25756.183    1927.1293   -27683.312    37.376115   0.81656126 
Loop time of 33.7077 on 80 procs for 10000 steps with 9436 atoms

Performance: 128.161 ns/day, 0.187 hours/ns, 296.669 timesteps/s
97.9% CPU use with 80 MPI tasks x no OpenMP threads

MPI task timing breakdown:
Section |  min time  |  avg time  |  max time  |%varavg| %total
---------------------------------------------------------------
Pair    | 0.00053334 | 7.8143     | 29.027     | 373.7 | 23.18
Neigh   | 0.00051022 | 0.24967    | 0.94265    |  62.9 |  0.74
Comm    | 0.014358   | 10.1       | 30.009     | 349.1 | 29.96
Output  | 0.17837    | 0.17858    | 0.1856     |   0.2 |  0.53
Modify  | 0.60891    | 15.149     | 33.342     | 382.4 | 44.94
Other   |            | 0.2167     |            |       |  0.64

Nlocal:        117.950 ave         372 max           0 min
Histogram: 36 1 20 3 0 0 0 0 2 18
Nghost:        753.587 ave        1256 max           0 min
Histogram: 12 0 0 4 2 20 18 0 8 16
Neighs:         0.00000 ave           0 max           0 min
Histogram: 80 0 0 0 0 0 0 0 0 0
FullNghs:      11550.0 ave       45064 max           0 min
Histogram: 50 10 0 0 0 0 0 2 10 8

Total # of neighbors = 923998
Ave neighs/atom = 97.922637
Neighbor list builds = 587
Dangerous builds = 0
write_data 	    ${DIR}/data.${NAME}_eq
write_data 	    run_4/data.${NAME}_eq
write_data 	    run_4/data.ibeam_cooling_4_eq
System init for write_data ...

undump              1
unfix               4



################################################
#######         Run Simulation         #########
################################################

reset_timestep      0
timestep	    10.0
log                 ${DIR}/log.run_${NAME}
log                 run_4/log.run_${NAME}
log                 run_4/log.run_ibeam_cooling_4
