
### Dimensions ###


### IMPORT ATOMS ###
read_data ../Box_Setup/data.Ibeam_240K
Reading data file ...
  orthogonal box = (0.0000000 0.0000000 0.0000000) to (68.908000 85.848302 27.975384)
  8 by 8 by 2 MPI processor grid
  reading atoms ...
  8493 atoms
  reading velocities ...
  8493 velocities
  read_data CPU = 0.022 seconds
group water type 2
1689 atoms in group water
group graphite type 1
6804 atoms in group graphite


# Define potential
#
pair_style          sw
pair_coeff * * MLC_e.sw C mW

# Add velocity/set timestep
#

fix		1 graphite setforce 0.0 0.0 0.0
velocity 	graphite set 0.0 0.0 0.0
velocity            water create ${START_TEMP} ${SEED} rot yes dist gaussian
velocity            water create 240 ${SEED} rot yes dist gaussian
velocity            water create 240 15311 rot yes dist gaussian
timestep            5.0

# Define output
#
compute 1 water msd
compute 2 water temp


thermo	            100
thermo_style custom step c_2 press vol etotal ke pe c_1[4] density

# Neighbor lists
#
neigh_modify        delay 0 every 1 check yes


# Set fixes
#
fix                 2 water momentum 10 linear 1 1 1 rescale
fix		3 water nvt temp ${START_TEMP} ${START_TEMP} $(100.0*dt)
fix		3 water nvt temp 240 ${START_TEMP} $(100.0*dt)
fix		3 water nvt temp 240 240 $(100.0*dt)
fix		3 water nvt temp 240 240 500

# Run 0.05 ns equilibration
#
dump                1 all custom 100 ${DIR}/eq.${NAME}.dump id type x y z vx vy vz
dump                1 all custom 100 run_1/eq.${NAME}.dump id type x y z vx vy vz
dump                1 all custom 100 run_1/eq.ibeam_cooling_1.dump id type x y z vx vy vz
run                 10000
Neighbor list info ...
  update every 1 steps, delay 0 steps, check yes
  max neighbors/atom: 2000, page size: 100000
  master list distance cutoff = 6.6747184
  ghost atom cutoff = 6.6747184
  binsize = 3.3373592, bins = 21 26 9
  1 neighbor lists, perpetual/occasional/extra = 1 0 0
  (1) pair sw, perpetual
      attributes: full, newton on
      pair build: full/bin/atomonly
      stencil: full/bin/3d
      bin: standard
Per MPI rank memory allocation (min/avg/max) = 3.603 | 4.507 | 4.728 Mbytes
Step c_2 Press Volume TotEng KinEng PotEng c_1[4] Density 
       0          240   -298.97748    165492.15   -16025.669    1207.5858   -17233.255            0    1.1252403 
     100    235.67995   -437.82678    165492.15   -16038.592     1185.849   -17224.441   0.88029171    1.1252403 
     200    237.20577   -598.61699    165492.15   -16037.711    1193.5263   -17231.237    1.3139926    1.1252403 
     300    239.95165   -552.32445    165492.15   -16020.385    1207.3425   -17227.727    1.8384128    1.1252403 
     400     247.6734   -378.84607    165492.15   -16006.823    1246.1953   -17253.019    2.3032681    1.1252403 
     500    240.12882   -348.33916    165492.15   -16030.495     1208.234   -17238.729    2.6318052    1.1252403 
     600    239.50176   -499.96215    165492.15   -16076.906    1205.0788   -17281.984    3.0202226    1.1252403 
     700    233.58143   -560.99875    165492.15   -16092.733      1175.29   -17268.023    3.3977449    1.1252403 
     800    238.23284   -546.10476    165492.15   -16064.095    1198.6941   -17262.789    3.7110882    1.1252403 
     900    243.79303   -696.02794    165492.15   -16000.243    1226.6708   -17226.914    4.3570732    1.1252403 
    1000    243.66256   -283.72249    165492.15   -15991.107    1226.0143   -17217.121    4.9661184    1.1252403 
    1100    238.59352   -354.04622    165492.15   -16016.323    1200.5089   -17216.832     5.713078    1.1252403 
    1200    236.35299   -511.31673    165492.15   -16053.721    1189.2354   -17242.956    6.1697514    1.1252403 
    1300    243.07232   -367.86652    165492.15   -16075.981    1223.0445   -17299.025    6.4871769    1.1252403 
    1400    238.16976   -361.01944    165492.15   -16106.439    1198.3767   -17304.816    6.7823243    1.1252403 
    1500    232.09172   -540.39902    165492.15   -16164.678    1167.7944   -17332.472    7.0008144    1.1252403 
    1600    235.42918   -499.91761    165492.15   -16179.393    1184.5872   -17363.981    7.1758328    1.1252403 
    1700    235.90152   -369.10638    165492.15   -16131.249    1186.9638   -17318.213    7.2422427    1.1252403 
    1800    235.38867   -357.18684    165492.15   -16103.717    1184.3834   -17288.101    7.2574419    1.1252403 
    1900    238.67028   -531.63353    165492.15    -16067.03    1200.8951   -17267.926    7.6444259    1.1252403 
    2000    238.17142   -420.09468    165492.15   -16039.467    1198.3851   -17237.852    7.8420015    1.1252403 
    2100    248.12002   -516.06061    165492.15   -16014.396    1248.4425   -17262.838    8.0593629    1.1252403 
    2200    251.02544   -662.67048    165492.15   -15980.091    1263.0615   -17243.153    8.3626132    1.1252403 
    2300    246.95203   -173.60693    165492.15   -15947.361    1242.5657   -17189.926    8.9985987    1.1252403 
    2400    243.30702   -528.62854    165492.15   -15981.655    1224.2254    -17205.88    9.3997939    1.1252403 
    2500    237.66114   -737.24859    165492.15   -16035.613    1195.8176    -17231.43     9.889455    1.1252403 
    2600    234.01827   -458.87422    165492.15   -16030.492     1177.488    -17207.98    10.168492    1.1252403 
    2700    238.86949   -451.53826    165492.15   -15999.941    1201.8975   -17201.838    10.448137    1.1252403 
    2800    241.17754   -510.32471    165492.15   -15967.051    1213.5107   -17180.561    10.750625    1.1252403 
    2900    242.94269   -628.81461    165492.15    -15922.58    1222.3922   -17144.972     11.26672    1.1252403 
    3000     246.4479   -430.18196    165492.15   -15884.233    1240.0291   -17124.262    11.590496    1.1252403 
    3100    253.07904   -372.74902    165492.15   -15947.789    1273.3944   -17221.184    12.080418    1.1252403 
    3200    237.54447   -551.15369    165492.15   -15993.989    1195.2305   -17189.219    12.747933    1.1252403 
    3300     237.5984   -396.90425    165492.15   -16025.448    1195.5018    -17220.95    13.157169    1.1252403 
    3400    240.17941   -522.84788    165492.15   -16054.862    1208.4885    -17263.35    13.539921    1.1252403 
    3500    243.51762   -262.43912    165492.15    -16071.47    1225.2851   -17296.755    13.928562    1.1252403 
    3600    231.51837   -507.80922    165492.15   -16080.537    1164.9095   -17245.446    14.463305    1.1252403 
    3700    234.15458   -566.23063    165492.15    -16021.66    1178.1739   -17199.834    15.114293    1.1252403 
    3800    236.80971   -643.40315    165492.15   -15979.143    1191.5335   -17170.677    15.623944    1.1252403 
    3900    241.23921   -523.85091    165492.15   -15959.521     1213.821   -17173.342    16.348123    1.1252403 
    4000    244.02415   -373.00544    165492.15     -15931.7    1227.8337   -17159.533    16.912057    1.1252403 
    4100     243.9096   -382.85528    165492.15   -15911.048    1227.2573   -17138.306    17.482171    1.1252403 
    4200    234.15414   -456.24809    165492.15   -15955.202    1178.1717   -17133.374    17.934255    1.1252403 
    4300    236.44194   -395.32569    165492.15   -15995.964     1189.683   -17185.647    18.321541    1.1252403 
    4400    238.06969   -241.98359    165492.15   -15991.007    1197.8732    -17188.88    18.776532    1.1252403 
    4500    244.50601   -569.89979    165492.15   -15977.005    1230.2583   -17207.264    19.411368    1.1252403 
    4600    239.63478   -658.14378    165492.15   -15930.464    1205.7481   -17136.212    20.047632    1.1252403 
    4700      248.525   -619.14551    165492.15   -15904.735    1250.4802   -17155.215    20.676106    1.1252403 
    4800    244.46597   -343.95378    165492.15    -15949.89    1230.0568   -17179.947    21.412896    1.1252403 
    4900    245.50527   -296.72672    165492.15   -15984.336    1235.2861   -17219.622    22.059446    1.1252403 
    5000    246.14356   -567.19405    165492.15   -16001.541    1238.4978   -17240.039    22.656437    1.1252403 
    5100    242.56141   -427.96424    165492.15   -16027.082    1220.4738   -17247.556    22.766034    1.1252403 
    5200    236.41094   -525.67472    165492.15   -16052.341     1189.527   -17241.868    23.153384    1.1252403 
    5300    235.69087   -383.00405    165492.15   -16052.929    1185.9039   -17238.833    23.560451    1.1252403 
    5400     246.3513   -662.05933    165492.15   -16000.751     1239.543   -17240.294    23.769809    1.1252403 
    5500    239.59736    -469.8989    165492.15    -15975.75    1205.5598    -17181.31    24.146858    1.1252403 
    5600    241.60283   -517.13836    165492.15   -16001.044    1215.6506   -17216.694    24.256988    1.1252403 
    5700    243.14668   -475.42845    165492.15   -16052.326    1223.4186   -17275.745    24.741585    1.1252403 
    5800    235.33633    -473.8096    165492.15    -16065.11      1184.12    -17249.23    25.237918    1.1252403 
    5900    245.34853   -383.58919    165492.15   -16079.563    1234.4975    -17314.06    25.526739    1.1252403 
    6000     236.0812   -465.45205    165492.15   -16102.848    1187.8679   -17290.716    25.901719    1.1252403 
    6100    233.47774   -553.40798    165492.15   -16127.462    1174.7683   -17302.231     26.41814    1.1252403 
    6200    239.49789   -420.87871    165492.15    -16134.86    1205.0594   -17339.919    27.095465    1.1252403 
    6300    235.69213   -581.05287    165492.15   -16092.343    1185.9102   -17278.254    27.600556    1.1252403 
    6400      240.627   -599.52294    165492.15   -16056.988    1210.7406   -17267.728    28.105304    1.1252403 
    6500    245.80586   -346.07703    165492.15   -16057.996    1236.7986   -17294.794      28.5177    1.1252403 
    6600     237.3563   -527.10043    165492.15   -16095.296    1194.2837   -17289.579    28.657149    1.1252403 
    6700    234.25499   -372.53393    165492.15   -16150.377    1178.6791   -17329.056    28.721404    1.1252403 
    6800    233.44342   -543.06438    165492.15   -16132.234    1174.5956   -17306.829    28.922956    1.1252403 
    6900     241.2754   -424.56943    165492.15   -16105.532    1214.0031   -17319.536    29.189444    1.1252403 
    7000    235.82962    -422.6316    165492.15   -16086.846    1186.6021   -17273.449    29.657712    1.1252403 
    7100    243.30056   -503.49024    165492.15   -16090.533    1224.1929   -17314.726    30.009459    1.1252403 
    7200     238.8464   -469.53574    165492.15   -16128.601    1201.7813   -17330.383    29.894626    1.1252403 
    7300    236.48432     -453.091    165492.15   -16175.325    1189.8962   -17365.221    29.785113    1.1252403 
    7400    231.32529   -397.23189    165492.15   -16187.532     1163.938    -17351.47    30.199463    1.1252403 
    7500    240.25272    -361.7911    165492.15   -16134.998    1208.8573   -17343.855    30.976766    1.1252403 
    7600    239.73064   -733.68021    165492.15   -16092.871    1206.2305   -17299.101    31.090277    1.1252403 
    7700    236.62851   -508.32165    165492.15   -16082.943    1190.6218   -17273.564     31.57056    1.1252403 
    7800     240.5362   -428.11102    165492.15    -16084.67    1210.2837   -17294.953    32.061086    1.1252403 
    7900    243.24956    -605.0164    165492.15   -16107.527    1223.9363   -17331.463    32.271667    1.1252403 
    8000     233.9203    -819.5524    165492.15    -16146.98    1176.9951   -17323.975    32.428838    1.1252403 
    8100    238.39662   -560.07022    165492.15   -16170.639    1199.5182   -17370.157    32.282026    1.1252403 
    8200     240.7068   -611.29358    165492.15   -16113.563    1211.1421   -17324.705    32.706571    1.1252403 
    8300    243.39188   -602.80123    165492.15   -16073.697    1224.6524   -17298.349    33.200019    1.1252403 
    8400    237.12665   -441.13663    165492.15   -16076.572    1193.1282     -17269.7    33.381095    1.1252403 
    8500    241.25612   -602.02034    165492.15   -16103.083    1213.9061   -17316.989    33.525666    1.1252403 
    8600      240.151   -547.18741    165492.15   -16130.611    1208.3455   -17338.957     33.71504    1.1252403 
    8700    235.22774   -501.29191    165492.15   -16163.585    1183.5736   -17347.158    33.714414    1.1252403 
    8800    229.11458   -572.77626    165492.15   -16195.178    1152.8146   -17347.992    34.008705    1.1252403 
    8900    234.64627   -603.84251    165492.15    -16191.27    1180.6479   -17371.918    34.582541    1.1252403 
    9000    244.12985   -312.42905    165492.15   -16128.567    1228.3656   -17356.933    34.790799    1.1252403 
    9100    242.50521   -388.50425    165492.15   -16118.671     1220.191   -17338.862    35.041978    1.1252403 
    9200    243.14849   -511.21885    165492.15   -16136.202    1223.4277    -17359.63    35.305339    1.1252403 
    9300    234.68062   -380.27801    165492.15   -16178.634    1180.8207   -17359.455    35.287024    1.1252403 
    9400    231.50778   -515.21906    165492.15   -16209.143    1164.8562       -17374    35.485521    1.1252403 
    9500    241.18241   -659.46319    165492.15   -16168.592    1213.5352   -17382.127    35.853278    1.1252403 
    9600    234.79778    -408.4079    165492.15   -16109.528    1181.4103   -17290.938    36.066598    1.1252403 
    9700    240.56023   -474.48028    165492.15   -16105.719    1210.4046   -17316.124    36.435414    1.1252403 
    9800    236.02025   -597.72479    165492.15   -16114.506    1187.5612   -17302.067    37.062692    1.1252403 
    9900     242.5228   -482.00849    165492.15   -16133.315    1220.2795   -17353.595    37.540777    1.1252403 
   10000    233.55297   -393.48921    165492.15    -16174.84    1175.1468   -17349.987    37.819061    1.1252403 
Loop time of 5.93166 on 128 procs for 10000 steps with 8493 atoms

Performance: 728.295 ns/day, 0.033 hours/ns, 1685.869 timesteps/s
96.7% CPU use with 128 MPI tasks x no OpenMP threads

MPI task timing breakdown:
Section |  min time  |  avg time  |  max time  |%varavg| %total
---------------------------------------------------------------
Pair    | 0.00076699 | 1.8387     | 4.4042     | 117.2 | 31.00
Neigh   | 0.0042343  | 0.13224    | 0.30877    |  27.8 |  2.23
Comm    | 0.19402    | 1.6438     | 3.8072     |  77.8 | 27.71
Output  | 0.14726    | 0.14737    | 0.14824    |   0.0 |  2.48
Modify  | 0.203      | 2.0895     | 5.5046     | 133.8 | 35.23
Other   |            | 0.08001    |            |       |  1.35

Nlocal:        66.3516 ave         138 max           0 min
Histogram: 32 3 13 16 0 0 2 27 24 11
Nghost:        697.648 ave         911 max         491 min
Histogram: 17 3 18 14 10 18 10 22 3 13
Neighs:         0.00000 ave           0 max           0 min
Histogram: 128 0 0 0 0 0 0 0 0 0
FullNghs:      6951.92 ave       16348 max           0 min
Histogram: 42 22 0 0 0 0 10 31 13 10

Total # of neighbors = 889846
Ave neighs/atom = 104.77405
Neighbor list builds = 567
Dangerous builds = 0
write_data 	    ${DIR}/data.${NAME}_eq
write_data 	    run_1/data.${NAME}_eq
write_data 	    run_1/data.ibeam_cooling_1_eq
System init for write_data ...

undump              1
unfix 		3



################################################
#######         Run Simulation         #########
################################################

reset_timestep      0
timestep	    10.0
log                 ${DIR}/log.run_${NAME}
log                 run_1/log.run_${NAME}
log                 run_1/log.run_ibeam_cooling_1
