LAMMPS data file via write_data, version 7 Aug 2019, timestep = 200000

4095 atoms
1 atom types

2.3958207464708181e-01 5.1180417925354085e+01 xlo xhi
2.3958207464708181e-01 5.1180417925354085e+01 ylo yhi
2.3958207464708181e-01 5.1180417925354085e+01 zlo zhi

Masses

1 18.15

Atoms # atomic

3492 1 4.0954624743452630e+00 2.8941550600643731e+00 1.2300949750371317e+00 1 1 0
3157 1 6.8736988301829074e+00 2.9608484075537977e+00 2.6340434427884096e+00 1 1 0
2870 1 9.2875429850801599e+00 3.1446133655555064e+00 1.2248793283499433e+00 0 0 1
1063 1 1.4508993234349589e+01 2.3770356508545474e+00 5.8176704953155314e+00 0 1 0
1889 1 1.2262516503393988e+01 2.3173235983916789e+00 2.5359101266843265e+00 0 0 1
1545 1 2.5012469359757123e+01 1.0098788393143611e+01 1.6070917855578976e+01 0 1 0
3152 1 1.7297715691444115e+01 3.3645494295263614e+00 1.2756351388082900e+00 0 1 0
19 1 1.5648548046754653e+01 2.4942847692303708e+01 7.9206321233642276e+00 0 0 0
2613 1 1.4848948041225425e+01 2.3364241906982994e+00 3.0668553697467225e+00 1 0 1
42 1 2.2617421906820322e+01 1.3194568876934050e+00 2.7135314767650254e+00 0 0 0
165 1 2.8962792955479295e+00 8.4230485625429612e+00 2.3456356555674676e+00 0 0 0
1810 1 1.5053207084692628e+01 1.5262046981674075e+01 1.9882899606336950e+00 0 0 1
678 1 5.4943186327785449e+00 6.9231284373662278e+00 2.3392077119644759e+00 0 0 0
2092 1 4.1852663177671632e+00 1.9605881434116554e+01 8.8627895221740793e-01 1 0 0
3250 1 1.2452506845574396e+01 4.8034374357124738e+00 6.2740784905852909e+00 1 1 0
832 1 1.3056255927416753e+01 4.5493991852914943e+00 5.0557769700756294e-01 0 0 1
2451 1 1.5536718412811961e+01 5.8247831635686369e+00 1.3622206360551512e+00 0 0 0
3790 1 9.7525865006746093e-01 3.7328171332505198e+00 1.7057012836854820e+01 1 1 0
3008 1 2.1930239416355057e+01 3.4149581136825220e+00 1.4446615743814006e+00 0 0 1
3968 1 2.2733449818018570e+01 5.5642784974377388e+00 3.1730758073550831e+00 0 1 1
3809 1 2.0436858759721392e+01 1.0893880293697293e+01 3.1693259198384256e+00 0 1 1
2257 1 9.0377674798434415e-01 1.4345027777400913e+01 7.7044393833498264e+00 1 0 0
494 1 1.0635547955197911e+01 7.6063906003805959e-01 4.3372544458614195e+00 0 0 0
2128 1 2.9930727981014500e+00 1.1069283041302830e+01 2.2348811252138390e+00 1 0 0
3315 1 1.1126698322362561e+01 6.6606414984376583e+00 1.2503273033350892e+00 1 0 0
2127 1 1.2378544572021672e+01 8.3946055318459578e+00 3.0319140498548682e+00 1 0 0
880 1 1.6238733063163302e+01 9.6909311784083005e+00 1.4922676994149402e+00 0 0 1
1371 1 1.9682457121592993e+01 7.6988798429919614e+00 1.3357778351021494e+00 0 0 0
1903 1 2.1825303358701131e+01 8.0202560869277022e+00 2.7519147716333516e+00 0 1 1
890 1 2.1673682848064519e+01 2.5415356952484988e+01 5.6066798621881073e+00 0 0 1
1142 1 2.5607738388838314e+01 2.2601900456188559e+01 1.2637194865860149e+01 -1 0 0
81 1 5.7177561176761733e+00 1.3765510350286501e+01 2.1623192111345828e+00 0 0 0
2178 1 7.5457070397011732e+00 8.4600215388685562e+00 1.3246803867616628e+00 1 0 0
216 1 1.1142913613262568e+01 1.1941069612906018e+01 1.3440398605420905e+00 0 0 0
1055 1 1.3713990041814046e+01 1.0727169160559455e+01 2.1922100167977763e+00 0 0 0
173 1 1.8093257053990634e+01 9.5797072992153431e+00 3.6493084639132869e+00 0 0 0
1521 1 2.1532315695829290e+01 1.0841177453644466e+01 2.5644600789019861e-01 0 0 0
875 1 1.5182156283003032e+00 1.6534063830448531e+01 2.6730605573350008e+00 0 0 1
2119 1 1.4411444122183667e+01 2.4078340566283192e+01 1.4111690513390755e+01 0 0 0
963 1 3.9005173044884738e+00 1.5293657414701370e+01 3.9217677975142653e+00 0 0 1
1519 1 9.6322381587370689e+00 1.2257576223984335e+01 3.4146776405702672e+00 0 0 0
1005 1 1.5760825562201696e+01 1.6980846763977091e+01 4.6100920572303412e+00 0 0 1
241 1 1.7098669897533579e+01 1.4001203877225068e+01 3.7895495673929367e+00 0 0 0
2972 1 2.0759815871497310e+01 1.7998751845265424e+01 4.2991067225489097e+00 0 0 1
3279 1 1.8959690783894935e+01 1.3105681849121257e+01 1.8613408137439873e+00 0 1 0
1425 1 1.1724139443929614e+01 2.5168503189548829e+01 1.0645903826595399e+01 0 0 0
3820 1 2.2492572304143533e+01 1.2961126461047131e+01 1.9881285882973789e+00 0 0 1
3075 1 1.1863698501431971e+01 2.5117741563238624e+01 1.4023351830492004e+01 1 0 0
497 1 5.7316835054610547e+00 1.7776680368832150e+01 2.3334946855164129e+00 0 0 0
367 1 2.2502727338466877e+00 2.0157728284661342e+01 2.5176447384499911e+00 0 0 0
2716 1 9.1042482726408505e+00 1.7270347194951622e+01 2.4428152065574489e+00 1 0 1
3829 1 1.2597259280432642e+01 1.4687791960501059e+01 3.5278509202069621e+00 0 0 1
329 1 1.8142503575253826e+01 1.7328835755327059e+01 3.6000536788808071e+00 0 0 0
3200 1 2.0003778155450966e+01 1.9782461366406388e+01 1.8682772011151627e+00 0 0 0
713 1 2.2852592572329275e+01 1.7819975345717907e+01 2.7109157995262838e+00 0 0 1
1186 1 1.1147038277124677e+01 2.1255714680654144e+01 1.5837418881337545e+01 0 1 0
3114 1 2.5202570687687903e+01 1.0251304484734861e+01 4.6128529610433411e+00 0 0 0
55 1 2.5222775095542151e+01 1.5249225644539408e+01 1.4067352677058455e+01 0 0 0
342 1 5.5837383020110982e+00 2.0658737270348304e+01 1.5397983872959349e+01 0 0 0
2592 1 7.4968097366064725e+00 1.9181226751559656e+01 4.0268602809106726e+00 1 0 0
485 1 1.2292240612306751e+01 1.7314638551019776e+01 1.7007808983323778e+00 0 0 0
3188 1 1.1672957768815238e+01 1.8280109465855261e+00 6.7554457243188457e+00 0 0 0
2731 1 6.6639935189926875e+00 2.5062892616468311e+01 1.4942503869530309e+01 1 0 1
3570 1 1.9615332903835931e+01 2.1348068158010381e+01 5.6754282353428316e+00 0 0 0
1883 1 3.7415283879768841e+00 2.6875897319872327e-01 6.4177024374432401e+00 0 1 1
564 1 2.5663955822386868e+01 2.5529947297515140e+01 4.9187154923573919e+00 0 0 0
995 1 1.4627808773117925e+00 2.8556040938522131e-01 2.9362239718148651e+00 1 0 1
1584 1 3.5204830022045508e+00 2.4211549392541539e+01 2.4374790658590908e+00 0 -1 0
343 1 5.3107751933390723e+00 2.2436682868309266e+01 1.4647754497767369e+00 0 0 0
3077 1 1.8362115357502837e+00 2.4864250922787225e+01 1.5154373576358884e+01 1 0 1
2401 1 1.1248788452906846e+01 2.1349957576215971e+01 2.2225942873935187e+00 1 0 0
808 1 1.0451711365496505e+01 2.4189482531199843e+01 1.5364927779494069e+00 0 0 1
3641 1 8.7528577360362245e+00 8.5636013407428790e-01 1.6803286573710842e+01 1 1 0
3801 1 4.3430697858280176e-01 4.3984407749042358e+00 3.4566885363449327e+00 1 1 1
994 1 2.1377874176264978e+01 2.1560659811783374e+01 3.2424410758350102e+00 0 -1 1
2926 1 2.8447129208166015e+00 2.4449108147245826e+00 3.3920250584655722e+00 1 0 1
1146 1 2.2706769290813046e+01 2.5598143983848640e+01 1.0908184761319182e+01 0 0 0
442 1 2.5055576635869027e+01 1.2120154453961238e+01 2.6793191176745879e+00 0 0 0
720 1 8.9778775512943465e+00 3.2191482416125301e+00 6.7102963668699926e+00 0 0 1
3668 1 1.0580212500559325e+01 1.9654943131885634e+01 4.5077906142283714e-01 1 0 1
1667 1 1.8839145318135916e+01 2.5258641121555638e+00 3.9674570014138739e+00 0 1 1
950 1 1.8278422198444233e+01 1.0515780155455441e+00 6.1589968320947079e+00 0 0 0
171 1 2.4034738102099045e+01 8.0374455605935680e-01 5.0957243261898499e+00 0 0 0
3374 1 1.4005217120422389e+00 1.7054926850818973e+01 7.8594435727979697e+00 1 1 0
2089 1 4.2889541034159748e+00 6.2358691923163345e+00 5.8329736503418328e+00 0 0 0
3608 1 6.3601536875754823e+00 5.0514796281641914e+00 4.1302436385588530e+00 1 1 1
1086 1 8.8087225856815845e+00 5.3854594039968386e+00 5.1011444153668482e+00 0 1 0
1171 1 1.1271934508792755e+01 4.9027800112917035e+00 3.8499439519626866e+00 0 1 0
758 1 1.3217571660566714e+01 8.6256500652289354e+00 7.3880587995517715e+00 0 0 0
190 1 1.4486734400338356e+01 6.5821133612832190e+00 6.0581544031810814e+00 0 0 0
2368 1 2.0695891243297687e+01 4.2515929832406423e+00 4.6569542821213972e+00 0 0 0
1328 1 2.2801123567061740e+01 3.0443214252995183e+00 5.8110411764258556e+00 0 1 0
2379 1 5.3999056111362433e+00 1.1549053093730457e+01 3.5281034356089367e+00 1 0 0
3228 1 4.7602106178401353e+00 7.9747742538300450e+00 7.9142185098764859e+00 1 1 0
1555 1 8.6074750270970597e+00 8.5168970332082274e+00 5.8088704609160899e+00 0 1 0
1547 1 6.9551862592057034e+00 9.2016241105410970e+00 8.1928747826909145e+00 0 1 0
3435 1 1.5171116233920424e+01 7.3258397782159310e+00 3.5691968887580043e+00 0 1 0
3455 1 1.3750026089191708e+01 1.1213345569704922e+01 9.5034624560393173e+00 0 0 0
1321 1 1.8254633090483416e+01 6.5793483978928311e+00 3.7411877955538273e+00 0 1 0
263 1 2.2910791652750778e+01 9.0475120293074500e+00 5.1112727677196501e+00 0 0 0
161 1 1.3724965977535213e+00 9.3985133383105914e+00 5.8412693139024467e+00 0 0 0
657 1 7.7361108962389054e+00 9.8403216354432388e+00 3.4741190781330871e+00 0 0 0
2514 1 5.1642718949730479e+00 1.1826643768469198e+01 5.9788701226002887e+00 1 0 0
1781 1 1.1202245705495109e+01 9.0411636110092921e+00 5.4844074766892446e+00 0 0 1
3193 1 1.1182322063021571e+01 1.1426422666372552e+01 5.5358778696120012e+00 1 0 0
3830 1 1.7888257551319899e+01 9.4490514223144686e+00 6.3716210599397716e+00 0 0 1
368 1 2.1620119315838352e+01 1.3622724917132706e+01 4.7309205130316823e+00 0 0 0
90 1 2.1487133664850930e+01 1.1060336967830111e+01 5.9196758359398780e+00 0 0 0
1725 1 8.4222301932293462e+00 2.5152749886950004e-01 9.4369100006760220e+00 0 1 0
743 1 1.3043844575447268e+00 1.2391181064518454e+01 4.1425244849983054e+00 0 0 0
3835 1 2.9391561513245565e+00 1.3531547762881617e+01 6.1393294135314864e+00 1 0 1
2273 1 3.7254341200939378e+00 1.7121399949947183e+01 6.2928951376688591e+00 1 0 0
17 1 8.4394006240258150e+00 1.4704703437584845e+01 3.3183555201286117e+00 0 0 0
330 1 6.6769180296317652e+00 1.5007735246381992e+01 5.5545025188525088e+00 0 0 0
2560 1 1.3616106342520483e+01 1.2355246869307473e+01 4.5337424652095102e+00 1 0 1
599 1 1.5232763547252985e+01 1.3547459041860131e+01 6.5407167125110783e+00 0 0 0
576 1 1.5823028554982498e+01 1.6586381203438059e+01 7.1893481231850043e+00 0 0 0
2588 1 1.9531063197539286e+01 1.5229135560881435e+01 5.1362070646801952e+00 0 0 0
1004 1 2.4050706830086099e+01 1.5579420740555246e+01 3.3322143032175018e+00 0 0 1
1272 1 2.3535752054453297e+01 1.4858786025448531e+01 6.2990420198781267e+00 -1 0 0
2202 1 3.8738364399226257e+00 1.9694279147838404e+01 4.6550306908721000e+00 1 0 0
231 1 6.9307101807814169e+00 2.1544343241393836e+01 3.3967903378918387e+00 0 0 0
218 1 8.1051910416244155e+00 1.7792401679690773e+01 6.1307544738017725e+00 0 0 0
894 1 1.0543800179614593e+01 1.6277870591153281e+01 5.2314616341256031e+00 0 0 1
392 1 1.1977818062825648e+01 1.8768257539063647e+01 5.2041861984911586e+00 0 0 0
335 1 1.7869196545806275e+01 1.8121553523182754e+01 8.2385212843309077e+00 0 0 0
1410 1 1.9884516144720035e+01 1.9022181209401065e+01 6.6310511760099580e+00 0 0 0
1920 1 1.2080558045309928e+00 2.2710281754338965e+01 1.8873631005532736e+00 0 0 0
288 1 5.1754030300163247e+00 2.1597662651089227e+01 6.0011639294000156e+00 0 0 0
3617 1 1.0013426928315150e+01 2.2941277590023798e+01 6.1385528917929975e+00 0 0 0
277 1 1.0039405564345666e+01 2.0408333902890011e+01 4.4427658048405272e+00 0 0 0
3137 1 1.3958832298911405e+01 2.1460083209439215e+01 2.1742991712456261e+00 0 0 0
2216 1 1.7079969020097927e+01 2.0081830273842918e+01 2.8138754379721913e+00 0 0 0
114 1 1.7167726960949185e+01 2.2118626682826559e+01 4.7796767436772472e+00 0 0 0
2188 1 2.1995595798348589e+01 2.2965213201756985e+01 6.6395421482648347e+00 0 0 0
3185 1 2.3662565808211511e+01 1.8858097310146011e+01 5.5749440430141091e+00 0 0 0
2862 1 2.0337894317453788e+01 2.5478686244681583e+01 9.6956638540458862e+00 0 0 1
572 1 2.9676232534760754e+00 2.3256493527441751e+01 5.3467070575219173e+00 0 0 0
3458 1 7.5817961807142069e+00 2.3799088503998519e+01 4.9186823681797991e+00 1 1 0
2726 1 1.2203450214926775e+01 2.4813256980294206e+01 5.0258100152843390e+00 0 0 0
2728 1 1.3950429049434600e+01 2.4163313227340002e+01 2.8250802835174142e+00 1 0 1
783 1 1.8502170405495537e+01 2.4850654301802265e+01 4.2052923239253026e+00 0 0 0
1875 1 1.9015497991751296e+01 2.3573348544698518e+01 7.6198300302595374e+00 0 0 1
3917 1 2.1991749961835321e+01 2.4569120071236259e+01 2.7987434737809478e+00 1 0 1
2493 1 9.0806878740312913e-01 5.0675670280499174e+00 6.9572306416452339e+00 0 0 0
548 1 5.4675030195135275e+00 2.2859067158902828e+00 6.5476275150627288e+00 0 0 0
989 1 1.7769108504164681e+01 1.7023952165827179e+01 8.0926740502832128e-01 0 0 1
752 1 4.5807695316560892e-01 7.9799568343348550e+00 1.2109599995136788e+00 1 0 1
1264 1 1.2582815554680712e+01 3.1948222813761231e+00 9.6208818377068113e+00 0 1 0
120 1 1.4748271357474358e+01 1.5034221333118263e+00 9.7084869700574465e+00 0 0 0
1301 1 1.5980339091175113e+01 2.5312158872058117e+01 1.0495572314345738e+01 0 0 0
1636 1 1.8964536807222267e+01 3.1378379603558391e+00 8.1370612495187640e+00 0 1 0
2193 1 2.1793997864612919e+01 2.6142214057198587e+00 8.3208521644173921e+00 0 0 0
386 1 3.1683077611350425e+00 3.7595586829811150e+00 6.0546395276629132e+00 0 0 0
2748 1 3.8884866513877552e+00 6.6421525442020792e+00 1.0191479598451799e+01 1 0 1
1615 1 6.0767240744840780e+00 5.0015105868355496e+00 9.6403111603859006e+00 0 1 0
1175 1 1.0613414507336460e+01 5.1239790558271174e+00 8.5993126511781686e+00 0 1 0
3386 1 1.6032978311024621e+01 4.0416295132865239e+00 7.5299318949672225e+00 1 1 0
3888 1 1.7342592278661424e+01 6.9726397367620931e+00 6.7071013855397084e+00 0 1 1
2256 1 1.9531813650677179e+01 5.3093507321363775e+00 7.0270097459376561e+00 1 0 0
2993 1 2.3845030242125468e+01 5.1702410182527778e+00 7.0442864382406469e+00 0 0 1
517 1 6.3414040307545616e-01 1.4264219695081923e+01 1.4838911801419792e+01 0 0 0
1384 1 8.8391898481079849e+00 7.2027881433985854e+00 9.6543197290072005e+00 0 1 0
1080 1 1.1892384716400203e+01 9.6068138125369078e+00 1.1112985914718958e+01 0 1 1
1374 1 1.2190963571940328e+01 7.3180698839952001e+00 9.2355740468694645e+00 0 0 1
182 1 1.5901366152683458e+01 1.1081687627152402e+01 7.3798483858739701e+00 0 0 0
605 1 1.6093959868679157e+01 7.6662933973903602e+00 9.0338166256014976e+00 0 0 0
643 1 2.0086024544376837e+01 9.7419887614335732e+00 7.9161171886571928e+00 0 0 0
2381 1 2.0832214787985414e+01 7.0873962213470181e+00 8.7695300629706718e+00 0 0 0
3480 1 2.3152185031282443e+01 7.6830752457950755e+00 7.6383143764828079e+00 0 1 0
2038 1 1.0995469613681895e+01 2.4481323521557113e-01 9.0324449433639238e+00 0 1 1
196 1 3.2821788467548090e+00 1.0166411886967994e+01 7.4337099315491528e+00 0 0 0
2971 1 3.5942007079677367e+00 1.1628802129836982e+01 1.0063702155931843e+01 1 0 1
1210 1 6.3203502141730343e+00 1.1697201936551792e+01 9.5080042573902972e+00 0 0 0
928 1 1.0467951147741235e+01 1.1829169960209832e+01 1.0060604668815220e+01 0 0 1
280 1 1.3249105077055928e+01 1.4135437883504714e+01 8.3381542514977749e+00 0 0 0
1655 1 1.7898049468008907e+01 1.3060736367660015e+01 8.6506942849471713e+00 0 0 0
1115 1 1.6111179832035290e+01 1.2547721600539189e+01 1.0900507510463157e+01 0 0 0
475 1 2.3494295362205069e+01 1.2355090609484428e+01 7.5833141405694260e+00 0 0 0
1787 1 2.3192254981309414e+01 1.2746191643511326e+01 1.0300014376104770e+01 0 0 1
400 1 7.1933473785831232e+00 1.4029237869939939e+00 4.6290391971121378e+00 0 0 0
2143 1 1.3584445763835944e+00 1.3096609370245362e+01 1.0283567743611753e+01 1 0 0
2298 1 7.1597976259520433e+00 1.3181194744275272e+01 7.3381390007464660e+00 1 0 0
2446 1 7.4995271495406088e+00 1.5134368385094229e+01 9.7372743732983338e+00 1 0 0
571 1 9.8235759144103980e+00 1.2871933838728143e+01 7.5173929822981833e+00 0 0 0
2633 1 1.0863418698363759e+01 1.5271771669814530e+01 7.6070352572295237e+00 1 0 0
3752 1 1.0049197572741349e+01 1.6852551845032277e+01 9.5813740273138617e+00 1 0 1
2076 1 1.5818189845187179e+01 1.5441647587829351e+01 1.0280361815073672e+01 0 0 0
2476 1 1.8849655617225281e+01 1.5309898435189321e+01 7.5512967694481148e+00 0 0 0
1366 1 1.8366234527809464e+01 1.6053038554233446e+01 1.1179968291651031e+01 0 0 0
496 1 2.5013634926703972e+01 1.7123454074972337e+01 1.0292240211047980e+01 0 0 0
500 1 1.1520716346190360e+01 1.4757512017302302e+01 3.8579473161395683e-01 0 0 0
2344 1 1.5959829390845128e+00 2.0086836162029488e+01 6.7276334439228132e+00 1 0 0
1273 1 6.0408620401537041e+00 1.7148957390978520e+01 8.0892605248143603e+00 0 0 0
1054 1 5.5907688791354673e+00 1.9113582075391911e+01 9.8769747027757404e+00 0 0 0
1223 1 9.0615997330255205e+00 1.9166919239315217e+01 8.4814629264901331e+00 0 0 0
626 1 1.1825067369262065e+01 1.9751473669449037e+01 7.6680724565538698e+00 0 0 0
2532 1 1.3159509390611493e+01 1.7525471876547638e+01 8.7619491946672028e+00 1 0 0
1923 1 2.2094312944068175e+01 1.8636085748991782e+01 7.8987171689333335e+00 0 0 1
282 1 2.1495187580162195e+01 1.6152412725835880e+01 8.5576667949653391e+00 0 0 0
2173 1 1.9795345707759626e+00 2.2299227318207368e+01 7.9790736573681444e+00 1 0 0
2329 1 2.3160955804928939e+01 8.3772688758792189e+00 1.6997230841695821e+01 0 0 0
687 1 6.2304013714269866e+00 2.1327482130678074e+01 8.7429546765463382e+00 0 0 0
377 1 4.2056319611586819e+00 2.2908744430959487e+01 9.4749889520005084e+00 0 0 0
141 1 8.9705231159408338e+00 2.2211778820777500e+01 8.7950702293710687e+00 0 0 0
3551 1 1.3940455210340978e+01 1.8755176445245837e+01 3.2848451137819823e+00 1 0 0
296 1 1.9921953596304395e+01 2.1789045024140592e+01 1.0313940379028622e+01 0 0 0
2027 1 1.5647801109002897e+01 2.2427402736037507e+01 7.0023429591829141e+00 0 0 1
1257 1 1.7285811591995273e+01 2.1131543817521749e+01 8.7216972302042208e+00 0 1 0
1750 1 2.2404096733761943e+01 2.2789421287571997e+01 9.2821956980505167e+00 0 0 1
2021 1 5.3315107703593583e+00 2.5326569890285942e+01 8.8946125029830494e+00 0 0 1
1966 1 5.7492170168579069e+00 2.5249048628415174e+01 6.4662865323606464e+00 0 0 1
447 1 8.9472093699038773e+00 2.4642804203279919e+01 1.0174198131494700e+01 0 0 0
52 1 2.5336307106231633e+01 2.3367408649159906e+01 1.0116267864073301e+00 0 0 0
553 1 1.2732739947473053e+01 2.2599319652281064e+01 1.0527528405459798e+01 0 0 0
3149 1 1.2613809950045681e+01 2.2312065848389835e+01 7.7177450961700673e+00 0 0 0
1535 1 1.5067265194523618e+01 2.2768276972642582e+01 1.1526814323538538e+01 0 1 0
1193 1 1.1806408218233660e+01 1.1076268331608503e+00 1.3440916454175831e+01 0 1 0
248 1 2.5631648088762464e+01 5.6400580676435093e+00 3.8576229996188660e+00 0 0 1
1946 1 1.5337118729796948e+01 3.9344962862988903e-01 1.5655660659476021e+01 0 1 1
2920 1 2.5075967676703634e+01 2.3845439503159099e+01 8.5198122898116608e+00 0 0 1
641 1 1.3310842486214650e+01 1.9927361814231968e+01 1.5110031964524639e+01 0 0 0
870 1 2.5585969470083416e+00 2.4300095669490549e+00 1.1284753374594468e+01 0 0 1
638 1 1.0368809231544243e+00 1.7379473065015796e+00 1.3182586889190903e+01 0 0 0
2436 1 5.0471286087548162e+00 1.4064868917857554e+00 1.0974630739595741e+01 1 0 0
1656 1 2.0120458883346853e+01 4.6186960595690080e-01 2.5417564204225034e+00 1 1 0
3069 1 6.6926725037556158e+00 2.3967866222127139e+00 8.8865109894906222e+00 0 0 1
98 1 2.4738973467457651e+01 4.2576199211473318e+00 9.5538675036397613e+00 0 0 0
3502 1 1.6926915888778030e+01 1.9456262982113073e+00 1.1195359378843847e+01 1 0 0
3637 1 1.8778213081765998e+01 3.9055442485571095e+00 1.1025433234035793e+01 1 1 0
820 1 2.0969957349383098e+01 3.6170959195441030e+00 1.2231148393574214e+01 0 1 1
2399 1 1.9504542530268161e+01 5.0331818149698710e+00 6.7487453132255881e-01 0 0 0
2292 1 1.8746628541770110e+00 4.9129326268151532e+00 9.8675190214253110e+00 1 0 0
158 1 1.7813644123626826e+00 5.4408378963287998e+00 1.3784097914256099e+01 0 0 0
947 1 7.5423815538507011e+00 5.8672638958750856e+00 1.2287125329634396e+01 0 0 1
554 1 1.1778295107027253e+01 3.7111419033839401e+00 1.2629048637295988e+01 0 0 0
1473 1 1.4316691673491984e+01 5.5032906171580374e+00 9.5823756971194118e+00 0 1 0
3326 1 1.6242753025347831e+01 3.8784081669138608e+00 1.4841410026466587e+01 0 1 0
2885 1 2.1028816170916972e+01 6.1980684075840946e+00 1.4060203864503443e+01 0 0 1
980 1 2.3101008749891442e+01 2.2235875073826405e+00 1.1073298047428340e+01 0 0 1
2607 1 4.0537273664094693e+00 2.4875472369284950e+01 1.3528414321222506e+01 1 0 0
1027 1 2.6050276900266778e+00 9.1533354575781818e+00 1.0975365722779914e+01 0 0 1
2799 1 3.9998133998910723e+00 8.4249736914250590e+00 1.3541555896346207e+01 1 0 1
2429 1 9.1397523002094818e+00 8.7288194818138400e+00 1.2006597408709812e+01 1 0 0
1498 1 9.7866829365467147e+00 8.2650941510420033e+00 1.4687437229384246e+01 0 1 0
2724 1 1.1939468638880173e+01 6.8260063255945411e+00 1.3580949222457011e+01 1 0 0
240 1 1.8898600816305496e+01 9.5859357400435634e+00 1.2033370142964497e+01 0 0 0
1430 1 1.7563551626789227e+01 6.4331856927844324e+00 1.1641143280476726e+01 0 1 0
2982 1 2.0713956862265217e+01 7.3403030486059375e+00 1.1543067985153955e+01 0 0 1
31 1 2.2232096712866213e+01 9.9960987362507989e+00 1.1692514924677553e+01 0 0 0
1377 1 2.4645442523737664e+01 8.9356135591315553e+00 1.1171445457266785e+01 0 1 0
1570 1 4.7937637145921608e+00 1.4199201753031591e+01 1.2992291083597880e+01 0 1 0
1503 1 8.2459661756418168e+00 1.1269243527853320e+01 1.1379178213296239e+01 0 1 0
2719 1 1.4200044200559841e+01 8.9135482971745397e+00 1.2777438555693028e+01 1 0 0
2163 1 1.6260778805332500e+01 9.5489425195874329e+00 1.0886974059681418e+01 0 0 0
896 1 2.0040276244040918e+01 1.1617698628276083e+01 1.0189758765075334e+01 0 0 1
3777 1 1.9875262838707555e+00 1.5225241915647540e+01 1.2261847549913929e+01 1 1 0
1514 1 7.5079145720384348e+00 1.4287917504402113e+01 1.2284438580890921e+01 0 0 0
2783 1 1.1914802859605579e+01 1.4204164815776513e+01 1.1033696648434271e+01 1 0 0
3710 1 1.1257648842047576e+01 1.4654606643968091e+01 1.4018071462059156e+01 0 1 0
841 1 1.4352468620341449e+01 1.3773260027296486e+01 1.3120646157435806e+01 0 0 0
1184 1 2.0030737599773452e+01 1.4290153774475668e+01 1.2164758637692643e+01 0 1 0
61 1 2.2137049508594490e+01 1.5300321525657766e+01 1.0865197556984908e+01 0 0 0
3493 1 2.5210010267624597e+01 1.3231737694224606e+01 1.2229532096801666e+01 0 1 0
1183 1 1.6376801461198713e+00 1.7341569828784280e+01 1.0463254665495226e+01 0 1 1
1957 1 3.4412716045980116e+00 1.8889554287299390e+01 1.1667567710543976e+01 0 1 0
2623 1 7.9179903064075106e+00 1.9214728151236880e+01 1.1466331979896104e+01 1 0 0
659 1 1.0470835297198583e+01 1.7045064020636023e+01 1.2656769288969814e+01 0 0 0
2681 1 1.4372117039643591e+01 1.8067720108367322e+01 1.1200987620010213e+01 0 0 0
2288 1 1.5977712008749229e+01 1.7004014281027654e+01 1.3290672942758217e+01 1 0 0
378 1 1.8153813106494070e+01 1.8465478971617010e+01 1.3968303186138254e+01 0 0 0
2049 1 1.8999960704881392e+01 1.8962369544881540e+01 1.0839376322446235e+01 0 1 1
1268 1 2.1720163914912476e+01 1.9335365340494455e+01 1.2198151781839748e+01 0 1 0
348 1 2.3252791748570115e+01 2.0061244041764173e+01 9.8500962618445200e+00 0 0 0
562 1 1.8802369398337446e+00 2.1065683221487447e+01 1.2776831060920454e+01 0 0 0
2567 1 6.5187420469932897e+00 2.1629357587102906e+01 1.2811001485148877e+01 1 0 0
2099 1 1.2052617211641849e+01 1.9225065034942844e+01 1.2643413818950954e+01 1 0 0
3450 1 1.0585350888969625e+01 2.1369072668191777e+01 1.1542657812255230e+01 1 0 0
587 1 1.6120436517083235e+01 2.0256114891236908e+01 1.0961972502010310e+01 0 0 0
623 1 1.7211190474518670e+01 2.1134572774853154e+01 1.3666038591186197e+01 0 0 0
1983 1 5.2912378907283868e+00 2.7926538134836443e-01 5.3300785734187817e-01 0 1 1
374 1 2.3193230293341493e+01 2.1610108083700915e+01 1.3105397740417416e+01 0 0 0
3792 1 4.0098642155365685e+00 2.2666231768610572e+01 1.2024517316484836e+01 1 0 1
4068 1 1.2862294284065406e+01 2.5504692118963295e+01 5.1339061258852847e-01 1 0 1
1858 1 7.8052983991756903e+00 2.3784709426285204e+01 1.2823363176932048e+01 0 0 0
3644 1 1.0215201258516203e+01 2.2852036557123721e+01 1.3838485852110992e+01 1 0 0
461 1 1.8833058570417116e+01 2.3272163020586593e+01 1.2824401938763364e+01 0 0 0
2462 1 2.3854717755929766e+01 6.0700479439971762e+00 1.1273974497500783e+01 0 0 0
297 1 2.1515642227652929e+01 2.3777887122943326e+01 1.2715251371460953e+01 0 0 0
2712 1 2.5480045022288582e+01 9.0468746009267029e+00 8.4014602241363061e+00 0 0 1
2981 1 2.4476461524618550e+01 2.1498262284820868e+01 3.1860904731702933e+00 0 0 1
281 1 2.5820466237895627e+00 2.3490524790127449e+00 1.5638520560355483e+01 0 1 0
2129 1 5.8565799588609035e+00 1.5815416004915643e+00 1.3601148799571037e+01 1 0 0
3836 1 2.1828822074049718e+01 1.6157378423601461e+01 5.4103346776763672e-01 0 0 1
1919 1 8.7376046431162049e+00 1.8670434684674058e+00 1.3964955654188561e+01 0 1 1
472 1 1.4951649642954958e+01 1.9688921017153693e+00 1.3086657819185012e+01 0 0 0
3256 1 1.1808944589860891e+01 2.5220430869153233e+01 1.6652853982762728e+01 1 0 0
3611 1 1.4779342457986621e+01 4.6933622003924329e+00 1.7161938744964672e+01 1 1 0
437 1 7.4255301135117833e+00 1.5208229741982967e+01 1.6405484598924566e+01 0 0 0
1457 1 2.0702528266293577e+01 1.9200845034729761e+00 1.4217686008967720e+01 0 0 0
2242 1 2.3408301961004963e+01 2.1132389132174123e+00 1.4618100527233294e+01 0 0 0
1011 1 6.5628555580473016e+00 7.7069569299313754e+00 1.4547634548412253e+01 0 0 1
1373 1 4.6975811947550765e+00 3.5170748251217412e+00 1.4707116050616865e+01 0 1 0
1643 1 9.3737692586658969e+00 4.5078632528378142e+00 1.3952482491716822e+01 0 1 0
1404 1 1.0238291312044677e+01 5.0887579032859911e+00 1.6620874097093818e+01 0 1 0
427 1 1.4128494012040850e+01 5.4559753089560514e+00 1.2487322296014097e+01 0 0 0
1531 1 1.9383467908218968e+01 4.0986076153317121e+00 1.5457236215365816e+01 0 1 0
2916 1 1.6206549617088001e+01 6.5444151819574881e+00 1.3986601184825174e+01 1 0 0
3131 1 2.3313089392048401e+01 5.7771732827550908e+00 1.5898060136915705e+01 0 1 0
43 1 2.5008253131515414e+01 4.5652407973407012e+00 1.4069066099455398e+01 0 0 0
1129 1 1.8310814033121623e+00 7.9654692727212328e+00 1.5274667896292314e+01 0 1 0
3334 1 4.4392550077786046e+00 5.7595215436447180e+00 1.2925031996668361e+01 1 1 0
1929 1 1.9700525232885773e+00 6.9794071805831805e+00 4.4627674277865950e+00 0 1 1
1864 1 2.4915294809389955e+01 1.9477701733078199e+01 1.2779953386813030e+00 -1 0 1
563 1 1.3204708667098011e+01 6.6130058592893910e+00 1.5903658920061119e+01 0 0 0
2969 1 1.5295834815250105e+01 8.6480374368956188e+00 1.5726477673128860e+01 1 0 0
186 1 1.8878520607529833e+01 7.2846950015993235e+00 1.5865471334816236e+01 0 0 0
557 1 1.9672078182325070e+01 1.1294381923793470e+01 1.4181539644511998e+01 0 0 0
2087 1 4.2295205376644445e+00 1.1418553734774708e+01 1.3097082747247599e+01 1 0 1
2345 1 1.5228143921576708e+01 2.1793197666052169e+01 1.5481084641521367e+01 1 0 0
667 1 6.7649477004305032e+00 1.0624507321746790e+01 1.4182596164018440e+01 0 0 0
452 1 6.5251830677852380e+00 1.0598302035206290e+01 1.6859102787246343e+01 0 0 0
323 1 1.0031330854694632e+01 1.1073124266721660e+01 1.4601283876673232e+01 0 0 0
565 1 1.2743020410050301e+01 1.1624157425321906e+01 1.3589470708751612e+01 0 0 0
2526 1 1.3760086146829467e+01 1.0809952203060359e+01 1.6189806364860306e+01 1 0 0
2232 1 1.8060240659884965e+01 9.9734351716319427e+00 1.5801553448410164e+01 1 0 0
4081 1 1.7782793185145508e+01 1.3053858787813958e+01 1.3093971010793609e+01 1 0 0
1119 1 2.1805052880938359e+01 1.2883816413301906e+01 1.5185389129592638e+01 0 1 0
2101 1 2.5628564768958331e+01 2.4863809614704934e+01 1.1370800859049520e+01 0 0 0
445 1 2.3750567021188370e+01 1.1664222108224958e+01 1.3974880486860762e+01 0 0 0
600 1 7.0081243653438356e+00 1.8434708855433438e+01 1.6217231780019269e+01 0 0 0
3449 1 8.9671255463401991e+00 1.3798475881730520e+01 1.4631004992909498e+01 1 1 0
1293 1 1.3342493471847471e+01 1.5238255986735979e+01 1.5979887414070966e+01 0 1 0
3063 1 1.6776531342837782e+01 1.4540909869575646e+01 1.5143320258770880e+01 1 0 1
2220 1 9.4918396299466590e+00 1.9351166074972024e+01 1.7166510043083484e+01 1 0 0
89 1 2.1602956172033604e+01 1.5358170174167343e+01 1.4945836412871365e+01 0 0 0
1375 1 2.7608255362213265e+00 1.7417131855806787e+01 1.4130717465583515e+01 0 1 0
1589 1 3.0152153928447674e+00 1.2735546049272038e+01 1.5599975384576680e+01 0 1 0
2051 1 4.7588964964102534e+00 1.5734685012038470e+01 1.5285439074164294e+01 0 0 1
1085 1 2.4244721493822070e+01 2.1336756497643048e+01 6.0250544423630688e+00 0 0 0
516 1 7.9476581841197476e+00 1.7320146518236022e+01 1.3702475099269401e+01 0 0 0
546 1 1.4726676369551599e+01 1.7689934871378778e+01 1.5834490946726838e+01 0 0 0
698 1 1.8078476003696167e+01 1.6748917601384498e+01 1.6420787806012740e+01 0 0 0
3686 1 8.3406576919843296e+00 2.5173640233711875e+01 2.8487469067745792e+00 0 0 0
1590 1 2.2924901380301034e+01 1.6862597311413321e+01 1.2869033881545052e+01 0 0 0
2263 1 3.0735128108559668e+00 1.9785194921414316e+01 1.5655801363681848e+01 0 0 0
2903 1 1.5619125595044203e+00 2.2246629491226471e+01 1.5705408309872427e+01 1 0 0
127 1 1.2723969696287446e+01 1.1311914257867386e+00 1.5887308044379981e+01 0 1 0
2259 1 2.0880213233138715e+01 9.7654496959439321e+00 1.7152983538584923e+01 0 0 0
286 1 1.6205967085972084e+01 2.5369370111076670e+01 2.6664859871429591e+00 0 0 0
498 1 2.3414013612036811e+01 8.9345981187564742e+00 7.3048516619388471e-01 0 0 0
1478 1 2.1389186140615601e+00 1.0420684111288526e+01 1.7024511238636947e+01 0 0 0
430 1 1.7773480581018912e+01 1.6647736886798110e+00 1.6944820786160019e+01 0 1 0
2238 1 2.4431621812688129e+00 5.3098954384492059e-01 8.9174071767056464e+00 1 0 0
2036 1 2.4369254965925155e+01 2.5503862662882732e+01 2.6131209871140597e+00 0 0 1
102 1 6.3967517880782871e+00 6.7355492319464414e+00 1.7027351660221072e+01 0 0 0
2430 1 5.4766907773959570e+00 5.1857984827689085e+00 2.7212961016219439e-01 1 0 0
3372 1 8.4481671650882078e+00 5.6974504495159008e+00 4.6651213494949711e-01 1 1 0
3481 1 4.2887343284529615e+00 1.7182240940675635e+00 1.8839717969656743e+01 1 1 0
1588 1 1.0738537700490451e+01 1.2269336751884143e+00 2.0910281835978743e+01 0 0 0
612 1 1.1338931832620411e+00 1.8581780582883798e+01 3.1805800087299819e+01 1 0 0
2260 1 1.2386560483545843e+01 3.2011019129458229e+00 1.9941206916033170e+01 0 0 0
1974 1 1.5040650508233671e+01 3.9233980202518257e+00 2.1076110195219293e+01 0 1 1