LAMMPS data file via write_data, version 7 Aug 2019, timestep = 5000000

4095 atoms
1 atom types

2.3958207464708181e-01 5.1180417925354085e+01 xlo xhi
2.3958207464708181e-01 5.1180417925354085e+01 ylo yhi
2.3958207464708181e-01 5.1180417925354085e+01 zlo zhi

Masses

1 18.15

Atoms # atomic

1452 1 2.2143201952264460e+00 1.9793425718012081e+00 1.8093123721209015e+00 0 0 1
1654 1 4.6964868186122164e+00 1.5255725254054722e+00 1.9223165190774856e+00 0 0 -1
3632 1 9.4499368053791333e+00 3.2276274648734087e+00 3.2094387830873234e+00 0 2 1
2682 1 8.9187954141498746e+00 2.7035128635370809e+00 7.4239487125011971e-01 0 0 1
3558 1 1.6630660405727774e+01 1.5712000534854882e+00 1.7698937215668100e+00 -3 3 2
2758 1 1.8957399448883663e+01 1.1492424745879999e+00 2.5876023125175713e+00 2 2 1
3945 1 2.0534460338087371e+01 2.7360582104020716e+00 1.1867408463502509e+00 1 1 0
645 1 2.3666441726159647e+01 2.2344370037686656e+00 1.7997759781019698e+00 2 1 0
1136 1 1.1971762170276898e+00 4.5535237809240803e+00 2.5737961798605884e+00 -1 1 1
3387 1 3.6506230553482490e+00 5.7974586176203085e+00 3.1875710290996948e+00 1 3 1
53 1 5.5289593880567125e+00 5.6969548972300510e+00 1.1723339844137188e+00 1 0 0
94 1 1.3945319806312371e+01 4.5320187270499313e+00 2.2898287422402359e+00 0 2 1
458 1 1.6339673385286385e+01 3.6931127253829610e+00 2.8874100372638836e+00 0 0 1
1546 1 1.7564481706163438e+01 5.8904542291064024e+00 1.5456227453428497e+00 -3 -1 -1
2499 1 2.0066819902740132e+01 5.2835979369444832e+00 2.2376521386046808e+00 0 -1 -2
3773 1 2.2347028369031449e+01 1.9135679374938803e+01 3.4231889913524693e-01 0 -1 1
2880 1 2.1510123608733927e+01 6.9746029452700675e+00 5.7729952084614800e-01 2 1 2
1354 1 7.6390685935212561e+00 7.1476565798029199e+00 1.9437615800447936e+00 2 1 2
894 1 1.2046544510512216e+01 8.1253983074385197e+00 1.0648780699181597e+00 -1 0 1
3157 1 1.2986664878987384e+01 7.0079679588289805e+00 3.1922945522112567e+00 1 0 -1
945 1 1.6855037606980606e+01 8.4638818863288581e+00 2.2657497581389650e+00 -3 0 2
2681 1 1.9003322027205076e+01 9.4517215791314868e+00 3.2771216002800090e+00 0 0 3
1762 1 2.7273929062442892e-01 8.6586295651741114e+00 3.4245187443741658e+00 1 0 1
2055 1 2.4568846757485520e+01 6.9121878890533406e+00 3.1487635325904302e+00 1 2 0
745 1 2.4127879345794952e+01 6.7793929112238160e+00 7.7953614804456539e-01 0 0 -1
2267 1 4.3494362756964033e+00 9.8821228061729300e+00 2.0716542850020763e+00 1 1 0
1628 1 4.4420371245490564e+00 1.2317226800080029e+01 3.1112767243007080e+00 1 0 0
3377 1 7.0313897634252021e+00 9.8108390664878549e+00 2.5811691419355403e+00 -1 2 1
135 1 8.4189096653712792e+00 1.1482391840386223e+01 1.0266795742632722e+00 -1 2 -2
1885 1 1.1167880517349211e+01 1.0902013651913105e+01 1.4992667476955617e+00 0 3 0
3256 1 1.5360756893494141e+01 1.1866843527069159e+01 1.3158105012943127e+00 1 -1 1
4058 1 1.5844497647512707e+01 1.2461051121330771e+01 3.6539864591947500e+00 3 1 2
3928 1 2.1091357940333673e+01 9.6132770017120333e+00 1.0956004885270725e+00 -1 1 -1
2121 1 2.3269199944692375e+01 1.0892040221498911e+01 1.9514924745334090e+00 0 0 0
3255 1 3.1751533998528698e+00 1.3910037075688546e+01 9.7516087350022351e-01 2 3 1
3328 1 8.1770549849256060e+00 1.4178129920025302e+01 1.8179417217254725e+00 0 0 1
3779 1 1.0082917104415106e+01 1.5433623736736365e+01 3.4882601667468633e+00 2 2 0
2964 1 1.1728635401269898e+01 1.5175795489226413e+01 1.2295702659572727e+00 1 -1 0
3926 1 1.9921536282786381e+01 1.3709372987455950e+01 2.6778440060770348e+00 1 3 0
3719 1 2.2560612408838374e+01 1.3314385863259647e+01 3.1866816238565741e+00 1 -1 0
548 1 2.3920004459431308e+01 1.5008731690973519e+01 1.9145998885287052e+00 1 -1 0
266 1 2.2078072833543558e+00 1.6231013357807555e+01 1.4775857723362991e+00 0 -3 -1
1230 1 4.6066256657033078e+00 1.7441011910315776e+01 2.8388588142353086e+00 -1 1 1
1706 1 6.6323635447095084e+00 1.7816945556745637e+01 9.1157808740245128e-01 1 0 1
996 1 8.7846373583402997e+00 1.9025992665528968e+01 1.7861918776654315e+00 -1 0 2
2676 1 1.4189040674315715e+01 1.6543655875484038e+01 2.1529675993656352e+00 3 -2 2
664 1 1.3733330028737637e+01 1.9137334833385538e+01 3.0287750775725120e+00 -1 1 1
2437 1 2.5334974077349717e+01 1.8846801942729382e+01 3.4944739697259593e+00 -1 2 3
3051 1 1.9243065542012616e+01 1.6038084308388331e+01 3.4309104546669897e+00 2 -3 -1
2156 1 1.8248815846068243e+01 1.7623747959787078e+01 1.4887540075080135e+00 0 1 0
3881 1 2.3038526379081521e+01 1.7659739116359784e+01 2.6560039169192367e+00 0 1 4
734 1 1.5760906052660509e+01 3.1795250775508460e-01 5.8059047311351737e+00 0 1 0
810 1 3.3472908185908858e+00 2.1442177642752611e+01 1.1494566618154991e+00 1 -1 -1
1759 1 3.9597731380113506e+00 1.9829020620762059e+01 3.4444504990044589e+00 -1 -1 -1
2472 1 8.2964615862693005e+00 2.1717079926107818e+01 2.2001459698862962e+00 0 0 0
1381 1 1.2996655045463543e+01 2.0369069490979786e+01 7.9596347448486138e-01 0 1 -1
549 1 1.7258978437793509e+01 2.0114130905769468e+01 1.9068684805854996e+00 -4 0 0
3069 1 1.9858846264426322e+01 2.1276590987478123e+01 3.0429878033699231e+00 -1 1 1
1242 1 2.1748840511666984e+01 2.1654360082949033e+01 1.1338185035598474e+00 0 0 -1
550 1 2.0699089328039268e+00 2.3737313614388587e+01 1.8982865459046030e+00 -3 0 -1
2527 1 2.5630178118771816e+01 1.2334614218153527e+01 1.2895647487734125e+01 4 -1 1
3087 1 2.3309221643456038e+01 2.5288702192843541e+01 2.8183479474020205e+00 0 3 1
2414 1 2.1369736607899942e+01 2.4740807481059377e+01 4.9508198551321714e+00 -1 0 2
1617 1 1.2014429317121250e+01 2.2847698081935675e+01 1.5844556947054906e+00 -1 -2 1
2360 1 1.4090368965853195e+01 2.4093807056618097e+01 2.5613479067420286e+00 -1 1 0
1633 1 1.6061668593580812e+01 2.3983989429794395e+01 8.2556095731647217e-01 0 -1 -1
3113 1 4.4341660005928674e-01 4.1638932687594048e+00 1.6327338273944740e+01 -1 0 -1
273 1 2.3997535074348352e+01 2.2818584343173480e+01 1.7881989965291243e+00 -1 1 -1
5 1 6.0602044125188304e+00 2.5302922126707287e+01 1.5689199060448347e+01 -1 -1 -1
1143 1 4.4511266573676966e-01 2.3776532484771582e+01 1.3120937247400759e+01 0 0 -1
2776 1 6.2034169378157040e+00 2.9250035602086784e+00 3.8277496765736052e-01 2 1 1
3771 1 5.3315670222691587e+00 2.0222340826598044e+00 4.4467733710830508e+00 1 -2 1
2304 1 8.0774698114847006e+00 1.2744883935412175e+00 4.7646662069223753e+00 1 0 0
3330 1 1.2127875102969778e+01 3.0343208912678103e+00 3.5656315774557887e+00 3 0 -1
3417 1 1.2633850928425131e+01 3.0203807286443523e+00 6.4196650367809696e+00 0 2 -1
67 1 1.9676694213586863e+01 1.3811035662363103e+00 5.2061807468384593e+00 0 2 -1
3793 1 1.2970363776460074e+01 1.2474604394122863e+01 4.8474011173514658e-01 -1 1 2
2774 1 2.4058061434222981e+01 2.7222987551974343e+00 4.4171987286622842e+00 2 3 0
3508 1 4.5317583516358955e+00 7.8676489411287043e-01 8.3780479922839124e+00 0 -2 0
587 1 4.8117531833045719e+00 4.5327072679484104e+00 5.2468224808919102e+00 0 1 -1
338 1 7.0314942317064526e+00 5.4858131157740209e+00 5.8765165190382138e+00 2 -1 -2
836 1 8.9395733690177970e+00 6.0237452504366535e+00 3.9374780364127604e+00 0 -1 0
1186 1 1.2075592100526809e+01 5.5766289446428212e+00 7.1950314359565963e+00 0 2 0
2432 1 1.6799829397450619e+01 4.5948594815947805e+00 5.5134467627157919e+00 1 0 0
3705 1 1.9262993902982036e+01 3.8652856858184421e+00 6.0102962121093055e+00 0 -1 0
2918 1 2.0648515454255946e+01 5.7476131808400863e+00 4.6460924248729940e+00 1 -1 1
633 1 2.3305156354270704e+01 5.2627452819405471e+00 4.9738561774061054e+00 -1 -2 2
300 1 2.9584709015088531e+00 8.3419797284757085e+00 4.0462186102478235e+00 0 2 1
2111 1 3.6597594254048698e+00 8.5314228846778981e+00 6.7821615024967006e+00 0 -1 1
2239 1 6.1702804463237841e+00 7.9577494748495772e+00 6.6172431647215584e+00 -1 0 -2
1385 1 1.1136056022393355e+01 7.1726669986794036e+00 5.1729794148426897e+00 1 3 0
1345 1 9.9605191585603254e+00 9.4522352212751812e+00 5.6645429523781665e+00 -1 0 0
2249 1 1.5126583336224444e+01 8.5508847444130591e+00 4.1913104877969101e+00 1 0 3
1483 1 1.5949017389010168e+01 7.1086377048635141e+00 6.2808361909113879e+00 0 -1 1
887 1 1.9917199699197120e+01 8.1324835788806222e+00 5.4971859543062580e+00 -2 0 0
1091 1 2.2184824774224694e+01 9.4333120825264629e+00 6.0910681237692854e+00 3 0 2
2549 1 2.3796209900737363e+01 9.3578150621767335e+00 4.0143371417977001e+00 1 1 0
3869 1 2.2987873520712929e+00 1.2109202690245677e+01 4.6318074492445085e+00 4 0 0
1339 1 7.4023679763918802e+00 9.8589604193251645e+00 5.1351382319597372e+00 2 0 0
3360 1 7.1651356615677884e+00 1.2463571620906498e+01 6.0963570362424111e+00 1 1 0
2855 1 1.1167349714676623e+01 1.1346588732255839e+01 4.1877146641842842e+00 0 -2 -3
1820 1 1.3966823278277147e+01 1.0921737082141698e+01 4.7042953777460612e+00 0 2 0
2508 1 1.8483257341081128e+01 1.1972356057042145e+01 4.0864860386243587e+00 0 1 0
684 1 1.8566537361261904e+01 1.2286134846738065e+01 6.7474176314875622e+00 -1 -2 2
1325 1 1.8329761184992142e+00 1.4629783735225788e+01 5.9434040142150222e+00 2 2 -1
2997 1 2.2738933990746260e+00 2.3725708026203097e+01 1.6339181586218327e+01 0 0 3
704 1 3.7864744830713040e+00 1.6331893679638199e+01 6.8317589027439070e+00 1 2 3
4066 1 6.4270802894453984e+00 1.4049566209394017e+01 4.0162124012239548e+00 2 -1 0
4010 1 1.0815891014641545e+01 1.3822745172529093e+01 5.3685227913794051e+00 -2 1 -2
2362 1 1.5189379571024302e+01 1.4836434429125774e+01 4.2233400082702719e+00 1 -3 3
1468 1 1.3139551022225968e+01 1.5155501802489182e+01 5.9676505235031181e+00 0 0 0
2700 1 1.7425707731168259e+01 1.6291790446118782e+01 5.3853866903460927e+00 3 0 2
2989 1 2.3175626174593141e+01 1.3860781858818704e+01 5.7955447972377145e+00 0 1 1
1583 1 5.3879975283325816e+00 1.6238330801217767e+01 4.8743032048004888e+00 1 1 -1
2950 1 7.5395625728751829e+00 1.7250446570064646e+01 5.8507991312326286e+00 1 1 0
1787 1 9.5223007952094640e+00 1.7869549865238984e+01 3.8646782510525668e+00 -1 -3 1
1043 1 1.1923586382926993e+01 1.9244970388354243e+01 4.8476851719690837e+00 -2 0 0
2250 1 1.2788360639149682e+01 1.7547585338607625e+01 6.7795223151652060e+00 0 0 1
3585 1 1.6939444135416551e+01 1.8931153666107534e+01 6.3889808402767025e+00 -1 0 2
2286 1 2.2539191016031662e+01 1.6136396882029210e+01 6.8642301731476234e+00 1 -1 0
3402 1 2.1395864505466530e+01 1.7239395582952938e+01 4.7329629159600559e+00 0 1 2
1070 1 1.8684975417133043e+00 1.9939772519059417e+01 5.1192979369869560e+00 2 0 0
1025 1 8.8286957412499178e-01 2.2067916963421926e+01 5.8746708029421617e+00 0 0 3
1479 1 6.1577352690149061e+00 2.1591333487850481e+01 4.0704155547947103e+00 1 2 1
2832 1 6.7969176115652230e+00 1.9964646684740277e+01 6.1665786394348876e+00 0 0 0
1209 1 1.0673074221125285e+01 2.1763852958162193e+01 5.3699378224019334e+00 0 1 0
1772 1 1.5800072907358340e+01 2.0268711656827950e+01 4.2302379530253438e+00 -2 1 0
3804 1 2.0874218184523340e+01 1.9676324982040541e+01 5.0823686189014392e+00 1 1 1
1327 1 2.3102451290490503e+01 2.1261523300657391e+01 5.9345226551507544e+00 0 -1 -1
2958 1 2.4944437113545483e+01 2.1316952753103823e+01 3.9203618247614220e+00 2 -4 4
3213 1 2.1382346078355901e+00 2.3953584440052104e+01 4.4969205390853304e+00 1 1 0
3413 1 5.1483914446876398e+00 2.3928423225794266e+01 5.0469681063787011e+00 2 1 2
2295 1 9.6302317012188450e+00 2.5470583571415332e+01 4.4488617825221688e+00 2 -1 1
3030 1 3.8259696859086967e-01 1.6062194918030340e+01 3.4958815917437840e+00 1 0 0
2633 1 1.0198775910410557e+01 2.3211289705503152e+01 3.1881352771680871e+00 1 0 0
3962 1 1.4840517541126092e+01 2.2767045915728438e+01 4.9495802718145843e+00 1 -1 -1
673 1 1.2909811823549036e+01 2.2546581641113878e+01 6.7536706133271940e+00 -1 0 -1
220 1 1.7208898352778984e+01 2.3600064774243471e+01 5.9175775805898256e+00 1 -1 -3
2628 1 1.9005316889767904e+01 2.3525073967907904e+01 3.9139008254511101e+00 1 0 -1
2293 1 6.9642370666332667e+00 2.3071578523524678e+01 2.4809895168412949e-01 1 0 -1
1420 1 2.2433182093878617e+01 2.3447022300308006e+01 7.0638426134380561e+00 0 3 -1
2674 1 1.8222537578538468e+01 2.5230866196329792e+01 1.9036334346555894e+00 1 0 1
1115 1 8.8464994800656207e+00 1.9673478408671008e+00 7.4246472976159135e+00 0 -1 1
484 1 7.4723076804868793e-01 1.3934422953243061e+01 9.8619837608497587e+00 2 -1 1
325 1 1.1220255604193772e+01 1.1192093249169939e+00 8.0444305973749319e+00 0 0 -1
3079 1 1.5266304278566631e+01 2.7013652120519382e+00 6.8570087582681980e+00 0 0 1
1648 1 1.5437741619136604e+01 3.3498597613407766e+00 9.6395107362116530e+00 1 1 -1
1679 1 1.8032614878643930e+01 2.6917086706709821e+00 1.0027545002330454e+01 -1 2 -1
3609 1 2.2887559403782028e+01 1.5127494647578870e+00 8.2345385583836279e+00 -1 3 0
1612 1 1.4495773719740141e+01 2.3683367593598938e+01 1.4538002136308371e+01 0 1 0
2565 1 2.6371942046251151e+00 4.4732176771186838e+00 7.2708360644388073e+00 3 0 -1
3105 1 3.7407670304483407e+00 3.1213527750461392e+00 9.4560462629273268e+00 1 0 -1
1984 1 6.0141602921067800e+00 3.9473778928505325e+00 1.0151629527516155e+01 0 -1 0
3673 1 7.8888713216110355e+00 4.1572381020393685e+00 8.4188274304466955e+00 0 3 1
1580 1 1.0115943347072077e+01 5.3077371284544936e+00 9.3688955401141758e+00 -1 0 0
1634 1 1.4887028141566905e+01 5.6298540983289671e+00 1.0747906704821856e+01 -2 -2 0
2779 1 1.9261008107416615e+01 6.8553057954397385e+00 9.3584493946974572e+00 1 0 1
3997 1 1.9546222181297747e+01 4.2916704572401603e+00 8.6445734750549885e+00 -4 2 0
1531 1 2.2277330918050943e+01 3.9289647738688966e+00 8.7205782336178377e+00 -1 2 1
1669 1 2.3974166215476213e+01 5.6806201073558356e+00 7.5863396787887609e+00 -2 3 1
109 1 1.8485302249762392e+00 6.9250505461704384e+00 7.8313553317016238e+00 3 1 0
1047 1 6.6033316881561177e+00 8.2379167197491370e+00 9.2135692464987589e+00 -2 1 2
239 1 9.2101143774579981e+00 7.8232265455568859e+00 9.6382646079891305e+00 -2 0 0
4048 1 1.4303371855617721e+01 6.5737864335652301e+00 8.1231885385427987e+00 -1 3 2
3441 1 1.3331533100192779e+01 9.1353202733443002e+00 8.6126876433207489e+00 0 1 1
1769 1 1.8317292326280860e+01 8.5089462495440351e+00 7.3933177989122960e+00 3 -1 -1
819 1 2.1189944098830040e+01 7.9408905136098609e+00 1.0271178460488333e+01 3 2 1
944 1 2.3090018699697065e+01 8.1434972742709117e+00 8.3401439559380783e+00 0 1 1
943 1 1.7547990881980815e+00 2.5478333210129598e+01 8.6051243560015909e+00 0 -2 0
2211 1 3.2071711840368540e+00 1.1135218405564931e+01 6.9648253088476109e+00 0 3 0
3579 1 1.4426195485095210e+00 1.1390229016060713e+01 8.9423962465459041e+00 1 0 3
3037 1 5.2217932252320143e+00 1.2420040675314446e+01 7.8418789160919591e+00 4 0 1
3535 1 6.0803312672986545e+00 1.1002092988280793e+01 9.8998438718572732e+00 0 1 2
924 1 1.0745665844478687e+01 9.8713299748048016e+00 8.3320938544142127e+00 1 -1 4
592 1 1.0377013744393055e+01 1.2430908414995423e+01 9.1140839546680859e+00 0 -1 -1
1627 1 1.4459453956787392e+01 1.1057069035023281e+01 7.4005194412588828e+00 0 3 -2
1775 1 1.7124913351360366e+01 1.0803715790238408e+01 8.2737150053811899e+00 -1 -1 -1
2791 1 2.1353026921508626e+01 1.2172526823845132e+01 6.9661140287607921e+00 3 0 0
1644 1 2.2337896061566543e+01 1.2071734883193745e+01 9.7447274717254686e+00 1 2 -1
2867 1 2.5028360188274259e+01 1.1779275105989408e+01 1.0205749419083906e+01 0 -1 2
3258 1 4.9839772878387478e+00 1.4885531755316755e+01 8.7902192674562230e+00 1 3 2
638 1 6.7730448324078401e+00 1.6424385186837519e+01 9.9963043536678988e+00 -2 -1 0
1952 1 9.1044372256436468e+00 1.3645863178007923e+01 7.2623858378061978e+00 0 0 0
1231 1 1.2482456069529992e+01 1.3559248129976133e+01 1.0618677594381857e+01 2 2 3
1103 1 1.4017910102991944e+01 1.3673399604928415e+01 8.2659052976337701e+00 0 -1 -1
3477 1 1.6418858532013960e+01 1.5008863443056818e+01 9.2985010439539160e+00 1 -1 0
3185 1 1.8552147416456076e+01 1.4882161349599336e+01 7.4782081847690929e+00 0 -1 2
3751 1 2.0565425726038807e+01 1.6186978366718908e+01 8.5798069164690212e+00 1 1 3
392 1 2.3059565017140805e+01 2.5173112499931371e+01 1.2481547851609841e+01 -2 -2 0
1455 1 2.4890755445256318e+00 1.8704003395233919e+01 7.5596835737663461e+00 2 1 -1
178 1 8.2158310593593118e+00 1.6051314073328950e+01 7.9287046767660865e+00 1 0 3
1310 1 1.0681461848780980e+01 1.7393337342450124e+01 8.7900288938025568e+00 0 0 2
1168 1 1.5033032609922012e+01 1.8999635382647767e+01 8.0636054485782367e+00 0 2 0
80 1 1.5829388028856208e+01 1.7401963910727133e+01 1.0077456199841521e+01 -2 1 0
597 1 1.9991582908116001e+01 1.8731748153414031e+01 9.2392108075367005e+00 0 -1 0
3139 1 2.4595078131750697e+01 1.7367255322784519e+01 7.5533929415556855e+00 1 1 0
978 1 4.8905503173125151e+00 1.9868526779828578e+01 8.2783759525610883e+00 1 2 1
3310 1 4.3447130498801565e+00 2.2387148805317864e+01 8.9837923315708661e+00 2 1 0
1933 1 8.8887278350232979e+00 2.1219725053059015e+01 7.4010024305779760e+00 3 1 1
940 1 1.0157642146617633e+01 2.0120880026773737e+01 9.3920174858193253e+00 1 0 0
2977 1 1.4073825204053630e+01 2.1436834181560023e+01 9.0815086272511785e+00 1 -1 2
538 1 1.9014130663489617e+01 2.0140712224254340e+01 7.1881733416968281e+00 0 -1 3
176 1 2.2201291254341808e+01 1.9822537766608203e+01 1.0303478545495445e+01 -1 1 0
915 1 2.4176453242317809e+01 1.9960891689885027e+01 8.3024846668777972e+00 -1 1 0
129 1 1.7492188212325332e+00 2.2834769717875041e+01 8.3122906859136005e+00 -2 -1 1
2695 1 2.5691902281208652e+01 1.3042830001065559e+01 5.9248198731519643e+00 1 0 1
3439 1 5.8864120016507959e+00 2.4057522057125119e+01 7.7287513675775914e+00 0 3 -1
3474 1 8.5779755134945734e+00 2.3872319093393312e+01 8.0031742971578002e+00 -1 1 -1
2856 1 1.2770468509622480e+01 2.5070461910438386e+01 7.7081037837320405e+00 -1 -2 1
2732 1 1.1111890867786336e+01 1.8206170038725936e+01 1.6526664352359667e+01 3 1 0
1537 1 1.6171287668901904e+01 2.2671299310416455e+01 1.0005216986450224e+01 0 -1 1
4051 1 1.8106387393025710e+01 2.2514563435793900e+01 8.0579971477190195e+00 1 2 3
1462 1 2.0486859715154260e+01 2.3104779406028761e+01 9.1473750503560112e+00 0 1 1
3694 1 2.4719612785216736e+01 2.5183369761216241e+01 7.5346659906214182e+00 -1 0 0
3557 1 2.9491761724496830e+00 1.5056808581259229e+00 1.3336967500258407e+01 2 -1 -1
1704 1 1.9874461223198512e+00 2.8993076211842133e+00 1.1507124077676792e+01 0 0 -1
2225 1 2.2460587947724342e+01 1.0555548269737258e+00 5.6346732700504694e+00 0 0 0
1572 1 6.8164014916962268e+00 2.6812028794703493e+00 1.2501901552475735e+01 0 1 0
3781 1 1.1332018746391338e+01 1.5395052874243216e+00 1.0495466349089350e+01 1 2 0
367 1 1.4016308499125648e+01 1.4737074807502322e+00 1.0888081071325670e+01 1 1 1
2838 1 1.4693276417755982e+01 2.0132326466055792e+00 1.3603706038600885e+01 -1 0 1
2102 1 1.8773798959462173e+01 2.8121748071230441e+00 1.2667090052599164e+01 -1 0 -1
306 1 1.7257924260249652e+01 9.9953162963465059e-01 1.4209679332026987e+01 0 -2 1
10 1 2.1645251899415779e+01 2.4682075621257735e+00 1.2655695204466866e+01 -3 2 -2
2634 1 1.0771893547938791e+00 5.6043436264780349e+00 1.2179593642624004e+01 -1 2 2
1861 1 9.0688594281779409e+00 4.0279773140960886e+00 1.3418978763271323e+01 -1 1 2
1672 1 1.0896410908865983e+01 3.9810976168795702e+00 1.1520457382479304e+01 0 0 -1
3676 1 1.2898745161448895e+01 5.2963644184076459e+00 1.2455339617379304e+01 0 0 1
3189 1 1.8097782006357374e+01 5.2411484386570857e+00 1.3237752381696376e+01 0 1 0
857 1 1.7428802506888783e+01 6.7583014599221984e+00 1.1113563837334837e+01 0 -1 2
930 1 2.2262453211194174e+01 6.6626707657526616e+00 1.2284779938599357e+01 0 0 1
3577 1 1.1693829485407576e+01 2.3918983586554155e+01 1.3946288837454823e+01 0 -2 1
2526 1 2.2981571148871744e+01 4.3773298508972287e+00 1.1362763371616058e+01 0 -1 0
1487 1 2.7759189572427263e+00 7.4303660581555686e+00 1.0592094938514657e+01 0 0 1
101 1 2.1879908034768389e+00 9.6792817306682952e+00 1.1822431181706223e+01 -2 0 -1
328 1 5.3166210732933052e+00 6.4543724739211052e+00 1.0835818776828983e+01 -1 1 0
2153 1 6.1260959355726250e+00 7.2051223447624961e+00 1.3352429691124556e+01 0 -1 -3
2819 1 1.0204631805440595e+01 8.6701056752169414e+00 1.1989198207210023e+01 -1 -2 0
3725 1 1.2754156300678751e+01 8.0541782807371316e+00 1.2586151605905203e+01 0 1 1
1838 1 1.3960266569188649e+01 9.4998020044292719e+00 1.1189446351297269e+01 0 -1 1
115 1 1.6709049321230232e+01 9.1465212691508988e+00 1.2129557972691540e+01 1 1 -3
999 1 2.4542980580807580e+01 7.9139770981324089e+00 1.3046514350727538e+01 2 1 0
1153 1 4.2140923816244724e+00 1.1824722600154409e+01 1.1573762831057612e+01 -1 -1 1
859 1 6.2069489228040027e+00 1.1276587215212858e+01 1.3489210678911416e+01 2 -1 0
2290 1 8.1077061508563961e+00 1.2307357826485591e+01 1.0668640139978249e+01 2 -2 1
3426 1 9.0083863927547405e+00 1.0854289532121388e+01 1.3222118238690665e+01 3 2 2
4008 1 1.1184196462101793e+01 1.2672315404565117e+01 1.3287059702866795e+01 1 -1 1
2873 1 1.4313765400714258e+01 1.1924416677405688e+01 1.2114083693996525e+01 -2 0 -1
2595 1 1.7995127941697238e+01 1.0996418332023948e+01 1.0896919109680429e+01 -2 0 2
3925 1 2.0658305853161657e+01 1.0310642093630166e+01 1.1180203168590205e+01 2 2 0
746 1 2.1243283599860362e+01 1.0855774177715137e+01 1.3855309386897309e+01 -1 -2 0
3567 1 1.9444999602553182e+01 1.9481660059881268e+01 1.4865127789575107e+01 1 1 -1
1232 1 3.2974503033820115e+00 1.4515076568891841e+01 1.0969953647158677e+01 1 1 -1
832 1 7.8347121419438395e+00 1.4974534222617914e+01 1.2105038364378254e+01 -1 -3 2
1835 1 1.0369845433821226e+01 1.5561015255472256e+01 1.3257838554540937e+01 0 0 0
3150 1 1.1634266234474955e+01 1.6331664417053986e+01 1.1016971760251439e+01 0 0 1
251 1 1.6696987611032526e+01 1.3077782110356614e+01 1.1477044773018054e+01 1 0 -2
1499 1 1.7692420418716065e+01 1.3543529342408577e+01 1.3928191824822672e+01 -2 1 0
1293 1 2.1378118949132862e+01 1.4561409737057179e+01 1.0695829014975773e+01 1 0 0
3060 1 2.1036454328221005e+01 1.5510776763451375e+01 1.3445993514989176e+01 2 0 0
1188 1 1.4984833684759051e+01 1.9124069161379953e+01 1.6151575425773245e+01 0 1 -1
3062 1 2.3814355880778024e+01 1.5921600250286978e+01 1.1620971641909300e+01 1 0 1
2050 1 1.0163145026513947e+00 1.6964056068249747e+01 1.1148893126602546e+01 0 1 1
1541 1 3.5219249204116112e+00 1.8257015531643965e+01 1.2234874723567771e+01 1 1 0
2790 1 5.7302777423112232e+00 1.8595409382652939e+01 1.0603516334948290e+01 1 -2 0
2660 1 1.3817273197786283e+01 1.7604220159697508e+01 1.2123732915557987e+01 0 -2 0
2262 1 1.7993150004920281e+01 1.8484563488131201e+01 1.1152649447482068e+01 1 1 1
3657 1 1.8956317233588706e+01 1.7060231145603581e+01 1.3582958864443020e+01 2 1 3
2354 1 2.3469264954439318e+01 1.8389263256756131e+01 1.2384664917836629e+01 1 -2 2
2826 1 5.4184910499779637e-01 1.8799580596389127e+01 9.2116197302181693e+00 0 1 2
1915 1 3.1806207469657948e+00 2.0631407571570865e+01 1.2874430300671358e+01 2 0 3
2490 1 4.5649109501820444e+00 2.2776710313187230e+01 1.1842011515434068e+01 1 0 2
481 1 7.8961022604743896e+00 2.0069483502803969e+01 1.1324557480412674e+01 0 -1 -1
585 1 7.0880901078920990e+00 2.2615807512048416e+01 1.2107251463382166e+01 0 0 -1
1011 1 1.2046757029753314e+01 2.1502195050170190e+01 1.0629019656192700e+01 1 0 2
695 1 1.2708369485116812e+01 2.0092818106746808e+01 1.2832952363060508e+01 -2 1 2
1138 1 1.5033167211826571e+01 2.1029528342633263e+01 1.4055607313379943e+01 -1 1 0
180 1 1.7162713032764049e+01 2.1016878399730324e+01 1.2284437631750988e+01 -2 -1 -1
78 1 1.9264004648591019e+01 2.1721551468393219e+01 1.3272757792895272e+01 0 -1 1
584 1 2.1563943085716268e+01 2.2159370966093864e+01 1.1620149379907344e+01 1 3 0
913 1 2.5624040597140411e+01 1.9930879957723285e+01 1.2652341987229176e+01 0 1 -1
1768 1 2.5478535111799804e+01 9.1666617293109063e+00 9.0323132758926494e+00 -2 0 1
2206 1 3.4806918317379556e+00 2.4959703144976213e+01 1.2619807204195350e+01 2 0 1
3376 1 8.7731247309858400e+00 2.4538337407571504e+01 1.0654381276295187e+01 2 2 -3
1356 1 1.1435303313087365e+01 2.3874872045704674e+01 1.1452184520440998e+01 2 -1 -1
1602 1 1.5791979730554708e+01 2.5235579223765228e+01 1.0573218835113291e+01 0 2 1
2093 1 1.6046050623284092e+01 2.5162769748796663e+01 1.3322957937995872e+01 2 -1 0
3854 1 1.8781542129299314e+01 2.4503987677419619e+01 1.3771272712671349e+01 1 1 0
3466 1 2.4525817641509530e+01 2.2699968485140005e+01 1.1849728376263506e+01 2 -1 -1
1518 1 1.0644840986751301e+00 1.5669329886217331e+00 1.5333674538220871e+01 1 -1 -1
2511 1 6.0259177042046463e+00 1.3559704562304558e+00 1.6316807820232913e+01 0 0 0
1868 1 5.0458321681226055e+00 2.7932419576233727e+00 1.4386491500920561e+01 0 3 0
1926 1 1.0103011863156652e+01 2.2916958645736800e+00 1.5441425916789639e+01 0 1 1
1392 1 1.7778508155464536e+01 1.1848051865685010e+00 1.6629172046997326e+01 -1 1 0
1458 1 3.5261206645565899e+00 2.5496868198069365e+01 4.2247802762410203e-01 1 0 2
3265 1 2.1867777579081476e+01 2.6339334743504814e+00 1.5591956150521197e+01 -1 -1 3
1715 1 2.4712470845476933e+01 2.3522849295131945e+00 1.5945527634270066e+01 1 2 4
720 1 1.8340811739434708e+00 5.5460304248890280e+00 1.4706212436103202e+01 0 -2 2
2591 1 2.0923930831558735e+01 1.3071336359759879e+01 1.6992022731577062e+01 1 -2 1
1710 1 4.4609409152389219e+00 5.5597771467872281e+00 1.5055280725618946e+01 2 3 0
187 1 8.7895045117954016e+00 6.6607017386467193e+00 1.3754386776431183e+01 1 1 -1
3537 1 8.8957521974584886e+00 6.6566655002624584e+00 1.6666057838437823e+01 2 -2 -1
1858 1 1.2074329274363116e+01 3.8969810966318117e+00 1.6537676853050026e+01 0 0 0
1557 1 1.3953187265668836e+01 4.2013481708764502e+00 1.4740910188995171e+01 1 1 -1
1815 1 1.6410214381808515e+01 4.9548813904210673e+00 1.5351043667227644e+01 -3 1 0
772 1 2.1589249809297449e+01 5.0096691148682622e+00 1.6725232028196874e+01 0 0 0
936 1 2.0611308252520814e+01 6.2480264652182065e+00 1.4286332674553401e+01 1 -1 2
3312 1 1.3707872520235906e+00 7.8099183969773636e+00 1.5811172290290861e+01 1 -1 -1
1693 1 5.0757591486668234e+00 9.2902570083069254e+00 1.4756845149979268e+01 0 -1 0
218 1 1.3151862206173691e+01 8.0429950841541427e+00 1.5579394568934875e+01 0 2 -3
2617 1 1.5749278447915360e+01 7.4200045485730488e+00 1.6256487847516425e+01 0 0 1
927 1 1.7141101879785008e+01 9.3751070026646026e+00 1.4674975190376934e+01 -1 -1 1
3826 1 1.9632468971868235e+01 8.7937752278412855e+00 1.5024433585882534e+01 1 0 0
3597 1 2.4654174867991859e+01 9.9101295436924843e+00 1.6395553974583756e+01 -1 2 1
1175 1 2.4900638398532609e+00 9.9738597965358604e+00 1.4524991999231109e+01 1 -1 1
2504 1 2.6301982946927107e+00 1.2535575668211779e+01 1.5288808456534994e+01 3 -2 0
2484 1 1.0017821432192404e+01 1.1181335153515262e+01 1.6140543626610949e+01 -1 0 1
244 1 1.2602060913009979e+01 1.0620040050349196e+01 1.6514393848640985e+01 1 0 1
1575 1 1.3774614570296579e+01 1.2624073095527940e+01 1.4857399001188499e+01 0 3 0
3241 1 1.6400838038916355e+01 1.1864522995353431e+01 1.5658084877810987e+01 2 0 0
2810 1 2.0225215070285920e+01 1.3052962742325766e+01 1.4461554374211085e+01 0 0 1
1428 1 8.2344537654410721e-01 2.1198244550232868e+01 1.2339660870051491e+01 2 0 -1
1863 1 2.3815991641753872e+01 1.0411930920255624e+01 1.3878902568029847e+01 -2 1 2
3701 1 4.0600002380149443e+00 1.4386935649521797e+01 1.3677168072414963e+01 2 2 1
2308 1 6.6381739750713091e+00 1.3746495463754119e+01 1.4287675794678934e+01 2 0 1
1697 1 7.0652695867546980e+00 1.4232334862560098e+01 1.6763778415291885e+01 1 0 1
2110 1 2.0584220913416264e+01 5.9953540440034025e-01 1.6871403451871817e+01 3 1 0
2858 1 1.1072554233805231e+01 1.5576013313851959e+01 1.5735086679501073e+01 3 2 1
1737 1 1.3535325397094875e+01 1.5047419497485222e+01 1.6003727408051827e+01 1 0 1
541 1 2.4418597801223498e+01 1.4328000112047450e+01 1.6328622941667355e+01 3 1 2
748 1 1.6756855639997752e+00 1.7015705986511275e+01 1.5822718842767953e+01 -1 -1 1
1732 1 3.9012561003283031e+00 1.6818871439742022e+01 1.4515771536975025e+01 2 0 1
800 1 8.2481007036583662e+00 1.8151495971070371e+01 1.3255777350559679e+01 -1 0 0
683 1 6.1968389635788457e+00 1.8137427926232814e+01 1.5431982896630535e+01 -1 -1 1
3332 1 5.7001945003967636e-01 3.8056203325241000e-01 3.1443767015647621e+00 -2 1 -2
1507 1 1.5051434549672020e+01 1.7017473295138373e+01 1.4788666796359269e+01 0 0 0
1377 1 2.5544316315306446e+01 7.8512042363667567e-01 8.2685635819971726e+00 -1 3 0
3942 1 1.7184265185627467e+01 1.5833686946205530e+01 1.5020176578115128e+01 -1 -1 1
427 1 2.2029744600841550e+01 1.8670508888567493e+01 1.4774323351078454e+01 1 0 -2
2431 1 2.2334032995119838e+01 1.6343702796872495e+01 1.6164236731493784e+01 2 -1 0
2775 1 1.7670148902029812e+01 1.9061435003417412e+01 1.7021376693697263e+01 1 1 1
1484 1 3.3019792671438086e+00 2.1229486836351875e+01 1.5380957761738138e+01 -1 0 -1
3418 1 5.9505009580898873e+00 2.0693680070317487e+01 1.6111074612491443e+01 0 0 1
553 1 7.0363077280034609e+00 2.2946284149699952e+01 1.4702076670603514e+01 0 -1 1
3078 1 1.0365338536605277e+01 1.9555537943527948e+01 1.4276078095818114e+01 1 0 -1
3797 1 9.8427225047178464e+00 2.2148718633013239e+01 1.5249754035946935e+01 -1 1 -1
573 1 6.2277020419649745e+00 2.5521893606717008e+01 1.1139045114086883e+00 -1 -2 3
2669 1 2.5113899018102337e+01 1.4990059134956386e+01 1.3639819721797956e+01 3 1 0
2408 1 1.1692158484563884e+00 1.1510385555626854e+00 5.5159224834082403e+00 1 1 0
2899 1 1.6332384508925426e+01 1.6283603511341472e+01 3.6453897742540031e-01 1 -1 2
3580 1 2.5474203631019691e+01 1.6047579373109624e+01 9.5360593831148162e+00 2 -1 -1
595 1 7.3067882663798827e+00 2.9529083646272897e-01 1.1193645410154188e+01 0 1 0
3706 1 1.6573722684169798e+00 1.9571545374497262e+01 1.6452248970739682e+01 2 3 1
1914 1 1.1646569615614936e+01 6.2983543092616019e+00 1.7093158976691697e+01 1 -2 1
2021 1 9.7325566744786638e+00 7.1336556065942185e+00 2.6996763516549283e-01 -1 1 0
2019 1 1.3240194516517706e+01 2.5643295535481258e+01 1.0534490086637936e+01 -1 0 0
1476 1 3.8441466464317529e+00 3.1216565531406104e-01 6.0243787836053846e+00 1 1 1
3921 1 5.9240172644844078e+00 9.7513222953906418e+00 1.7138605094179621e+01 0 1 0
3545 1 9.6228390957787688e+00 1.3752833107206818e+01 1.7003080700658579e+01 -1 3 -1
3459 1 2.5089155229391608e+01 1.1041634315327261e+01 3.3438227157980549e-01 1 1 0