
# Create simulation box and atoms
lattice		    sc 1
Lattice spacing in x,y,z = 1 1 1
region 		    all block 0 51.42 0 51.42 0 51.42 units box
create_box 	    1 all
Created orthogonal box = (0 0 0) to (51.42 51.42 51.42)
  2 by 2 by 3 MPI processor grid

create_atoms	1 random 4457 ${SEED} all
create_atoms	1 random 4457 14650 all
Created 4457 atoms
  create_atoms CPU = 0.000437021 secs

mass		    1 18.15

# Define potential

pair_style 	    sw
pair_coeff	    * * mW_real.sw mW
Reading potential file mW_real.sw with DATE: 2019-02-27

# Run minimization

minimize 	    1.0e-8 1.0e-8 10000 1000
WARNING: Using 'neigh_modify every 1 delay 0 check yes' setting during minimization (../min.cpp:168)
Neighbor list info ...
  update every 1 steps, delay 0 steps, check yes
  max neighbors/atom: 2000, page size: 100000
  master list distance cutoff = 6.3065
  ghost atom cutoff = 6.3065
  binsize = 3.15325, bins = 17 17 17
  1 neighbor lists, perpetual/occasional/extra = 1 0 0
  (1) pair sw, perpetual
      attributes: full, newton on
      pair build: full/bin/atomonly
      stencil: full/bin/3d
      bin: standard
Per MPI rank memory allocation (min/avg/max) = 4.224 | 4.228 | 4.23 Mbytes
Step Temp E_pair E_mol TotEng Press 
       0            0 1.8247227e+08            0 1.8247227e+08 1.2300268e+08 
     727            0   -50227.743            0   -50227.743   -1141.0223 
Loop time of 1.98126 on 12 procs for 727 steps with 4457 atoms

99.1% CPU use with 12 MPI tasks x no OpenMP threads

Minimization stats:
  Stopping criterion = max force evaluations
  Energy initial, next-to-last, final = 
         182472271.423     -50227.3745203     -50227.7434752
  Force two-norm initial, final = 2.36579e+10 4.10723
  Force max component initial, final = 1.61728e+10 1.139
  Final line search alpha, max atom move = 0.0749305 0.085346
  Iterations, force evaluations = 727 1000

MPI task timing breakdown:
Section |  min time  |  avg time  |  max time  |%varavg| %total
---------------------------------------------------------------
Pair    | 1.3049     | 1.6413     | 1.7888     |  11.8 | 82.84
Neigh   | 0.025996   | 0.027871   | 0.030072   |   0.7 |  1.41
Comm    | 0.13023    | 0.28212    | 0.62025    |  28.7 | 14.24
Output  | 0          | 0          | 0          |   0.0 |  0.00
Modify  | 0          | 0          | 0          |   0.0 |  0.00
Other   |            | 0.03001    |            |       |  1.51

Nlocal:    371.417 ave 389 max 340 min
Histogram: 1 0 0 1 2 1 1 1 2 3
Nghost:    1065 ave 1085 max 1040 min
Histogram: 1 0 1 2 2 1 1 0 1 3
Neighs:    0 ave 0 max 0 min
Histogram: 12 0 0 0 0 0 0 0 0 0
FullNghs:  12011.5 ave 12730 max 10460 min
Histogram: 1 0 0 1 2 1 0 2 0 5

Total # of neighbors = 144138
Ave neighs/atom = 32.3397
Neighbor list builds = 41
Dangerous builds = 0

# Create Cavity with Hard sphere "indent" potential

region		    cavity sphere 25.71 25.71 25.71 13.8 side in
delete_atoms	    region cavity
Deleted 362 atoms, new total = 4095
fix 		    5 all indent 10.0 sphere 25.71 25.71 25.71 13.8

# Equilibration of molecular water

# Add velocity/set timestep

velocity	    all create ${TEMP} ${SEED} rot yes dist gaussian
velocity	    all create 215 ${SEED} rot yes dist gaussian
velocity	    all create 215 14650 rot yes dist gaussian
timestep	    5.0

# Define output

compute			1 all msd
thermo	    	50
thermo_style	custom step temp press vol etotal ke pe c_1[4]

# Neighbor lists

neigh_modify    delay 0 every 1 check yes

# Set fixes

fix             1 all momentum 10 linear 1 1 1 rescale
fix             2 all nve
fix             3 all temp/csvr ${TEMP} ${TEMP} 500.0 ${SEED}
fix             3 all temp/csvr 215 ${TEMP} 500.0 ${SEED}
fix             3 all temp/csvr 215 215 500.0 ${SEED}
fix             3 all temp/csvr 215 215 500.0 14650
fix             4 all press/berendsen iso ${PRES} ${PRES} 1000.0 modulus 20000
fix             4 all press/berendsen iso 1.0 ${PRES} 1000.0 modulus 20000
fix             4 all press/berendsen iso 1.0 1.0 1000.0 modulus 20000

# Run 1 ns equilibration

dump		    1 all atom 2000 ${DIR}/eq.${NAME}-${TEMP}.dump
dump		    1 all atom 2000 run_4/eq.${NAME}-${TEMP}.dump
dump		    1 all atom 2000 run_4/eq.hardcavity_freeze_nvt_4-${TEMP}.dump
dump		    1 all atom 2000 run_4/eq.hardcavity_freeze_nvt_4-215.dump

reset_timestep  0

run	            200000
Per MPI rank memory allocation (min/avg/max) = 4.489 | 4.492 | 4.494 Mbytes
Step Temp Press Volume TotEng KinEng PotEng c_1[4] 
       0          215   -330.55091    135955.32   -43009.186    2623.7388   -45632.925 1.1836285e-33 
      50    133.79613    -253.7639    135889.97   -42446.527    1632.7726     -44079.3    0.2269205 
     100    152.67557    41.243391    135848.09   -42017.382    1863.1666   -43880.548   0.39506053 
     150    166.75533   -252.62828    135745.07   -41666.304    2034.9881   -43701.292   0.55942314 
     200    178.07775   -142.40258    135472.23   -41378.218    2173.1605   -43551.378   0.73197423 
     250    185.06891   -168.80966     135183.6   -41153.652    2258.4767   -43412.129   0.93576138 
     300    192.52741   -132.75248    134925.46   -41003.638     2349.496   -43353.134    1.0966515 
     350    199.98771   -66.149394     134779.2   -40837.023    2440.5373   -43277.561    1.3118976 
     400    203.27927     76.85763    134705.35   -40765.688    2480.7057   -43246.393     1.519612 
     450    201.29551   -76.933367    134666.34   -40750.045     2456.497   -43206.541    1.7819936 
     500    208.05976    -113.5914    134473.77   -40688.784    2539.0441   -43227.828    1.9652357 
     550      209.107   -106.44421    134264.79   -40712.484     2551.824   -43264.308    2.2038739 
     600     210.6446   -79.543321    134088.21   -40620.081    2570.5879   -43190.669    2.4757222 
     650    210.65019   -187.25806    134025.02   -40595.118    2570.6562   -43165.774    2.6864885 
     700    213.69117   -25.615666       133894   -40511.102    2607.7666   -43118.868    2.8886403 
     750    215.12789   -241.81248    133665.88   -40472.569    2625.2995   -43097.868    3.0509833 
     800    212.33295   -3.4319406    133500.23   -40467.937    2591.1917   -43059.129    3.2575847 
     850    218.06996   -89.168632    133534.39   -40398.336    2661.2029   -43059.539    3.4699618 
     900    217.96858    35.482328    133504.28   -40438.418    2659.9657   -43098.384    3.6967147 
     950    215.14465   -111.03938     133266.5   -40436.119    2625.5041   -43061.623    3.9396439 
    1000    214.80646   -109.48122    133147.37   -40455.598     2621.377   -43076.975     4.128399 
    1050    216.13209   -285.59996    132976.43   -40474.963    2637.5542   -43112.517    4.3017429 
    1100    215.18538    39.520092    132880.45   -40396.303    2626.0011   -43022.304    4.4759232 
    1150     219.5234    104.14231    132958.73   -40381.728    2678.9399   -43060.668    4.7146154 
    1200    209.41191   -11.435517    132945.19   -40447.352     2555.545   -43002.897    4.8755629 
    1250    219.04811    27.244831    132970.21   -40414.719    2673.1396   -43087.858    5.0036674 
    1300    220.08159    18.565459    132902.47   -40430.401    2685.7517   -43116.153    5.1634317 
    1350     219.4379    134.58454    132875.12    -40439.73    2677.8964   -43117.627    5.2842243 
    1400    217.65977   -21.492566    132855.72   -40408.571    2656.1972   -43064.768    5.4987347 
    1450    219.23742     157.2068     132852.6   -40460.415    2675.4499   -43135.865    5.7091997 
    1500    216.58237    4.4379076    132758.19   -40499.221    2643.0491    -43142.27    5.9836587 
    1550    213.65319   -142.65646    132638.96   -40510.813    2607.3031   -43118.116    6.1757699 
    1600    215.28649    66.169759    132591.48   -40502.475     2627.235    -43129.71    6.3575797 
    1650    217.67662    139.02011    132751.07   -40504.609    2656.4028   -43161.012    6.5196923 
    1700    218.96033   -1.8292063    132748.09   -40523.478    2672.0685   -43195.546    6.7719617 
    1750    219.69594   -62.277394     132631.1   -40534.946    2681.0455   -43215.992    6.9152898 
    1800    216.72289    107.30561    132731.58   -40572.479     2644.764   -43217.243    7.0266068 
    1850    214.45272    14.973896    132687.94   -40571.986    2617.0601   -43189.046    7.2280764 
    1900    215.02564    203.85451    132833.66   -40581.637    2624.0517   -43205.689     7.421041 
    1950    213.56796   -18.385079    132977.99    -40596.31     2606.263   -43202.573    7.6316869 
    2000    209.05813   -125.20865    132759.52   -40611.276    2551.2275   -43162.503    7.8438052 
    2050    215.78611   -187.05707    132705.43   -40597.725    2633.3321   -43231.057    8.0516022 
    2100    212.96179    -112.7028    132435.49   -40579.577    2598.8656   -43178.443    8.2283753 
    2150    216.41707   -96.431066    132276.91   -40540.429     2641.032   -43181.461    8.4357201 
    2200    214.48284   -109.29865    132254.75   -40541.538    2617.4277   -43158.966    8.5640285 
    2250    215.39861    13.354619    132309.33   -40562.665    2628.6032   -43191.268    8.7942644 
    2300     212.5624   -54.677181     132224.9   -40567.417    2593.9917   -43161.409    9.0020505 
    2350    216.62545    323.66169     132190.3   -40542.763    2643.5749   -43186.338    9.1275257 
    2400     215.1953    8.4580645    132373.22   -40512.999    2626.1221   -43139.121    9.2402495 
    2450    219.03365    130.68534    132369.56   -40536.167    2672.9632    -43209.13    9.4553907 
    2500    212.44934   -91.525289    132319.24   -40513.944     2592.612   -43106.556    9.7287795 
    2550    217.57596   -42.124306    132176.41   -40502.485    2655.1744    -43157.66    9.9167336 
    2600    217.63202    26.263843    132028.28   -40467.669    2655.8586   -43123.528    10.087935 
    2650     219.7403   -89.589391    131956.45   -40500.611    2681.5867   -43182.197    10.238332 
    2700    215.19808     189.8731    131937.32   -40485.081    2626.1561   -43111.237    10.340501 
    2750    216.44937   -115.64724    132002.27   -40511.111    2641.4261   -43152.537    10.472054 
    2800    215.83506   -15.763682    132089.58   -40506.741    2633.9294    -43140.67    10.612541 
    2850     219.2448   -76.883955    132092.13   -40508.765    2675.5399   -43184.305     10.67864 
    2900    217.47807   -48.060083    132004.59   -40532.029    2653.9798   -43186.009    10.884075 
    2950    213.89588   -40.811715    132015.26   -40537.966    2610.2648   -43148.231    11.065469 
    3000    215.08295   -37.822849    131959.96   -40642.385     2624.751   -43267.136    11.196021 
    3050    214.39674    44.713733    131952.24   -40607.505     2616.377   -43223.882      11.4106 
    3100    211.50571    49.530495    132155.26   -40619.333    2581.0965    -43200.43    11.582083 
    3150    216.41833    89.025837    132262.74   -40602.675    2641.0473   -43243.722    11.737787 
    3200    215.39356   -62.601162    132173.62    -40601.67    2628.5416   -43230.212    11.887431 
    3250    213.94435    140.42473     132196.4   -40541.139    2610.8562   -43151.995    12.292946 
    3300    215.76143   -39.242551    132203.82   -40504.661    2633.0308   -43137.692    12.487174 
    3350    213.58901    88.350538     132219.9   -40540.886    2606.5199   -43147.405    12.741857 
    3400     219.9938    116.89309    132222.78   -40579.945    2684.6803   -43264.625     13.01764 
    3450    217.70046   -23.451437    132273.68    -40557.08    2656.6937   -43213.773    13.302417 
    3500    215.78709   -33.093222     132208.4   -40542.525     2633.344   -43175.869    13.451523 
    3550    217.04183   -34.725844    132220.09   -40574.242    2648.6561   -43222.898    13.540426 
    3600    216.99077   -179.71492    132078.65    -40570.13    2648.0331   -43218.163    13.716355 
    3650    217.72489     5.099967    131965.88   -40511.217    2656.9918   -43168.209    13.962622 
    3700    213.84766    60.969945    131737.86   -40559.332    2609.6764   -43169.009    14.108065 
    3750    218.04267    42.816931    131782.33   -40559.558    2660.8699   -43220.427    14.143957 
    3800    214.56978    179.45915    131968.73   -40559.668    2618.4886   -43178.156    14.209015 
    3850    216.99039     73.90675    132188.79    -40595.79    2648.0284   -43243.819    14.338456 
    3900    214.15523    63.487036    132245.08   -40657.038    2613.4297   -43270.468    14.493519 
    3950    214.51886   -4.4903803    132063.61    -40712.21    2617.8673   -43330.078    14.571188 
    4000    215.98998    28.086296    132054.63   -40674.466    2635.8199   -43310.286    14.664639 
    4050    217.29506   -167.46159    131902.74   -40658.306    2651.7465   -43310.052    14.888144 
    4100    219.08144    -159.2491    131780.77   -40643.477    2673.5464   -43317.023    15.025321 
    4150    214.86163   -71.202938    131764.55   -40686.174    2622.0502   -43308.224    15.134662 
    4200    214.06282    249.73908    131634.14   -40707.062     2612.302   -43319.364    15.287136 
    4250    216.21608    155.50562    131898.48   -40632.491    2638.5792   -43271.071    15.472512 
    4300    218.21541    142.03583    131933.86   -40622.383    2662.9779   -43285.361    15.690815 
    4350     214.0651   -27.843449    132015.89   -40650.418    2612.3299   -43262.748    15.777447 
    4400    215.02754    95.711054    132105.67   -40667.483    2624.0749   -43291.558    15.889471 
    4450    213.04967   -39.477725    132103.08   -40678.768    2599.9381   -43278.706    16.078664 
    4500    213.16716    -82.86221    132051.18   -40711.564    2601.3718   -43312.936    16.235376 
    4550     213.5368    35.653481     132032.8   -40687.668    2605.8828   -43293.551    16.421545 
    4600    215.17931    122.57977    132088.29   -40663.151     2625.927   -43289.078    16.530392 
    4650    211.37837    7.9906406    132058.94   -40639.773    2579.5425   -43219.316    16.676294 
    4700    215.54061    9.1996743    132036.34   -40625.334    2630.3362    -43255.67    16.921796 
    4750    219.12983    59.295104    132028.54   -40591.231    2674.1369   -43265.368    17.080389 
    4800    213.28178    4.1361374    131999.96   -40605.886    2602.7706   -43208.656    17.217948 
    4850    216.39303    167.68084    132132.27   -40593.793    2640.7385   -43234.532     17.37436 
    4900    210.44728   -48.071037    132062.03   -40638.152      2568.18   -43206.332    17.429019 
    4950    213.73704   -3.9064111    132012.77   -40652.844    2608.3264    -43261.17    17.593545 
    5000    213.45195    57.078564    132107.26   -40707.521    2604.8473   -43312.368    17.881827 
    5050    216.58035    130.87324    132147.41   -40699.494    2643.0245   -43342.518    17.988414 
    5100    211.85592    22.406587    132206.32   -40679.096    2585.3702   -43264.466    18.138557 
    5150    216.01144   -5.3484094    132366.11   -40645.695    2636.0819   -43281.777    18.365966 
    5200    215.67597   -53.834269    132354.67   -40685.163     2631.988   -43317.151    18.405404 
    5250    216.35066    121.09351    132472.08   -40640.176    2640.2216   -43280.398    18.604957 
    5300    214.31097    185.30588    132666.52   -40666.372    2615.3302   -43281.702    18.846478 
    5350    217.01996   -2.7514855    132656.69   -40712.546    2648.3893   -43360.935    19.035893 
    5400    211.11222   -59.277746    132570.19   -40735.943    2576.2946   -43312.238    19.188698 
    5450    213.36861    9.9346525    132472.75   -40782.353    2603.8303   -43386.183    19.295646 
    5500    213.64945   -35.932213    132510.43   -40752.995    2607.2574   -43360.252    19.550454 
    5550    211.70752    100.89527    132369.02   -40773.677    2583.5593   -43357.237    19.747705 
    5600    213.49806    295.63879    132435.77    -40755.63      2605.41    -43361.04    19.871455 
    5650    216.42101   -36.144016    132527.85    -40673.52    2641.0801     -43314.6    20.037054 
    5700    212.47264   -87.794142    132649.47   -40721.207    2592.8964   -43314.103    20.168291 
    5750    212.63947   -28.424229    132493.55   -40690.202    2594.9322   -43285.135    20.324576 
    5800    213.13612   -13.559491    132475.41   -40678.872    2600.9931   -43279.865    20.459458 
    5850    219.17763   -3.3145259     132584.1   -40697.205    2674.7203   -43371.925    20.534561 
    5900    211.93511   -121.24584    132422.22   -40732.286    2586.3366   -43318.622    20.520251 
    5950    214.52104   -40.011879    132395.62   -40696.534    2617.8938   -43314.428    20.683822 
    6000    210.43178     36.68382    132319.33   -40775.245    2567.9909   -43343.235    20.926095 
    6050    210.30056    143.35557    132530.71   -40752.483    2566.3895   -43318.872    21.189102 
    6100    208.34369   -35.318331    132496.03   -40740.382     2542.509   -43282.891    21.261307 
    6150    210.17145   -189.89371    132289.12   -40782.218     2564.814   -43347.032    21.343475 
    6200    208.51039   -18.169021    132172.06   -40759.963    2544.5433   -43304.506    21.526107 
    6250    212.35807   -97.006938    132051.94   -40765.757    2591.4982   -43357.255    21.824684 
    6300    214.30374     27.33971     132022.8   -40730.261    2615.2421   -43345.503    21.992195 
    6350    213.90935    -37.21456    132002.88   -40743.834    2610.4291   -43354.263    22.055216 
    6400    217.51729     27.67768     132098.2   -40708.587    2654.4584   -43363.045    22.152632 
    6450    214.75471    173.92684    132186.41   -40704.025    2620.7455    -43324.77    22.277412 
    6500    218.62691   -135.46922    132276.95   -40707.346    2667.9996   -43375.346    22.407749 
    6550    215.36152    55.868711    132330.82   -40698.633    2628.1507   -43326.784    22.453061 
    6600     217.3846    33.447096    132380.56   -40716.926    2652.8391   -43369.765    22.727635 
    6650    218.14972    132.95869    132503.84   -40689.562    2662.1762   -43351.738    22.953246 
    6700    220.18085   -4.7225261    132510.68   -40656.486    2686.9629   -43343.449    23.058375 
    6750    213.42836    2.3313023     132558.9     -40704.2    2604.5594   -43308.759    23.144101 
    6800     219.3457   -133.37568    132518.51   -40712.214    2676.7712   -43388.985    23.273623 
    6850    212.03287   -88.500835    132360.22   -40779.503    2587.5297   -43367.033    23.506392 
    6900      211.797    132.26597    132365.29   -40786.755    2584.6512   -43371.406    23.621427 
    6950    213.41691    49.971174    132337.92    -40788.97    2604.4197   -43393.389    23.820694 
    7000    210.79474   -50.829241    132361.87   -40756.494    2572.4202   -43328.914    24.003654 
    7050    218.25598    136.02742    132534.75   -40709.375     2663.473   -43372.848    24.058935 
    7100    212.83517    37.681929    132596.15   -40741.497    2597.3205   -43338.817    24.203536 
    7150    216.33597    27.556171    132626.26   -40700.148    2640.0423    -43340.19    24.366312 
    7200    216.72461     25.83411    132703.37   -40680.632     2644.785   -43325.417    24.530896 
    7250    212.65503    14.838442    132733.52   -40690.559    2595.1221   -43285.681    24.704261 
    7300    217.25189   -151.35664    132537.49    -40692.35    2651.2196   -43343.569    24.756875 
    7350    218.38983   -61.910982    132388.69   -40675.434    2665.1064    -43340.54    25.033828 
    7400    215.50949    11.073268    132350.36   -40675.057    2629.9563   -43305.013    25.220022 
    7450    215.31648   -149.93617    132326.76   -40704.276    2627.6009   -43331.877    25.424005 
    7500    215.35411    7.8869304    132218.39   -40729.445    2628.0601   -43357.505    25.558522 
    7550    215.47205     26.55561    132384.75   -40709.628    2629.4995   -43339.127    25.622148 
    7600    221.46656    79.941425    132508.84   -40663.932    2702.6531   -43366.585    25.739155 
    7650    214.69591   -34.459287    132539.46   -40689.436    2620.0279   -43309.464    25.927951 
    7700    215.82638   -202.21055     132378.1   -40698.487    2633.8235    -43332.31    26.110175 
    7750    212.79118    96.938241    132316.59    -40659.58    2596.7836   -43256.363    26.367224 
    7800    217.58979    39.593735    132397.92   -40658.655    2655.3432   -43313.999     26.55214 
    7850    218.93213    96.208299    132372.89   -40646.417    2671.7244   -43318.142    26.819451 
    7900    215.00504   -146.86481    132277.99   -40733.431    2623.8003   -43357.232     27.06006 
    7950    214.03538    24.591433    132242.73   -40734.419    2611.9672   -43346.386    27.166921 
    8000    215.37318    15.077475     132303.6   -40681.344    2628.2929   -43309.637    27.240561 
    8050    213.01214    19.788574    132395.72   -40679.805    2599.4801   -43279.285    27.558871 
    8100    216.85257    -134.9378    132340.94   -40668.445    2646.3465   -43314.791    27.730295 
    8150    212.78371     -74.3733    132309.03   -40733.292    2596.6924   -43329.984    27.746925 
    8200     218.6604   -73.730079    132090.76   -40705.288    2668.4082   -43373.696    27.745679 
    8250    218.85897     223.5322    132210.68   -40716.418    2670.8315    -43387.25    27.857975 
    8300    215.03867   -101.99128    132230.76   -40707.075    2624.2108   -43331.286    28.161008 
    8350    212.80611   -196.79375    132043.85   -40707.241    2596.9658   -43304.207    28.403319 
    8400    214.45079    139.55561    131880.69    -40737.66    2617.0365   -43354.696    28.686988 
    8450    216.22647   -132.14138    131952.48   -40691.793    2638.7059   -43330.499    28.780612 
    8500    216.35377    6.7641953    131768.23   -40702.543    2640.2595   -43342.802     28.96336 
    8550    215.57216    23.038064    131896.48    -40697.91    2630.7212   -43328.631    29.109506 
    8600    213.18923    40.038383    131940.51   -40710.605    2601.6412   -43312.246      29.2405 
    8650    220.59455    75.051297    132056.48   -40693.069    2692.0116    -43385.08    29.293058 
    8700    214.65273   -100.91216    132071.23   -40709.361    2619.5009   -43328.862    29.648294 
    8750     217.7184    -48.07476    131993.93   -40711.599    2656.9126   -43368.511    29.814733 
    8800    214.11882   -66.946886     131883.6    -40745.91    2612.9854   -43358.896     30.04664 
    8850    212.41842     82.66951    131846.14   -40767.274    2592.2346   -43359.509    30.288404 
    8900    213.68736   -131.85873    131880.06   -40742.195    2607.7201   -43349.915     30.38264 
    8950    210.92984    -43.43076    131803.55   -40752.739    2574.0688   -43326.808    30.271577 
    9000    215.52149      154.887    131973.52   -40712.802    2630.1028   -43342.905    30.397944 
    9050    211.73751    72.076005    131919.32   -40761.426    2583.9252   -43345.351    30.458251 
    9100    213.97463   -129.64724    131863.24   -40794.164    2611.2257    -43405.39    30.634128 
    9150    210.32947   -22.037137    131833.46   -40774.811    2566.7423   -43341.553    30.588319 
    9200    212.66951    59.190458    131965.18   -40772.046    2595.2988   -43367.345    30.604295 
    9250    217.04509    1.2964052    132053.88   -40787.318    2648.6959   -43436.014    30.789132 
    9300    213.27329  -0.95343853    132178.74   -40760.931     2602.667   -43363.598    30.831151 
    9350    213.29236   -109.11747    132200.86   -40745.078    2602.8998   -43347.978    31.170775 
    9400     215.5485    30.824689    132180.93   -40760.465    2630.4323   -43390.897    31.397819 
    9450    213.46661    52.497286    132191.78   -40760.483    2605.0262    -43365.51    31.536157 
    9500    215.26062    17.417587    132129.21   -40695.591    2626.9193    -43322.51    31.753455 
    9550    216.85323    -16.94702    132012.99   -40656.691    2646.3545   -43303.045    32.072809 
    9600    214.51808   -107.95452    131967.81   -40651.946    2617.8578   -43269.804    32.335432 
    9650    217.14097    57.083491    131903.06   -40652.845     2649.866   -43302.711    32.481226 
    9700    214.20554    7.4379558    131947.68   -40686.206    2614.0437   -43300.249    32.781741 
    9750    215.24324    224.83382    132022.61   -40692.911    2626.7072   -43319.618    32.994876 
    9800    214.79469   -59.449074    132108.11   -40691.189    2621.2333   -43312.422    33.082957 
    9850     217.2452   -11.461625    132027.45   -40625.571     2651.138   -43276.709    33.136979 
    9900    214.92079   -87.137137    131904.54   -40603.323    2622.7722   -43226.095     33.03677 
    9950    217.50833   -37.689298    131869.09   -40623.452    2654.3491   -43277.801    33.327663 
   10000    214.78202   -7.0293462    131897.22    -40620.25    2621.0787   -43241.328    33.583409 
   10050    216.19088    85.884609     132000.3    -40666.81    2638.2717   -43305.081    33.724784 
   10100    217.59402    19.678907    132031.23   -40675.646    2655.3947   -43331.041    33.930772 
   10150    216.34316    -56.49612    132094.41   -40714.212      2640.13   -43354.342    34.126298 
   10200    213.08671    15.833902    132029.03   -40717.766    2600.3901   -43318.156    34.452908 
   10250    211.71065     65.38682    131925.21   -40719.529    2583.5974   -43303.126    34.533451 
   10300    218.00931   -35.455423    131864.43   -40649.226    2660.4627   -43309.688    34.755446 
   10350    214.87985     170.6073    131913.43   -40650.676    2622.2726   -43272.949     34.91886 
   10400    215.88741   -24.580089     131972.2   -40694.008    2634.5682   -43328.576    35.199183 
   10450    215.80782    99.978794    132054.84   -40670.221     2633.597   -43303.818    35.348026 
   10500    213.69629    -8.331926    131923.83   -40709.829    2607.8291   -43317.658    35.481186 
   10550    214.99534   -73.144713    131955.16   -40665.931     2623.682   -43289.613    35.837119 
   10600    221.96651   -159.23732    131796.16   -40628.677    2708.7542   -43337.432    36.040175 
   10650    215.00548   -79.809376    131629.75   -40643.333    2623.8057   -43267.139    36.025594 
   10700    222.43018   -33.168774     131598.8   -40655.207    2714.4126    -43369.62    36.226579 
   10750    216.61898   -27.851944     131641.3   -40649.346    2643.4959   -43292.842    36.166284 
   10800    215.60163   -102.16812    131411.22   -40671.375    2631.0807   -43302.456    36.322191 
   10850    215.14331   -128.88584    131370.42   -40674.449    2625.4877   -43299.937     36.53474 
   10900    216.04661    31.939336    131399.75   -40674.021     2636.511   -43310.532    36.605674 
   10950    211.96451   -112.09301    131373.99   -40707.253    2586.6954   -43293.948    36.766558 
   11000    212.07132    111.79664    131436.57   -40715.676    2587.9989   -43303.675    37.008818 
   11050    213.51781    95.907918    131390.51   -40701.868     2605.651   -43307.519    37.206556 
   11100    213.87444   -166.05585    131186.94   -40644.933    2610.0032   -43254.936    37.417946 
   11150    212.66444   -69.381606    131148.88    -40662.46    2595.2369   -43257.696    37.628297 
   11200    209.84336    78.041358    131119.46    -40709.78    2560.8101    -43270.59    37.853646 
   11250    208.02281   -71.065054    131084.21   -40717.449    2538.5931   -43256.042    37.969567 
   11300    216.63254    10.924286    131066.61   -40683.681    2643.6614   -43327.342    38.239208 
   11350    214.89888    87.935855    131184.33   -40664.623    2622.5048   -43287.128     38.51151 
   11400     212.5163   -73.406624    131135.92   -40681.237    2593.4292   -43274.666    38.732175 
   11450    211.74581    163.99951    131265.05   -40670.007    2584.0265   -43254.034    38.823105 
   11500    214.36791   -152.82017    131322.75   -40671.583    2616.0252   -43287.608    38.956524 
   11550    214.10301   -13.747363    131192.37    -40643.19    2612.7925   -43255.982    38.996367 
   11600    213.73997    51.369507    131137.75    -40719.67    2608.3621   -43328.032    39.115954 
   11650    215.13563    153.75313    131259.31   -40721.713     2625.394   -43347.107    39.293232 
   11700    214.88773    21.557765    131273.88   -40726.397    2622.3687   -43348.766    39.568211 
   11750    211.25206    47.588475    131389.87   -40729.799     2578.001     -43307.8    39.688489 
   11800    215.42463   -76.937887    131395.85   -40684.227    2628.9208   -43313.148    39.836085 
   11850    212.19392    167.68291     131427.9   -40697.126     2589.495   -43286.621    39.873546 
   11900    209.14758    100.03885    131492.24   -40699.455    2552.3192   -43251.774    39.884059 
   11950    211.91373     -13.0459     131566.3   -40713.438    2586.0757   -43299.513    39.974739 
   12000    211.27713   -53.885701    131470.06   -40666.141     2578.307   -43244.448    40.103965 
   12050    213.59643   -89.692994    131621.81    -40686.28    2606.6104    -43292.89    40.308734 
   12100    215.09274   -60.382541    131555.48    -40649.09    2624.8706    -43273.96    40.515207 
   12150    211.86368   -33.821439    131488.92   -40647.404     2585.465   -43232.869    40.821586 
   12200    218.47059    93.080473    131459.14    -40629.98     2666.092   -43296.072    40.941739 
   12250    215.15942    74.531719    131542.52   -40668.329    2625.6843   -43294.013    41.124267 
   12300    217.79661    111.04095    131712.58   -40639.352    2657.8671   -43297.219    41.153163 
   12350    218.41431   -115.83475    131745.99    -40651.57    2665.4051   -43316.975    41.166193 
   12400    214.91724   -4.3375548    131765.53   -40709.304    2622.7288   -43332.033    41.289183 
   12450    213.37308   -22.125927    131788.58   -40735.971    2603.8848   -43339.855    41.539505 
   12500    213.03187   -58.864592    131709.06   -40742.797    2599.7208   -43342.518    41.626156 
   12550    207.25201    58.618265     131626.8   -40792.831    2529.1868   -43322.017    41.854578 
   12600    212.74669    205.24879    131671.62    -40770.67    2596.2406    -43366.91    41.836849 
   12650    214.67183    85.380007    131700.58   -40753.457     2619.734   -43373.191    42.006435 
   12700     215.4208   -36.914138    131733.54   -40738.326    2628.8741     -43367.2    42.251637 
   12750    211.76662    38.648415    131741.91    -40715.55    2584.2804    -43299.83    42.324645 
   12800    214.55161   -253.86456    131619.45   -40754.146    2618.2669   -43372.413    42.561137 
   12850    212.81515   -6.9026676    131627.31   -40729.166    2597.0761   -43326.242    42.765069 
   12900    214.66435   -94.377581    131521.97   -40660.299    2619.6427   -43279.942    43.039897 
   12950    213.95127    38.793192     131514.2   -40644.307    2610.9407   -43255.248    43.157946 
   13000    215.48371   -67.718542       131550   -40665.093    2629.6417   -43294.734    43.344201 
   13050    214.40114   -6.3820187    131549.29   -40668.918    2616.4306   -43285.348    43.430616 
   13100    215.12368    -3.751934    131571.98   -40686.223    2625.2482   -43311.471    43.689373 
   13150    212.95424   -72.814149     131534.5    -40764.62    2598.7736   -43363.393    43.932115 
   13200    208.29532    24.648352     131391.8    -40714.37    2541.9187   -43256.288    44.225258 
   13250    213.99826    60.968988    131356.81    -40683.78    2611.5141   -43295.295    44.339362 
   13300    217.32185    23.830565    131359.81   -40691.971    2652.0733   -43344.045    44.438321 
   13350    216.02659    234.56093    131533.95    -40661.99    2636.2667   -43298.256    44.599728 
   13400     216.3893    7.1680825    131721.03    -40672.33    2640.6931   -43313.023     44.64647 
   13450    216.07869   -100.90678    131687.23   -40662.051    2636.9026   -43298.954    44.790242 
   13500    218.08844    68.896189    131759.75     -40616.2    2661.4284   -43277.629    44.878832 
   13550    214.97127    9.0934099    131689.29   -40645.494    2623.3881   -43268.882    45.013334 
   13600    211.37638   -14.476298    131651.94   -40674.972    2579.5182    -43254.49    45.141064 
   13650    214.50853   -5.8999849    131528.17    -40706.38    2617.7412   -43324.121    45.302901 
   13700    211.46345   -28.854954    131559.28   -40678.842    2580.5808   -43259.423    45.575004 
   13750     216.3909   -95.984685    131534.48   -40718.625    2640.7126   -43359.338    45.642475 
   13800    212.35971    61.660313     131560.9   -40720.603    2591.5181   -43312.121     45.77446 
   13850    212.07411    95.396578    131578.21    -40745.08    2588.0329   -43333.112    45.953861 
   13900    214.66467   -47.383458    131652.28   -40740.135    2619.6467   -43359.781    46.155847 
   13950    211.82609    248.14817     131624.1   -40723.694    2585.0062   -43308.701    46.246323 
   14000    213.63326    110.57943    131758.53   -40748.904    2607.0599   -43355.964    46.566253 
   14050     210.3652   -126.90116     131681.9   -40759.983    2567.1784   -43327.161    46.966326 
   14100    211.80649   -67.234783    131537.03   -40737.617     2584.767   -43322.384    46.911097 
   14150    218.10649    170.47184    131630.03   -40699.316    2661.6487   -43360.965    47.169394 
   14200    216.09301   -6.5003703    131702.01   -40738.991    2637.0773   -43376.068    47.231335 
   14250    215.99388    170.85413    131985.88   -40724.939    2635.8676   -43360.807    47.467457 
   14300    213.59588    83.179539    132029.52   -40757.848    2606.6038   -43364.452    47.624488 
   14350    213.88822    -21.75572     131957.6   -40757.302    2610.1713   -43367.473    47.765419 
   14400    217.03391   -159.77546    131991.98    -40760.02    2648.5595    -43408.58    47.742525 
   14450    215.33041    33.894299    131977.97   -40741.014    2627.7709   -43368.785    47.812673 
   14500    219.21135     -25.6526    131954.75   -40756.916    2675.1318   -43432.048    48.129656 
   14550    210.42629    85.400789    131773.08   -40786.551    2567.9239   -43354.474    47.984106 
   14600    215.74825    53.893474    131854.93   -40766.845      2632.87   -43399.715    47.989499 
   14650     217.7818    184.83831    132063.57   -40750.464    2657.6863   -43408.151    48.026849 
   14700    216.06518   -90.303949    132055.18   -40720.165    2636.7376   -43356.902    48.264954 
   14750    214.53156   -180.91197    131985.22   -40768.496    2618.0222   -43386.518    48.604491 
   14800     216.0665    19.806693     131964.4   -40730.626    2636.7537    -43367.38    48.814459 
   14850    214.35747    48.337861    131938.31   -40746.792    2615.8978    -43362.69    49.124232 
   14900    212.14849   -33.835345    131910.74   -40739.374    2588.9405   -43328.314    49.281485 
   14950    213.60337    55.519842    131886.66   -40757.955    2606.6951    -43364.65     49.60851 
   15000    213.29811    36.225808    131984.52   -40732.909    2602.9699   -43335.879    49.765808 
   15050    211.56702    115.28969    132101.65   -40804.035    2581.8447    -43385.88    49.949525 
   15100    212.99252    52.689302    132154.23   -40777.616    2599.2407   -43376.856    50.121111 
   15150    211.86827   -128.73733    132112.59   -40810.837    2585.5209   -43396.358    50.193187 
   15200    211.44734     168.2949    132079.26   -40815.436    2580.3842    -43395.82    50.445055 
   15250    214.47572     53.60536    132178.74   -40781.767    2617.3408   -43399.108    50.545832 
   15300    214.09962   -28.434314    132118.55     -40828.4    2612.7511   -43441.151    50.575441 
   15350    211.39327   -83.930087    132035.92   -40794.068    2579.7244   -43373.792    50.900049 
   15400    212.12362    137.22749     132030.8   -40834.793    2588.6371    -43423.43    51.070919 
   15450    211.86723   -1.0415761    131943.92   -40797.501    2585.5082   -43383.009    51.150771 
   15500    217.76873    48.816734    132008.09   -40788.884    2657.5268   -43446.411    51.207496 
   15550    216.58873    117.25566    132037.88   -40779.411    2643.1267   -43422.538    51.245648 
   15600    215.30298    141.32327    132141.02   -40796.203    2627.4362   -43423.639    51.362754 
   15650    216.06123    49.687418    132166.34   -40764.548    2636.6895   -43401.237    51.466606 
   15700    212.84184   -65.085666    132270.37   -40800.286    2597.4019   -43397.688    51.819336 
   15750    213.30353   -173.40183     132149.6   -40794.454     2603.036    -43397.49    51.995535 
   15800    219.91727     167.5751    132197.68   -40765.363    2683.7464   -43449.109    52.299212 
   15850    215.34393   -102.59113    132235.93   -40797.934    2627.9359    -43425.87    52.534038 
   15900    216.92871   -116.72609    132221.64   -40797.842    2647.2757   -43445.118    52.589348 
   15950    216.16369   -243.64131    132017.07    -40812.24    2637.9399    -43450.18    52.839905 
   16000    215.69797     36.71634    131918.21   -40760.043    2632.2565   -43392.299    52.988026 
   16050    215.30072   0.61158383    131986.83   -40766.572    2627.4087    -43393.98    53.166268 
   16100    214.83345    115.52884    131964.35   -40797.395    2621.7063   -43419.102    53.329834 
   16150    217.95018    9.0909864    131953.48   -40762.989    2659.7411    -43422.73    53.387826 
   16200    210.51671    120.93095    132138.71   -40784.159    2569.0272   -43353.186    53.585024 
   16250     213.6554    74.413876    132231.69   -40764.319      2607.33   -43371.649    53.545887 
   16300    213.89704    119.66931     132042.1   -40728.714    2610.2789   -43338.993    53.732726 
   16350    220.56527    164.67955    132089.34   -40714.351    2691.6543   -43406.005    53.957197 
   16400    214.95012    45.633761    132207.72    -40691.74    2623.1301   -43314.871    54.196091 
   16450     215.8284    -131.2826    132291.17   -40729.745    2633.8481   -43363.593    54.335906 
   16500    218.40009    33.060921    132122.03   -40705.721    2665.2316   -43370.953    54.362298 
   16550    215.65509   -68.058487    132187.95   -40714.243    2631.7332   -43345.976    54.531541 
   16600     213.6699   -22.071196    132084.08   -40758.854    2607.5071   -43366.361    54.603664 
   16650    213.66542    26.087008    132119.56   -40730.103    2607.4524   -43337.555    54.719957 
   16700    216.97434    39.114457    132092.81   -40737.414    2647.8325   -43385.247     54.91811 
   16750    215.81353   -29.770695    132108.31   -40802.263    2633.6667    -43435.93    55.061148 
   16800    216.99893   -15.559853    132168.61   -40742.777    2648.1326    -43390.91    55.387975 
   16850    214.78353    118.25892    132161.79   -40750.808    2621.0971   -43371.905    55.628563 
   16900    211.22006     164.7151    132288.92   -40780.693    2577.6106   -43358.304    55.966908 
   16950    216.16584   -70.106201    132248.36   -40711.287    2637.9661   -43349.253    56.274231 
   17000    217.19199     93.46625    132247.14   -40696.134    2650.4886   -43346.623    56.418519 
   17050    212.28991   -117.66006    132238.41   -40718.126    2590.6664   -43308.792    56.599667 
   17100    213.35001    31.322367    132305.44   -40706.866    2603.6033    -43310.47    56.793123 
   17150    214.02497   -47.502773     132240.3   -40725.196    2611.8401   -43337.036    56.805961 
   17200    215.45515    25.749902    132217.05   -40714.875    2629.2932   -43344.168    56.991952 
   17250    215.21735   -131.16109    132247.77    -40731.78    2626.3913   -43358.171    57.046102 
   17300    217.04316   -9.7761211    132213.07   -40681.043    2648.6724   -43329.715    57.331099 
   17350    212.89693    55.772094     132194.1   -40717.972    2598.0741   -43316.046    57.624212 
   17400    216.92945   -90.178863    132150.85   -40707.156    2647.2848   -43354.441    57.682021 
   17450    214.39539    54.765709    132166.75   -40700.186    2616.3605   -43316.546    57.609116 
   17500    216.67051    129.78313    132147.19   -40747.274    2644.1247   -43391.399    57.854924 
   17550    211.79446   -48.761392    132160.62   -40755.484    2584.6202   -43340.104    57.941877 
   17600    215.44298    114.10382     132321.7   -40780.138    2629.1447   -43409.282    57.937075 
   17650    211.64699    1.5475823    132338.99   -40789.322    2582.8206   -43372.143    58.012606 
   17700    217.32564   -24.416423    132419.87   -40793.309    2652.1196   -43445.429    58.252894 
   17750    210.14601   -136.94634    132152.31   -40823.187    2564.5035   -43387.691    58.401948 
   17800      214.759    49.086914    132073.23   -40819.678    2620.7977   -43440.476    58.547614 
   17850    212.51013    62.293225    132207.92   -40796.529    2593.3538   -43389.883    58.863252 
   17900    213.22523    260.65225    132427.61    -40796.74    2602.0805    -43398.82    59.009497 
   17950    214.18856   -25.433418    132419.19   -40767.542    2613.8364   -43381.378    59.023053 
   18000     213.8912   -38.267055    132389.43   -40785.031    2610.2077   -43395.239    59.371939 
   18050    217.19713    63.566991    132324.95   -40813.237    2650.5513   -43463.789    59.579909 
   18100    216.89667    107.76559    132368.34   -40774.052    2646.8847   -43420.937    59.708717 
   18150    219.92036   -60.464218    132372.97   -40771.852    2683.7841   -43455.636    59.767853 
   18200     213.1508   -55.111607    132191.23    -40832.01    2601.1723   -43433.182    59.829073 
   18250    216.08559    52.154374    132310.24   -40803.109    2636.9868   -43440.096    60.043967 
   18300    214.06317   -70.179934    132387.06    -40829.05    2612.3063   -43441.356     60.18322 
   18350    217.65639    38.331182    132452.72   -40792.104     2656.156    -43448.26    60.720147 
   18400    214.11578    101.06608    132629.57   -40793.878    2612.9482   -43406.827    60.915751 
   18450    213.53691  -0.91906547    132732.43   -40830.654    2605.8841   -43436.538    61.148605 
   18500    214.10011   -95.873764    132590.73   -40805.511    2612.7571   -43418.269    61.336896 
   18550     213.6779   -111.51484    132436.58   -40807.024    2607.6046   -43414.628    61.411867 
   18600    213.75597    126.52774    132390.69   -40844.058    2608.5574   -43452.615    61.615967 
   18650     211.4772   -100.49948    132433.81   -40876.326    2580.7486   -43457.074    61.805649 
   18700    215.30008    75.338483    132377.09   -40834.984    2627.4008   -43462.385    61.993662 
   18750     216.0348    19.900741    132342.17   -40798.412     2636.367   -43434.779    62.086254 
   18800    215.81096    42.841661    132564.96    -40826.18    2633.6353   -43459.816    62.119588 
   18850    215.35073    110.81341    132516.88   -40810.418    2628.0189   -43438.437    62.081556 
   18900    213.27156  -0.68904549    132485.77   -40837.179    2602.6459   -43439.825    62.205114 
   18950    211.56478   -13.139414     132366.1   -40841.965    2581.8173   -43423.783    62.398704 
   19000    215.18109   -31.142302    132244.52   -40790.829    2625.9487   -43416.778    62.471376 
   19050    211.95918   -64.828472    132240.48   -40817.218    2586.6303   -43403.848    62.597801 
   19100    217.95169   -17.598137    132185.81   -40767.326    2659.7596   -43427.085    62.588102 
   19150    219.14627   -161.32443    132215.29   -40751.425    2674.3376   -43425.762    62.625513 
   19200    213.16251    90.386666    132269.27   -40758.446    2601.3151   -43359.761    62.765837 
   19250    219.10041   -25.780193    132434.69   -40783.781    2673.7779   -43457.559    63.021737 
   19300    213.94779   -250.07642    132329.43   -40799.541    2610.8983   -43410.439    62.945939 
   19350    213.93238   -68.492814    132224.24   -40829.141    2610.7102   -43439.851    63.035681 
   19400     216.7796   -67.308093    132139.87   -40773.575     2645.456   -43419.031    63.130447 
   19450    216.23481   -67.493347    132132.29   -40795.891    2638.8077   -43434.699    63.185042 
   19500    213.25495   -51.539896    132120.73   -40807.655    2602.4431   -43410.098    63.447685 
   19550    216.27699   -4.3416482    132088.45   -40811.805    2639.3225   -43451.128    63.650761 
   19600    213.54426   -8.8943453    132076.23   -40825.812    2605.9738   -43431.786    63.577037 
   19650    215.15424   -106.30478    132041.41    -40809.48    2625.6211   -43435.101    63.518273 
   19700    211.76812    129.57576    131990.54   -40770.748    2584.2988   -43355.047     63.77339 
   19750    215.56403    56.716575    131983.59   -40780.717    2630.6219   -43411.338    63.875703 
   19800    213.53561   -25.955941    132001.78   -40752.519    2605.8682   -43358.387     64.08667 
   19850    216.09516    79.517946     131894.8    -40752.33    2637.1035   -43389.433    64.210394 
   19900      210.287   -130.56147    131942.47   -40733.024    2566.2241   -43299.248    64.366384 
   19950    213.53779   -2.1918365    131794.07   -40715.208    2605.8949   -43321.103    64.356551 
   20000    215.85758    155.33104    131960.42   -40699.749    2634.2043   -43333.953    64.661888 
   20050    214.31641    89.304106    132192.67   -40708.257    2615.3967   -43323.654    64.997446 
   20100    214.67822    28.349259    132328.22   -40680.747     2619.812   -43300.559    65.321284 
   20150    216.29983   -57.580684    132301.02   -40713.406    2639.6012   -43353.007    65.527021 
   20200    213.26157   -105.55635    132219.11   -40689.446    2602.5239    -43291.97    65.626809 
   20250    214.74361   -138.06449    132086.92   -40719.641      2620.61   -43340.251    65.791352 
   20300    211.99011   -25.221475    131988.21   -40701.462    2587.0078    -43288.47    65.750523 
   20350     212.1063     24.34874    131975.19   -40785.802    2588.4258   -43374.228    65.841184 
   20400      212.918     185.3011    131840.47   -40755.034    2598.3312   -43353.365    65.891941 
   20450    215.64288   -179.22283    131933.71   -40735.859    2631.5841   -43367.443    65.931145 
   20500    218.00866    159.35129    131919.02   -40664.076    2660.4549    -43324.53    65.947591 
   20550     217.5935   -98.152812    131950.72   -40710.264    2655.3884   -43365.653    65.994927 
   20600    215.93027    85.112359    132021.56   -40699.548    2635.0913    -43334.64    66.166758 
   20650    211.85365    38.723038    132067.86   -40739.702    2585.3426   -43325.044    66.282488 
   20700     216.1405   -24.033263    132052.43   -40749.103    2637.6569    -43386.76    66.415263 
   20750    216.28295    88.542177    132012.11   -40795.367    2639.3952   -43434.762    66.660614 
   20800    212.58166    -50.97087    131988.39    -40757.46    2594.2267   -43351.687    66.895958 
   20850    215.31411     9.570288    132052.04   -40741.164     2627.572   -43368.736    66.993711 
   20900    218.53233    134.39126    132122.78   -40746.091    2666.8454   -43412.936    67.307477 
   20950     217.7209   -93.798624    132192.42    -40744.31    2656.9431   -43401.253    67.628767 
   21000    219.29355   -92.670196    132219.13   -40731.918    2676.1349   -43408.052    67.946379 
   21050    216.69751   -60.409337    132114.75   -40775.609    2644.4543   -43420.063    68.142723 
   21100    206.53009   -23.676577    132009.42   -40825.138    2520.3768   -43345.515    68.248029 
   21150    214.00321   -27.654104    132049.69    -40832.48    2611.5745   -43444.054    68.406744 
   21200    210.57577    26.337541    132069.67   -40821.678     2569.748   -43391.426    68.695912 
   21250    216.84931    89.540638    132049.51   -40830.756    2646.3067   -43477.063    68.665652 
   21300    211.27667    138.00238    132078.45   -40844.882    2578.3014   -43423.184    68.968383 
   21350     213.2358   -164.06788    131987.58   -40850.623    2602.2095   -43452.833    69.010621 
   21400    212.47617    61.183746    131919.06   -40766.876    2592.9395   -43359.816    68.961686 
   21450    214.30349   -8.7662171    131794.92     -40755.6     2615.239   -43370.839    68.995969 
   21500     209.8118   -17.866652    131797.26    -40815.53     2560.425   -43375.954    69.253123 
   21550    215.05295    142.51669    131823.87   -40797.276     2624.385   -43421.661    69.276874 
   21600    211.91056   -270.34077    131693.79   -40829.057    2586.0371   -43415.094    69.263565 
   21650    210.54985   -53.810041    131536.25   -40833.718    2569.4317   -43403.149     69.29069 
   21700    212.56408   -216.88108    131398.27   -40850.285    2594.0122   -43444.297    69.226939 
   21750    209.60718   -25.907637    131275.51   -40836.565    2557.9279   -43394.493     69.30431 
   21800    210.48946   -0.6820659    131172.63   -40848.084    2568.6947   -43416.778    69.345104 
   21850    207.88734    19.603953    131316.26   -40798.311    2536.9399   -43335.251    69.610377 
   21900    216.24931   -66.522593    131335.14   -40740.555    2638.9847    -43379.54    69.383685 
   21950    216.49703    54.196526    131314.19   -40717.416    2642.0078   -43359.424    69.533806 
   22000    214.18796    -63.19531     131403.2   -40706.989    2613.8291   -43320.818    69.644709 
   22050    215.33419    188.59506    131411.67   -40683.248     2627.817   -43311.065    69.677591 
   22100    213.15076   -154.79347    131412.68   -40691.124    2601.1718   -43292.296    69.960197 
   22150    213.50439    83.823728    131286.93   -40707.574    2605.4873   -43313.061    70.217025 
   22200    213.62499   -38.217339    131306.21   -40700.131     2606.959    -43307.09     70.53274 
   22250    215.32913    53.107488    131269.03   -40716.723    2627.7554   -43344.479    70.845621 
   22300    211.71715    16.063267    131249.98   -40728.026    2583.6768   -43311.703    70.981021 
   22350    214.57848    2.7883395    131324.45   -40721.498    2618.5948   -43340.093    71.323214 
   22400     214.3018    78.715312    131207.58   -40769.219    2615.2184   -43384.437    71.622792 
   22450    213.16403    70.491982    131253.22   -40760.673    2601.3337   -43362.007    71.679434 
   22500    212.09585   -35.520043    131325.85   -40776.239    2588.2983   -43364.538    71.989897 
   22550    214.49267      133.314    131279.57   -40750.646    2617.5477   -43368.194     72.15281 
   22600    214.30192    71.607744    131376.55   -40707.506    2615.2198   -43322.726    72.122513 
   22650    214.86972   -80.770077    131321.92   -40763.406     2622.149   -43385.555     72.22234 
   22700    211.10479     129.8958    131277.65    -40776.93    2576.2039   -43353.134    72.196669 
   22750    213.87401    109.89712    131467.17   -40768.283    2609.9978   -43378.281    72.247899 
   22800    211.08628   -28.212777    131480.04   -40763.792     2575.978    -43339.77    72.005883 
   22850    213.98385    129.81926    131477.83   -40708.246    2611.3383   -43319.584    72.375199 
   22900     210.9942    41.685776    131604.25   -40745.036    2574.8542    -43319.89    72.389586 
   22950    211.86641   -64.843757    131718.79   -40739.238    2585.4982   -43324.737    72.541963 
   23000    213.47198   -17.164771    131640.15   -40764.529    2605.0917   -43369.621    72.823678 
   23050    217.38273    28.212855    131787.07   -40769.333    2652.8163    -43422.15    73.123919 
   23100    217.55151   -19.613293    131852.56   -40767.199    2654.8761   -43422.075    73.175886 
   23150    217.41244    103.41905    131912.96   -40718.063    2653.1789   -43371.242    73.360836 
   23200    217.00341    86.450375    132053.27   -40769.449    2648.1873   -43417.637    73.136593 
   23250    211.89159    20.058738       132024   -40828.853    2585.8055   -43414.659    73.214984 
   23300    210.28203   -98.544274    132024.39   -40881.844    2566.1634   -43448.008    73.474845 
   23350    208.28193   -67.592522     131886.9   -40861.381    2541.7553   -43403.136    73.602525 
   23400    212.78783    70.596402     131831.9   -40859.248    2596.7428    -43455.99    73.943637 
   23450     212.9552    111.05832    131953.01    -40836.47    2598.7853   -43435.255    74.274032 
   23500     211.4859     82.53303     132113.7   -40847.095    2580.8548    -43427.95      74.5893 
   23550    217.42938   -127.66049    132056.05   -40838.542    2653.3856   -43491.928    74.804786 
   23600    214.66412    152.11392     132184.3   -40848.534      2619.64   -43468.173    75.048827 
   23650    212.27228   -33.047105    132260.33   -40827.258    2590.4513    -43417.71    75.252148 
   23700    212.50811   -82.454654    132267.42   -40799.894    2593.3291   -43393.223    75.496063 
   23750    213.48857   -121.43185    132225.03   -40825.096    2605.2942   -43430.391    75.672044 
   23800    211.38111   -58.337927    132049.05    -40828.77    2579.5759   -43408.346    75.554479 
   23850    212.45903    36.493301    131977.49   -40829.767    2592.7303   -43422.497    75.506796 
   23900    211.68566    75.954933    132109.67   -40798.705    2583.2924   -43381.997    75.729937 
   23950    214.80217    98.742616    132130.69   -40774.115    2621.3246   -43395.439    75.677814 
   24000    214.09404    83.654951    132135.45   -40810.695     2612.683   -43423.378    75.819653 
   24050    215.11896    3.8824151     132154.5   -40801.917    2625.1906   -43427.107    76.027745 
   24100    216.25115    47.228752    132153.02   -40810.246    2639.0071   -43449.253    76.506411 
   24150    218.55964   -56.556333    132239.97   -40789.571    2667.1786   -43456.749    76.668104 
   24200     217.9467    102.47902    132227.32   -40745.108    2659.6987   -43404.807    76.608829 
   24250    212.59564   -82.251676    132244.74   -40752.897    2594.3973   -43347.295    76.589969 
   24300    214.82872    -142.8678    132209.05   -40743.018    2621.6486   -43364.666     76.60975 
   24350    213.24345    62.348541    132200.94    -40735.52    2602.3029   -43337.823    76.795522 
   24400     217.0234   -11.033419    132272.59   -40738.226    2648.4312   -43386.657    77.165493 
   24450    214.82316     46.71571    132362.26   -40743.406    2621.5808   -43364.987    77.278786 
   24500    214.22464   -106.70912    132269.29   -40771.554    2614.2768    -43385.83    77.392466 
   24550    216.20532   -92.589658    132197.44   -40799.634    2638.4479   -43438.082    77.687447 
   24600    214.76722    83.870377    132269.62   -40731.003    2620.8981   -43351.901    77.843135 
   24650    212.46091   -40.654019    132275.76   -40732.294    2592.7532   -43325.047    77.935542 
   24700    213.94319   -25.552205     132285.6   -40728.366     2610.842   -43339.208    78.221167 
   24750    216.78615   -140.17005    132150.67   -40728.175    2645.5359   -43373.711    78.655056 
   24800    215.24915    86.142148    132215.59   -40744.422    2626.7793   -43371.201    78.808857 
   24850    217.31157   -128.42899    132145.84   -40805.309     2651.948   -43457.257    78.722286 
   24900    214.88104    28.925185    131966.95   -40815.429    2622.2871   -43437.716    78.692345 
   24950    213.04544     60.21985    132038.91   -40840.566    2599.8865   -43440.452    78.915134 
   25000    213.69223   -158.07174    131980.19   -40867.128    2607.7795   -43474.907    79.211405 
   25050    210.53419   -15.793254    131951.97   -40885.479    2569.2405    -43454.72    79.224941 
   25100    209.87679   -27.333257    131869.96   -40897.321    2561.2181   -43458.539    79.085866 
   25150    213.46507   -73.138447    131824.26    -40888.63    2605.0074   -43493.638    79.019511 
   25200     213.5015    143.30101    131926.56   -40899.859     2605.452   -43505.311    78.729191 
   25250    210.18429    121.95768    131977.65   -40893.098    2564.9706   -43458.069    78.868343 
   25300    212.06474    31.658973    131984.55   -40869.705    2587.9186   -43457.624    78.902739 
   25350    216.29842   -146.17093     132001.2   -40867.427     2639.584   -43507.011    79.023638 
   25400    215.32868    7.9432893    131983.29   -40842.548    2627.7498   -43470.298    79.219574 
   25450     215.5156   -23.322927    131994.27   -40800.074    2630.0309   -43430.105    79.359985 
   25500    211.35787    40.201237       132099   -40786.202    2579.2923   -43365.495    79.557412 
   25550    209.07139   -33.171617    132092.53   -40820.478    2551.3894   -43371.867    79.783178 
   25600    213.17072   -6.3670783    131975.27   -40795.798    2601.4153   -43397.213    80.018851 
   25650    209.03532    25.341197    132010.54    -40801.88    2550.9493    -43352.83    80.209383 
   25700    211.70351    172.27123    132132.88   -40841.111    2583.5103   -43424.622    80.292585 
   25750    210.99008   -79.868378    132192.76   -40839.941     2574.804   -43414.745    80.787646 
   25800    212.75611   -47.700257    132166.86   -40802.748    2596.3556   -43399.103    81.018269 
   25850    216.71856   -40.244394    132187.95   -40833.368    2644.7112   -43478.079    80.924457 
   25900    216.48438     96.63436    132166.27   -40818.683    2641.8533   -43460.537    81.203589 
   25950    212.22643   -31.179047    132250.37   -40823.748    2589.8917    -43413.64    81.524318 
   26000    218.37964   -142.86808    132165.49    -40819.86     2664.982   -43484.842    81.324749 
   26050    218.68021   -47.051384    132173.14   -40835.006      2668.65   -43503.656    81.317035 
   26100    211.60692    51.608914    132160.81   -40857.408    2582.3316   -43439.739     81.62818 
   26150    208.02465    86.567818    132269.41   -40885.854    2538.6156    -43424.47     81.55298 
   26200    211.48585    23.652328     132279.2   -40809.691    2580.8542   -43390.545    81.512025 
   26250    220.26416   -48.763188    132235.91    -40776.18    2687.9796   -43464.159    81.712841 
   26300    210.80128   -156.01019    132170.32    -40782.23       2572.5    -43354.73    81.763382 
   26350    215.08566   -30.079338    132032.21   -40737.601    2624.7842   -43362.385    82.073339 
   26400    215.39895    44.374613    132103.58   -40763.703    2628.6074   -43392.311    82.464813 
   26450    216.61151    28.070592     132139.6   -40759.881    2643.4048   -43403.286    82.577103 
   26500    215.71383   -154.75397    132168.53   -40696.722      2632.45   -43329.172    82.787379 
   26550    215.36015    106.14153    132334.23   -40685.743    2628.1338   -43313.877    82.964213 
   26600    215.56402    107.59039    132421.93   -40692.858    2630.6218    -43323.48    83.060089 
   26650    214.54952   -35.383177    132405.68   -40747.949    2618.2415    -43366.19    83.240491 
   26700     212.5944   -86.121118    132313.23   -40768.521    2594.3822   -43362.903    83.201882 
   26750    213.92709   -29.506807    132293.28   -40799.874    2610.6457    -43410.52    83.348845 
   26800    214.27198    32.719101     132277.9   -40790.631    2614.8545   -43405.485    83.270269 
   26850    210.64149    63.907045    132256.35   -40779.867      2570.55   -43350.417    83.256115 
   26900    210.56825   -21.355611    132256.94   -40790.094    2569.6562    -43359.75    83.276499 
   26950     212.6243    -30.10399    132254.17   -40773.726    2594.7471   -43368.473    83.041664 
   27000    215.55548   -60.358637    132307.76    -40781.81    2630.5176   -43412.328     83.23013 
   27050    214.06797   -101.82582    132318.99   -40759.062    2612.3649   -43371.426    83.599103 
   27100    213.42336   -92.920832    132160.87   -40740.026    2604.4984   -43344.524    83.764165 
   27150    214.00917    24.203459    132194.94   -40738.603    2611.6473    -43350.25      83.9046 
   27200    219.34904     71.77118     132098.8   -40716.017     2676.812   -43392.829    84.000228 
   27250    215.41177    1.7101277    132155.34   -40689.189    2628.7639   -43317.953    84.231471 
   27300    216.10105    103.38215    132229.47    -40674.82    2637.1754   -43311.995    84.521397 
   27350      217.644    20.003732    132237.84    -40670.48    2656.0047   -43326.485    84.701761 
   27400    217.57298   -26.025222    132257.88   -40671.365     2655.138   -43326.503    84.694892 
   27450    216.22854   -129.70174    132213.08   -40700.841    2638.7313   -43339.572    84.819128 
   27500    212.75171   -81.294483    132081.92   -40701.964    2596.3019   -43298.266    84.956547 
   27550     213.3794   -37.423122    132082.88   -40763.685    2603.9619   -43367.647    85.122854 
   27600    215.30914   -67.618201    132205.35   -40727.578    2627.5114   -43355.089    85.479808 
   27650    211.24422   -12.716323    132155.23   -40747.778    2577.9054   -43325.684    85.693471 
   27700    214.22792    156.67519    132217.49   -40735.122    2614.3168   -43349.439    85.953544 
   27750    216.79991    64.090873    132310.45   -40728.237    2645.7039   -43373.941     85.99983 
   27800    214.18797   -47.242787    132273.18   -40689.663    2613.8293   -43303.492    85.847397 
   27850    213.16632    40.611245    132237.89   -40691.993    2601.3616   -43293.355      85.9416 
   27900    214.85622   -29.377591    132217.63   -40682.511    2621.9843   -43304.496     86.01461 
   27950    208.73624   -138.78319    132231.97   -40760.304    2547.2994   -43307.603    85.856215 
   28000    214.90699   -92.601242    131910.91   -40766.281    2622.6038   -43388.885    85.927111 
   28050     215.0725   -130.83447    132029.81   -40776.666    2624.6236   -43401.289    85.840082 
   28100    214.93861   -45.385342    131983.04   -40740.319    2622.9896   -43363.308    86.117406 
   28150    214.02357    21.042242    132029.55   -40762.976     2611.823   -43374.799    86.290347 
   28200    212.27552   -50.825036    131888.92    -40742.79    2590.4908   -43333.281    86.103704 
   28250    211.67616    36.355317    131755.12   -40719.866    2583.1766   -43303.043    86.269233 
   28300    212.63831   -21.772985    131833.92   -40723.602    2594.9181    -43318.52    86.491374 
   28350    214.67752    93.766535    131798.54   -40736.782    2619.8034   -43356.585    86.703623 
   28400    212.04905   -36.741985    131771.69   -40724.022     2587.727   -43311.749    86.650288 
   28450    213.55391    16.687865    131796.74   -40720.384    2606.0915   -43326.475    86.945292 
   28500    221.07238    132.78482    131984.55   -40679.523    2697.8427   -43377.365    87.269996 
   28550    218.62829   -286.48073    132062.19    -40658.15    2668.0165   -43326.166     87.59234 
   28600    214.69137   -120.62347    131699.34   -40713.425    2619.9724   -43333.397    87.564887 
   28650    210.19619   -37.882122    131581.61   -40753.753    2565.1158   -43318.869     87.72961 
   28700    210.40988   -9.3467897    131562.44   -40777.294    2567.7236   -43345.018    87.748709 
   28750    209.68159   -115.93069    131428.18   -40752.844     2558.836    -43311.68    87.851529 
   28800    212.61692    75.860852    131458.38   -40727.306    2594.6571   -43321.963    88.091813 
   28850    218.72308    94.381967    131469.78   -40653.025    2669.1732   -43322.198    88.413277 
   28900    217.25009    134.97367    131559.32   -40631.934    2651.1976   -43283.132    88.822358 
   28950     218.2348    182.24358    131740.03   -40672.948    2663.2145   -43336.162     89.04291 
   29000    215.05517    206.05307    131879.24   -40650.027    2624.4121   -43274.439    89.193983 
   29050    209.06001   -61.922019    131895.37    -40689.96    2551.2505   -43241.211    89.143344 
   29100    215.59317   -60.535059    131862.79   -40647.991    2630.9775   -43278.968    89.412895 
   29150    211.23735    7.4030529    131800.78    -40686.53    2577.8215   -43264.352    89.594788 
   29200    217.01082    113.62711    131827.89   -40698.988    2648.2777   -43347.265    89.789862 
   29250    213.07543   -152.92109     131765.6   -40682.272    2600.2525   -43282.525    89.901167 
   29300    214.94057    221.28094     131874.8   -40662.596    2623.0135    -43285.61    89.941402 
   29350    216.07398    -45.99426    131995.92   -40676.301     2636.845   -43313.146    90.469531 
   29400    215.89556    114.46158    132046.89   -40693.135    2634.6678   -43327.802    90.405121 
   29450    217.17024    5.1553966    131984.89   -40656.248    2650.2231   -43306.471    90.397759 
   29500    216.03906   -39.376221    131932.84   -40660.003    2636.4189   -43296.422    90.592799 
   29550    214.24942   -47.850396    131885.75   -40673.176    2614.5791   -43287.755    90.686246 
   29600     216.7104   -19.283951       131905   -40635.202    2644.6116   -43279.813    90.869296 
   29650    216.44406    25.733492    131869.59   -40659.616    2641.3613   -43300.978    90.990998 
   29700    213.75013    26.025335    131879.53   -40669.261    2608.4861   -43277.747    90.952275 
   29750    215.28095    21.132452    131780.59   -40614.642    2627.1674   -43241.809    90.917198 
   29800     216.4735    5.5710725    131940.67   -40627.483    2641.7206   -43269.203    91.197836 
   29850    217.44429     148.5518    131955.34   -40651.113    2653.5675   -43304.681    91.709026 
   29900    218.38999   -51.377426    131962.78   -40641.064    2665.1083   -43306.172     92.13762 
   29950    214.14076   -16.741735    131878.26    -40671.75    2613.2532   -43285.003    92.417954 
   30000     216.3764   -80.668374    131858.85   -40682.914    2640.5356    -43323.45     92.51278 
   30050    218.80588    44.345049    131999.98   -40652.291    2670.1836   -43322.475    92.943947 
   30100    217.06022   0.45570657    131984.42   -40644.681    2648.8805   -43293.562    93.107159 
   30150    218.08032   -67.670219    131917.33   -40669.746    2661.3293   -43331.075     93.19692 
   30200    212.21831    82.725849    131877.03   -40754.642    2589.7926   -43344.434    93.438619 
   30250    215.68057    86.928347    131990.83   -40785.329    2632.0441   -43417.374    93.597931 
   30300    215.59007   -71.909161    132013.82   -40725.198    2630.9397   -43356.138    93.684458 
   30350    217.46863    -39.59862    131978.44   -40683.467    2653.8646   -43337.332    93.917425 
   30400    214.54128    7.4956824    131964.55   -40712.756    2618.1409   -43330.897    94.141276 
   30450    216.19874    23.033473    132076.96    -40715.07    2638.3676   -43353.438     94.20403 
   30500    218.36875   -52.630294    132072.28   -40763.006    2664.8491   -43427.855    94.213356 
   30550     214.8078   -170.79554     131926.9   -40787.063    2621.3933   -43408.456    94.274432 
   30600    212.72077   -65.683888    131840.52   -40779.255    2595.9244    -43375.18    94.324974 
   30650    213.06165   -12.177994    131855.55   -40789.031    2600.0843   -43389.115    94.506638 
   30700    215.31458   -132.92003    131874.64   -40752.345    2627.5778   -43379.923    94.749695 
   30750    215.46727    166.51749    131874.29   -40740.281    2629.4412   -43369.722    95.050275 
   30800    215.28187    -57.80511    131819.27   -40716.971    2627.1786    -43344.15    95.149806 
   30850    214.02956    62.546494    131712.19   -40683.629    2611.8961   -43295.525    95.049475 
   30900    215.82773    67.725928    131727.28   -40633.275      2633.84   -43267.115    95.024239 
   30950    217.36797    11.544381    131698.45   -40596.782    2652.6362   -43249.418    95.066104 
   31000    219.25961    17.614425    131616.34   -40635.783    2675.7207   -43311.504    95.297025 
   31050    215.76001    76.964539    131615.06   -40661.858    2633.0135   -43294.872    95.587027 
   31100    216.32794   -4.2773289     131691.5   -40620.238    2639.9442   -43260.183     95.72437 
   31150    219.31456   -2.3127681     131596.9   -40606.483    2676.3913   -43282.874    95.773218 
   31200    216.56749    123.67396    131717.63   -40583.308    2642.8676   -43226.176    96.009588 
   31250    215.27523    29.842931    131805.78   -40623.172    2627.0976   -43250.269    95.984793 
   31300    216.64416    44.436619    131839.82   -40616.787    2643.8032    -43260.59     95.98018 
   31350    213.30636    52.953023    131993.27   -40643.236    2603.0706   -43246.307    96.494101 
   31400    217.47141   -168.31436    131946.97   -40623.446    2653.8985   -43277.345    96.889814 
   31450    212.64714   -152.35664    131762.66   -40614.668    2595.0258   -43209.693    96.854856 
   31500    214.59721    18.539494    131711.76   -40616.624    2618.8234   -43235.448    96.834855 
   31550    214.86417   -87.223638    131728.47   -40633.018    2622.0813     -43255.1    96.842661 
   31600    218.69932    103.36035    131806.33   -40645.143    2668.8832   -43314.026    96.605153 
   31650    215.20429     78.01654    131855.94   -40645.757    2626.2319   -43271.989    96.821437 
   31700    215.32806    54.842524    131957.14   -40642.047    2627.7423   -43269.789    96.879532 
   31750    217.60588    94.381163    132004.34   -40611.951    2655.5395   -43267.491    97.001393 
   31800     214.4299    95.363158    132100.25   -40648.118    2616.7817   -43264.899    97.128455 
   31850    213.46366    -21.48987    131969.73   -40670.789    2604.9902   -43275.779    97.086139 
   31900    218.03049   -116.03318    131911.36   -40703.437    2660.7211   -43364.158    97.151712 
   31950    213.50818    100.49046    131761.48   -40735.875    2605.5335   -43341.409     97.39723 
   32000    210.43782    5.5057208    131847.73   -40730.681    2568.0645   -43298.746     97.61395 
   32050    211.88255   -48.329764     131791.9   -40753.754    2585.6952   -43339.449    97.575467 
   32100    208.32461     16.19995    131865.58   -40782.466    2542.2761   -43324.742    97.590518 
   32150    214.87837   -3.7132875    131864.47   -40740.403    2622.2545   -43362.657    97.824783 
   32200     211.0314    112.36062     131869.7   -40715.636    2575.3083   -43290.944    98.149594 
   32250    213.78342    16.209873    131959.74   -40692.987    2608.8924   -43301.879    98.584757 
   32300     216.9262    101.09757    132068.47   -40652.482     2647.245   -43299.727    98.804405 
   32350    213.44148   -71.967593    131971.64   -40670.197    2604.7195   -43274.917    98.771132 
   32400    215.35365   -39.552148     131832.6   -40707.508    2628.0546   -43335.563    98.833207 
   32450    208.82204    98.017883    131867.65   -40703.605    2548.3464   -43251.952    99.016795 
   32500      217.884   -37.433803    131870.57   -40704.522    2658.9335   -43363.455    99.115569 
   32550    214.07925   -59.614678    131861.39   -40718.716    2612.5024   -43331.219    99.275201 
   32600    214.65135   -200.00888    131816.35   -40723.325    2619.4841   -43342.809    99.450384 
   32650     210.4843   -10.268883    131704.56   -40708.742    2568.6317   -43277.374    99.871328 
   32700    215.65345    173.26126    131821.94   -40660.172    2631.7132   -43291.885    100.18948 
   32750    218.48819   -12.981912    131948.15   -40665.668    2666.3067   -43331.975    100.56062 
   32800    215.12454    35.655619    132035.87   -40625.757    2625.2587   -43251.015     100.7324 
   32850    214.88286    99.379627    132027.61   -40635.814    2622.3093   -43258.123    100.90989 
   32900    216.42048   -27.523601    132124.42   -40655.329    2641.0735   -43296.402    100.96009 
   32950    217.65528    12.841781    132160.24   -40694.037    2656.1423   -43350.179    101.36502 
   33000    213.37432    63.933934    132285.86   -40672.451       2603.9   -43276.351    101.70547 
   33050    214.27252   -220.75127    132160.78   -40647.328    2614.8611   -43262.189    101.86014 
   33100      217.517   -80.899432    132095.04   -40599.095    2654.4549    -43253.55    102.19911 
   33150    213.49447   -11.131062    132001.57   -40604.089    2605.3662   -43209.456    102.38792 
   33200    216.35506    34.152301    131974.44   -40597.189    2640.2753   -43237.464    102.36831 
   33250    218.07694    16.646226    132063.74   -40604.272     2661.288    -43265.56    102.56281 
   33300    217.23872     114.4863    132181.71   -40565.712    2651.0589   -43216.771    103.00462 
   33350    216.48697    -284.4484    132190.97   -40602.844    2641.8849   -43244.729    103.12355 
   33400    217.96841   -9.0959326    131915.95   -40578.018    2659.9637   -43237.981    103.32407 
   33450     216.3565   -17.848732    131860.74   -40605.122    2640.2928   -43245.415    103.53457 
   33500    219.53341    -43.63132    131829.18   -40596.696    2679.0621   -43275.758    103.82369 
   33550    216.27164    1.1958873    131879.36   -40578.173    2639.2572    -43217.43    103.82129 
   33600    215.44482   -62.933426    131820.91   -40597.961    2629.1672   -43227.128     103.8994 
   33650    213.68367    25.588243    131816.72   -40639.984    2607.6751   -43247.659    104.08471 
   33700    213.44778   -6.2051665    131792.47   -40603.067    2604.7964   -43207.863     104.2265 
   33750    213.05623   -3.9229215    131586.96     -40629.8    2600.0181   -43229.818    104.18867 
   33800    214.88335   -50.008135    131503.39   -40620.205    2622.3153    -43242.52    104.33518 
   33850    215.43576    -17.36552    131443.77   -40652.714    2629.0565   -43281.771    104.34545 
   33900    220.67437   -100.52913    131531.31   -40590.242    2692.9856   -43283.227    104.60796 
   33950    215.20148    31.844841    131498.55   -40590.798    2626.1976   -43216.996    104.71725 
   34000    213.56841    30.460678    131356.35   -40576.081    2606.2685   -43182.349    104.84735 
   34050    218.22753    247.91629    131397.76   -40569.835    2663.1257   -43232.961    104.77752 
   34100     212.9613    16.196219    131389.47    -40609.81    2598.8597    -43208.67      105.053 
   34150    213.41425    5.5787952    131370.88   -40602.534    2604.3872   -43206.922    105.36096 
   34200      217.829   -33.794305    131391.78   -40556.724    2658.2623   -43214.986    105.46315 
   34250    218.44566    78.379728     131481.9   -40516.616    2665.7877   -43182.404    105.78817 
   34300    215.17817   -45.000325    131408.19   -40568.374    2625.9131   -43194.287     105.8772 
   34350    214.79436    2.2632642     131379.3   -40568.787    2621.2293   -43190.017    106.07893 
   34400    213.71072   -27.981487    131438.73   -40576.118    2608.0052   -43184.123     106.2734 
   34450    214.20651    188.19463    131477.31   -40547.538    2614.0555   -43161.594    106.33938 
   34500    213.96765     51.60736    131633.24   -40590.153    2611.1406   -43201.293    106.65962 
   34550    219.16855   -56.646619    131515.72   -40598.501    2674.6094   -43273.111    106.75911 
   34600    214.10514    11.782329    131354.01    -40605.81    2612.8185   -43218.629    106.91545 
   34650    210.25496   -99.826727    131445.67   -40623.084     2565.833   -43188.916    107.29686 
   34700    211.95617  -0.10770917    131352.85    -40647.14    2586.5936   -43233.733    107.53183 
   34750    212.85266    159.73085    131552.07   -40568.096    2597.5339    -43165.63    107.80389 
   34800    218.21468   -36.145379    131646.02   -40587.639     2662.969   -43250.608    107.98001 
   34850     220.3064    144.92701    131623.71   -40534.984    2688.4952   -43223.479    108.12063 
   34900    214.60195    31.123773    131625.25   -40585.317    2618.8813   -43204.198    108.27226 
   34950    220.94744   -18.808116    131787.82   -40534.118     2696.318   -43230.436    108.65056 
   35000    218.46144   -121.19742    131705.86   -40556.759    2665.9803   -43222.739    108.76027 
   35050    219.50124    54.039319    131686.54   -40545.478    2678.6695   -43224.148    109.07022 
   35100    221.15067    49.830756    131785.01   -40518.223    2698.7981   -43217.021    109.61026 
   35150    214.03326   -95.197201    131803.74   -40552.442    2611.9413   -43164.383    109.76514 
   35200    216.02086   -3.6903091    131656.59   -40559.411    2636.1968   -43195.608    110.44312 
   35250    215.53687   -103.60919     131582.7   -40581.957    2630.2904   -43212.248    110.74943 
   35300    214.84388   -65.616402    131465.79   -40622.702    2621.8336   -43244.535    111.08347 
   35350     218.0991    34.668603    131609.04    -40632.49    2661.5585   -43294.048    111.42776 
   35400     213.7823   -64.187702    131658.33   -40631.663    2608.8787   -43240.541    111.83699 
   35450    214.49819    52.583951     131619.5   -40611.316     2617.615   -43228.931    111.93098 
   35500    214.75053   -65.268181    131803.71   -40677.234    2620.6945   -43297.928    111.95525 
   35550    212.71111     115.9635    131840.11   -40698.732    2595.8065   -43294.539    112.09468 
   35600    209.96343     58.29461    131965.61   -40764.682    2562.2754   -43326.958    112.59498 
   35650    208.97641   -23.553939    132010.79   -40755.579    2550.2303   -43305.809    112.54848 
   35700    210.50014   -24.964196     131941.6   -40769.077     2568.825   -43337.902    112.71958 
   35750    211.53069    120.93925    131960.57   -40750.627    2581.4013   -43332.028     112.8514 
   35800    211.14413   -100.71095    131967.36   -40737.286    2576.6839    -43313.97    112.98558 
   35850    217.08323    113.57574    132011.43     -40696.1    2649.1614   -43345.261    113.00391 
   35900    212.95727   -109.64328     132011.3   -40702.598    2598.8104   -43301.409    113.03332 
   35950    217.18009   -39.637978    132112.55   -40694.645    2650.3434   -43344.988    113.20772 
   36000    211.52211   -9.9806028    132156.32   -40716.565    2581.2966   -43297.861    113.33292 
   36050    216.81862     194.3267    132136.98   -40623.904    2645.9322   -43269.836    113.64227 
   36100    219.03854    40.534276    132221.32    -40638.98    2673.0229   -43312.003    114.00507 
   36150    213.50196   -28.892854     132108.9   -40705.847    2605.4576   -43311.305    114.14313 
   36200    212.06992   -284.17151    131953.03   -40748.012    2587.9817   -43335.994    114.18559 
   36250    216.77876   -98.425715    131767.89   -40719.836    2645.4458   -43365.282    114.34186 
   36300    215.98534    67.619317    131777.25   -40754.686    2635.7633    -43390.45    114.41604 
   36350    215.73659    157.94887    131962.57   -40736.874    2632.7277   -43369.602    114.34822 
   36400    210.29339   -56.443219    131936.31   -40710.062     2566.302   -43276.364    114.46057 
   36450    217.15093    36.812591    131830.47   -40691.258    2649.9875   -43341.245    114.71302 
   36500    212.51979   -8.1394596    131758.48   -40718.972    2593.4717   -43312.444    114.84982 
   36550    214.81476   -52.392963    131572.36   -40722.242    2621.4782    -43343.72    115.02412 
   36600    215.61341    52.430782    131531.29   -40746.346    2631.2246    -43377.57    115.21858 
   36650     209.6176    124.58023     131528.1   -40754.444     2558.055   -43312.499    115.52552 
   36700    211.12127   -15.863985    131540.86   -40755.835     2576.405    -43332.24    115.73001 
   36750    211.20789    102.62054    131677.74   -40744.585     2577.462   -43322.047    115.67861 
   36800    216.18876    115.67619    131917.26   -40739.703    2638.2457   -43377.949     116.0815 
   36850    214.69769   -15.751591    131897.01     -40738.1    2620.0496    -43358.15    116.24788 
   36900    217.06368   -131.84501    131875.37    -40694.02    2648.9229   -43342.943    116.56256 
   36950     214.6397   -61.599873    131765.12   -40643.003    2619.3419   -43262.345    116.76596 
   37000    217.01177    63.167077    131720.56   -40667.867    2648.2893   -43316.156    116.95609 
   37050    217.23592    29.295164    131665.82   -40705.891    2651.0247   -43356.916    117.03129 
   37100    217.31145    38.653877    131769.25   -40666.209    2651.9464   -43318.155    117.07467 
   37150    215.42587    177.17287    131912.47   -40679.758    2628.9358   -43308.693    117.27093 
   37200    213.95544    37.643405    131977.68   -40692.137    2610.9916   -43303.128    117.33072 
   37250    215.08441    95.121303    132139.32   -40700.189     2624.769   -43324.958    117.43855 
   37300    215.13212   -32.778862    132148.68   -40705.979    2625.3511    -43331.33    117.79911 
[...]
  191000    216.77527   -32.812014     132122.4   -40782.005    2645.4032   -43427.408    545.70615 
  191050    214.81801    149.46365    132166.99   -40756.784    2621.5179   -43378.302    545.69652 
  191100    216.17067     57.02394    132212.32   -40785.615     2638.025    -43423.64    546.21208 
  191150    209.32714   -58.405881    132194.55   -40794.359    2554.5105   -43348.869    546.31463 
  191200    216.85112   -55.575137    132117.87    -40788.49    2646.3288   -43434.819     546.3571 
  191250    213.97377   -102.52747    132098.42   -40761.474    2611.2153    -43372.69    546.89408 
  191300    214.47807    19.775838    132104.22   -40802.045    2617.3695   -43419.415    546.89714 
  191350    213.37849    22.512426    132267.25   -40758.044    2603.9508   -43361.995    547.27869 
  191400      213.135    25.629518    132308.92   -40778.736    2600.9794   -43379.715    547.48022 
  191450    211.96618   -13.206905    132315.25   -40816.886    2586.7158   -43403.602    548.53975 
  191500     210.9864    123.01576    132351.98   -40800.601    2574.7591    -43375.36    548.89893 
  191550     214.2843   -150.61264    132404.01   -40779.445    2615.0048    -43394.45     548.7396 
  191600    213.78431   -44.317355    132334.67   -40780.565    2608.9032   -43389.468    548.92426 
  191650    213.29784    54.386276    132249.07    -40779.96    2602.9666   -43382.926    548.74706 
  191700    214.94382    149.54807     132299.4   -40750.303    2623.0533   -43373.356    549.39325 
  191750    215.77766    18.782598    132280.47    -40741.59    2633.2289   -43374.819    549.45392 
  191800    213.44103    79.900945    132485.78   -40737.786     2604.714     -43342.5    550.33085 
  191850    215.66441    86.236543    132800.62   -40748.363    2631.8469    -43380.21    551.58102 
  191900    212.25116   -48.867589    132852.85   -40748.756    2590.1935   -43338.949    551.52525 
  191950    216.39658   -186.97701    132724.37   -40736.234    2640.7819   -43377.016    551.54316 
  192000    211.62289   -18.154764    132528.08    -40723.62    2582.5265   -43306.147    550.84921 
  192050     214.1284    56.804834    132523.15   -40747.117    2613.1023   -43360.219    551.18669 
  192100    216.79701    48.642479    132604.74   -40779.919    2645.6685   -43425.588    551.36267 
  192150    212.80328    15.447899    132778.23   -40807.359    2596.9312   -43404.291    551.84874 
  192200    211.44407   -4.8865183     132843.2   -40790.973    2580.3443   -43371.317    551.81649 
  192250    211.71866   -154.78364    132760.01   -40816.678    2583.6952   -43400.373    551.60363 
  192300    219.08772   -144.72911    132621.73   -40701.371     2673.623   -43374.994    551.91794 
  192350    222.89056   -12.142377    132397.73   -40673.804    2720.0307   -43393.835    551.10504 
  192400    219.92883    -220.0229    132323.64   -40649.059    2683.8874   -43332.946    551.14493 
  192450    218.23121    41.671611    132312.43    -40657.69    2663.1707    -43320.86    551.04916 
  192500    213.16448    17.237683    132283.28   -40691.999    2601.3392   -43293.338    550.55675 
  192550    218.32826   -20.401233     132194.6   -40640.676     2664.355   -43305.031     550.6801 
  192600    216.76658   -45.026204    132034.52   -40671.133    2645.2972    -43316.43    550.60777 
  192650     214.8174   -2.8990898    131905.56   -40655.891    2621.5104   -43277.401    550.98869 
  192700    216.29525     124.1548    131989.34   -40636.708    2639.5453   -43276.253    550.36659 
  192750    223.04863   -131.76709    131980.11    -40566.62    2721.9597    -43288.58    550.03403 
  192800    218.39286    84.002409    131903.87   -40610.008    2665.1433   -43275.151    549.83618 
  192850    212.95063   -75.607551     131857.6   -40662.383    2598.7294   -43261.113    550.05831 
  192900    216.57897    2.7263282    131738.17   -40633.415    2643.0076   -43276.423     549.2244 
  192950    217.16448     -40.8687    131815.67   -40602.926    2650.1529   -43253.079     549.6622 
  193000    219.22854   -43.091043    131850.63    -40602.51    2675.3416   -43277.851    549.75271 
  193050    218.88926    181.66048    131888.75   -40586.994    2671.2012   -43258.196    549.86693 
  193100    217.21087   -23.902372    131957.25   -40624.781     2650.719     -43275.5    549.90264 
  193150    216.65735   -20.828868    131961.88   -40601.935    2643.9642   -43245.899    550.23423 
  193200     218.1983   -56.229178    131964.54   -40618.817    2662.7691   -43281.586    550.48874 
  193250    219.50012    -189.3764    131929.85   -40599.486    2678.6558   -43278.142    550.32654 
  193300    214.64303   -103.18596    131915.37   -40698.952    2619.3826   -43318.334    550.60578 
  193350    212.69251   -164.31385    131724.64   -40711.439    2595.5795   -43307.019    550.05133 
  193400    214.72582   -17.358078    131865.83   -40729.913    2620.3929   -43350.306     551.2975 
  193450    213.61455    19.062164    131853.48   -40740.509    2606.8316   -43347.341    551.51724 
  193500    218.40016    8.5983498    131866.09   -40687.081    2665.2325   -43352.314    551.76588 
  193550    216.50508   -19.930008    131802.55    -40673.08    2642.1059   -43315.186    551.51475 
  193600    213.28128    -40.72435    131712.15   -40693.117    2602.7645   -43295.882    551.82314 
  193650    216.83025   -20.262412    131655.48   -40685.067    2646.0742   -43331.141    551.72618 
  193700     220.6074   -57.990948    131654.55    -40682.54    2692.1684   -43374.708    551.98851 
  193750    215.50429    4.7968109    131630.55   -40720.854    2629.8929   -43350.747    552.21944 
  193800     213.9888   -83.674868    131723.34   -40712.979    2611.3987   -43324.378     552.5035 
  193850    218.58416   -56.648328    131619.09   -40751.733    2667.4779   -43419.211    551.53997 
  193900    215.80782    91.772266    131618.29   -40730.823    2633.5969    -43364.42    551.48816 
  193950    216.03161    199.24565    131871.36   -40749.245    2636.3281   -43385.573    552.35579 
  194000    218.94743    19.183847    131869.12   -40796.305     2671.911   -43468.216    552.50219 
  194050    217.76315    122.39158    131857.13   -40765.894    2657.4587   -43423.353    552.90467 
  194100    217.44304    58.434913    131918.56   -40726.246    2653.5523   -43379.798    553.41653 
  194150    217.70396    156.67103    132177.99   -40709.445    2656.7364   -43366.182    554.12667 
  194200    216.41603    37.128278    132157.36   -40743.959    2641.0193   -43384.979    554.10802 
  194250    210.73301   -59.386347    132179.04   -40764.267    2571.6668   -43335.934    553.94871 
  194300    212.90523    10.913234    132198.22   -40757.491    2598.1754   -43355.667    553.94461 
  194350    217.69766   -169.81719    132106.07   -40720.377    2656.6595   -43377.037     554.1253 
  194400     213.5626   -48.384642    132028.01   -40707.418    2606.1976   -43313.615    554.00546 
  194450    210.18177   -21.198121    131932.47   -40775.159    2564.9399   -43340.099    553.72956 
  194500    217.31826    16.693349    132019.62    -40767.56    2652.0296    -43419.59    554.42521 
  194550    213.17215   -55.015276     132162.7   -40777.288    2601.4327    -43378.72    555.08879 
  194600    217.02439   -119.43289    132127.45   -40759.099    2648.4433   -43407.543    555.11163 
  194650    213.29909   -112.22825     132030.9   -40717.836    2602.9819   -43320.818    554.76078 
  194700    215.17638    140.00286    132021.52    -40755.82    2625.8913   -43381.712    555.63972 
  194750    215.89708    96.180286    132041.88    -40753.02    2634.6863   -43387.707    555.54098 
  194800     217.9791   -107.29058    131963.87   -40750.501     2660.094   -43410.595    555.81632 
  194850    220.72592   -61.590768    131861.75   -40729.008    2693.6147   -43422.623    555.10471 
  194900    213.40628    20.989367    131855.66   -40744.722    2604.2899   -43349.012     555.1668 
  194950    216.37536   -88.982178    131803.19   -40689.729     2640.523   -43330.252    555.48138 
  195000      218.284    147.39715    131856.36   -40725.771     2663.815   -43389.586    555.31856 
  195050    215.05382   -17.493898    131903.27   -40718.425    2624.3956   -43342.821    555.81387 
  195100    215.15754   -77.740787     131805.4   -40726.792    2625.6614   -43352.454    555.34537 
  195150    216.78415    -47.46176    131781.34   -40725.173    2645.5115   -43370.684    556.30726 
  195200      217.672   -90.684789    131713.41   -40731.619    2656.3465   -43387.966    556.22257 
  195250    217.40932    84.397196    131637.72   -40743.679    2653.1408    -43396.82    556.54782 
  195300    215.01224   -55.755352    131665.57   -40737.961    2623.8882   -43361.849    556.80054 
  195350    213.95452     248.7743    131730.48   -40748.494    2610.9803   -43359.474    556.53522 
  195400    212.78477   -72.042323     131861.8   -40827.032    2596.7054   -43423.737    557.55091 
  195450    214.28291  -0.82015676       131698   -40856.171    2614.9878   -43471.159    557.17305 
  195500    218.15817       194.28    131747.93   -40782.329    2662.2794   -43444.609    557.30252 
  195550    219.27631    52.363755    131789.33   -40742.832    2675.9245   -43418.757    557.49039 
  195600     216.5003     212.1957    131906.02   -40778.226    2642.0477   -43420.273    558.33132 
  195650    216.92878   -33.578233    132012.48   -40747.449    2647.2766   -43394.726    559.04501 
  195700    218.61393   -12.743105    131958.14   -40772.061    2667.8412   -43439.902    559.69145 
  195750    215.96008   0.13087142    132035.15   -40745.351    2635.4551   -43380.806    560.10142 
  195800    214.60158   -102.22352     131893.5   -40791.741    2618.8767   -43410.618    559.71033 
  195850    215.32931   -37.173552    131770.19   -40732.666    2627.7575   -43360.424     559.7193 
  195900     215.5969    84.573888    131854.91   -40767.954     2631.023   -43398.977    560.47488 
  195950    213.63502    90.156604    131925.14   -40747.072    2607.0814   -43354.153    560.48272 
  196000    218.84719    -45.77681    131875.41   -40720.519    2670.6878   -43391.207    560.61406 
  196050    215.81818    26.489634    132053.08   -40745.133    2633.7234   -43378.857    561.49936 
  196100    213.88746   -59.863902    132152.83   -40771.879    2610.1619   -43382.041    562.01409 
  196150    217.93489     -34.6825    132128.21   -40740.948    2659.5546   -43400.502    562.20718 
  196200    217.88233    12.126215    132203.49   -40763.839    2658.9132   -43422.752    562.91325 
  196250    219.65485    123.55235    132343.15   -40782.983     2680.544   -43463.527    563.15556 
  196300    212.11816   -223.51571    132264.64    -40774.91    2588.5704    -43363.48     562.9372 
  196350    217.49035   -9.2284388    132153.13   -40739.495    2654.1297   -43393.625    562.73064 
  196400    215.28519   -111.66003    132119.14   -40789.936    2627.2191   -43417.155    563.28298 
  196450    216.20627    128.29374    131996.12   -40746.515    2638.4594   -43384.974    562.84958 
  196500     219.9653   -1.6700511    132150.56   -40752.346    2684.3325   -43436.679    563.19596 
  196550    215.21944    84.049485    132259.55   -40726.466    2626.4168   -43352.883    563.96624 
  196600    216.01271   -8.6241282    132266.96    -40717.71    2636.0974   -43353.807    564.15484 
  196650    219.20846    93.275234    132304.48   -40708.727    2675.0965   -43383.823    564.43235 
  196700    213.57593   -165.52693     132352.9   -40726.525    2606.3603   -43332.885    564.11735 
  196750    212.85799    97.766991    132289.59   -40759.535    2597.5989   -43357.134    564.20416 
  196800    214.27605    -174.7987     132138.2   -40796.964    2614.9042   -43411.868    563.93151 
  196850    213.14655    131.33061    132074.54   -40764.584    2601.1204   -43365.705    564.41845 
  196900    217.81205     30.71699    132226.46   -40750.527    2658.0555   -43408.582    565.20588 
  196950    213.50176    -189.3281    132234.37   -40755.619    2605.4552   -43361.075    565.31465 
  197000    214.28039    17.938613    132340.59   -40764.153    2614.9571    -43379.11    566.12079 
  197050    210.02021    5.1608773    132381.76   -40792.021    2562.9682   -43354.989    566.05189 
  197100    216.11898   -75.059401    132286.26   -40759.071    2637.3942   -43396.465    565.91716 
  197150    220.12526    94.485343    132279.09    -40767.21    2686.2846   -43453.494    565.75205 
  197200    213.39285   0.77991635    132316.33    -40787.45    2604.1261   -43391.576    566.31047 
  197250     211.8146    156.76776    132422.38   -40779.082     2584.866   -43363.948    566.88112 
  197300    217.82506   -61.955977    132379.26   -40769.498    2658.2142   -43427.712    566.78894 
  197350    215.80692   -69.989794    132262.95   -40774.553    2633.5861   -43408.139    566.62394 
  197400    209.11193   -8.5010885    132142.23    -40823.07    2551.8841   -43374.954    566.59817 
  197450    212.84976   -85.587179    131997.55   -40778.028    2597.4984   -43375.526    566.20503 
  197500    217.81004    180.97251    132140.29   -40698.443     2658.031   -43356.474    566.33783 
  197550    219.46425   -145.71819    132220.41   -40733.836     2678.218   -43412.054    566.57796 
  197600    220.07942    16.787751    132248.64   -40651.293    2685.7252   -43337.018    566.82575 
  197650      215.693    48.162946    132321.58   -40699.595    2632.1958   -43331.791    566.97298 
  197700     216.1065   -116.28555    132242.11   -40727.608    2637.2419   -43364.849    566.54119 
  197750    215.05258   -109.57488    132083.57   -40735.532    2624.3805   -43359.912    565.89216 
  197800    215.42792     91.83546    132193.79   -40734.054    2628.9609   -43363.015    566.27568 
  197850    214.97955   -64.939477    132164.76    -40739.11    2623.4893   -43362.599    565.92649 
  197900    212.72849    51.663901    132051.31   -40807.057    2596.0186   -43403.076    565.88101 
  197950    221.23069    108.19566    132079.24   -40725.821    2699.7747   -43425.595    566.04195 
  198000     219.5592   -110.28182    132162.65   -40762.447    2679.3768   -43441.824    566.53056 
  198050    217.95528   -30.564535    132074.66   -40731.241    2659.8034   -43391.045    566.81277 
  198100    219.23573   -59.794015    132134.28   -40764.779    2675.4292   -43440.208     566.8828 
  198150    220.58744    53.664508    132138.55    -40737.29    2691.9248   -43429.214     566.8167 
  198200    217.43911   -151.55217    132052.56   -40824.967    2653.5043   -43478.471    566.42026 
  198250    214.72425   -17.146031    131919.04   -40806.954    2620.3737   -43427.328    565.85269 
  198300    220.75231    141.09069    131990.46   -40785.283    2693.9368   -43479.219    566.55312 
  198350     214.6429   -152.88556    132109.25   -40807.546    2619.3809   -43426.927    567.17501 
  198400    213.92573    8.3794583    132056.54   -40792.065     2610.629   -43402.694    567.07843 
  198450    217.32528    74.947824    132021.49   -40804.232    2652.1152   -43456.348    567.51695 
  198500    216.08717    56.545036    132058.96   -40816.991     2637.006   -43453.997     567.7571 
  198550    215.73959    119.55147    132184.99   -40832.883    2632.7644   -43465.647    568.48001 
  198600    218.31359    107.17727    132197.94   -40798.848     2664.176   -43463.024     568.1485 
  198650    212.72442   -82.886303    132250.14   -40812.214    2595.9689   -43408.183    568.44124 
  198700    216.64434    37.694141     132141.9    -40748.05    2643.8055   -43391.856    567.85568 
  198750    214.37061   -34.652998    132045.62   -40763.289    2616.0581   -43379.347    567.79269 
  198800    210.89635    -22.05692    132010.54   -40757.772    2573.6602   -43331.432    568.07794 
  198850    214.29744    111.15967     132071.2   -40772.318    2615.1651   -43387.483    568.42304 
  198900    210.99642    116.68911    132168.66   -40810.518    2574.8814   -43385.399    568.55585 
  198950    213.94544      26.2519    132303.91   -40795.799    2610.8695   -43406.668    569.32099 
  199000    213.05882   -188.21775    132211.05    -40789.58    2600.0497    -43389.63    568.84814 
  199050     212.2152   -218.57863    132119.04   -40772.038    2589.7546   -43361.793     568.6996 
  199100    209.34876    81.451808    132122.07   -40796.894    2554.7743   -43351.669    569.03805 
  199150    213.40622   -13.293218    132180.62   -40786.638    2604.2892   -43390.927    568.19309 
  199200    214.44208    74.899162    132243.73   -40766.432    2616.9303   -43383.362    568.54873 
  199250    214.32246    57.928185    132354.79   -40782.232    2615.4705   -43397.702    568.93379 
  199300    213.57924    14.545772    132307.56   -40703.891    2606.4006   -43310.292    569.22277 
  199350    218.62049   -83.710984    132380.93   -40750.091    2667.9212   -43418.012    568.80683 
  199400    214.53491    42.553713    132337.08   -40745.618    2618.0631   -43363.681    568.94429 
  199450    213.00425   -32.287425    132294.13   -40779.131    2599.3838   -43378.514    569.49336 
  199500    214.45697    55.381308    132270.98   -40798.074     2617.112   -43415.186    569.16227 
  199550    215.57342   -69.075928    132252.21   -40828.653    2630.7365    -43459.39     569.3142 
  199600    211.15892   -43.114451    132146.11   -40858.179    2576.8645   -43435.043    569.22569 
  199650    217.59759    94.048756    132107.82   -40765.584    2655.4383   -43421.023    569.41091 
  199700    212.77893   -111.18393    132184.18   -40751.162    2596.6341   -43347.796    569.88158 
  199750    211.24535    14.490488    132202.62   -40778.846    2577.9192   -43356.765    569.86585 
  199800    215.96643   -10.041727    132199.89   -40768.001    2635.5326   -43403.533    569.81845 
  199850    213.51407    76.032372    132196.89   -40753.552    2605.6054   -43359.158    569.70932 
  199900    213.43892   -73.826277    132211.46   -40778.841    2604.6883   -43383.529    569.41559 
  199950    214.62048    11.553187    132259.84   -40763.633    2619.1074    -43382.74    569.24242 
  200000    212.44024   -58.887797    132189.88   -40804.547     2592.501   -43397.048    568.78147 
Loop time of 346.855 on 12 procs for 200000 steps with 4095 atoms

Performance: 249.096 ns/day, 0.096 hours/ns, 576.610 timesteps/s
99.1% CPU use with 12 MPI tasks x no OpenMP threads

MPI task timing breakdown:
Section |  min time  |  avg time  |  max time  |%varavg| %total
---------------------------------------------------------------
Pair    | 236.04     | 276.61     | 306.12     | 164.1 | 79.75
Neigh   | 6.1914     | 7.1477     | 7.8199     |  22.1 |  2.06
Comm    | 26.084     | 55.477     | 96.484     | 369.6 | 15.99
Output  | 0.16044    | 0.18984    | 0.49191    |  20.9 |  0.05
Modify  | 5.0794     | 5.9403     | 6.3409     |  20.4 |  1.71
Other   |            | 1.488      |            |       |  0.43

Nlocal:    341.25 ave 367 max 295 min
Histogram: 2 2 0 0 0 0 0 1 1 6
Nghost:    967.667 ave 997 max 919 min
Histogram: 3 1 0 0 0 0 0 1 3 4
Neighs:    0 ave 0 max 0 min
Histogram: 12 0 0 0 0 0 0 0 0 0
FullNghs:  11134 ave 12076 max 9481 min
Histogram: 2 2 0 0 0 0 0 1 1 6

Total # of neighbors = 133608
Ave neighs/atom = 32.6271
Neighbor list builds = 11822
Dangerous builds = 0

write_data		${DIR}/data.eq-${NAME}-${TEMP}
write_data		run_4/data.eq-${NAME}-${TEMP}
write_data		run_4/data.eq-hardcavity_freeze_nvt_4-${TEMP}
write_data		run_4/data.eq-hardcavity_freeze_nvt_4-215
undump          1

reset_timestep  0

unfix           2
unfix           3
unfix           4


################################################
#######         Run Simulation         #########
################################################

log				${DIR}/log.run_${NAME}
log				run_4/log.run_${NAME}
log				run_4/log.run_hardcavity_freeze_nvt_4
