
### Dimensions ###
variable Z_G equal 10.062000000000001
variable Z_W equal 23.803019087

variable	XDIM string 78.752
variable 	YDIM string 80.86108639999017


### IMPORT ATOMS ###
read_data ../Box_Setup/data.Ibeam_240K
Reading data file ...
  orthogonal box = (0.0000000 0.0000000 0.0000000) to (78.752000 80.861086 33.944269)
  8 by 8 by 2 MPI processor grid
  reading atoms ...
  9422 atoms
  reading velocities ...
  9422 velocities
  read_data CPU = 0.021 seconds
group water type 2
2126 atoms in group water
group graphite type 1
7296 atoms in group graphite


# Define potential
#
pair_style          sw
pair_coeff * * MLC_e.sw C mW

# Add velocity/set timestep
#

fix		1 graphite setforce 0.0 0.0 0.0
velocity 	graphite set 0.0 0.0 0.0
velocity            water create ${START_TEMP} ${SEED} rot yes dist gaussian
velocity            water create 240 ${SEED} rot yes dist gaussian
velocity            water create 240 23404 rot yes dist gaussian
timestep            5.0

# Define output
#
compute 1 water msd
compute 2 water temp


thermo	            100
thermo_style custom step c_2 press vol etotal ke pe c_1[4] density

# Neighbor lists
#
neigh_modify        delay 0 every 1 check yes


# Set fixes
#
fix                 2 water momentum 10 linear 1 1 1 rescale
fix                 3 all nve
fix                 4 water temp/csvr ${START_TEMP} ${START_TEMP} 500.0 928347
fix                 4 water temp/csvr 240 ${START_TEMP} 500.0 928347
fix                 4 water temp/csvr 240 240 500.0 928347

# Run 0.05 ns equilibration
#
dump                1 all custom 100 ${DIR}/eq.${NAME}.dump id type x y z vx vy vz
dump                1 all custom 100 run_1/eq.${NAME}.dump id type x y z vx vy vz
dump                1 all custom 100 run_1/eq.ibeam_cooling_1.dump id type x y z vx vy vz
run                 10000
Neighbor list info ...
  update every 1 steps, delay 0 steps, check yes
  max neighbors/atom: 2000, page size: 100000
  master list distance cutoff = 6.6747184
  ghost atom cutoff = 6.6747184
  binsize = 3.3373592, bins = 24 25 11
  1 neighbor lists, perpetual/occasional/extra = 1 0 0
  (1) pair sw, perpetual
      attributes: full, newton on
      pair build: full/bin/atomonly
      stencil: full/bin/3d
      bin: standard
Per MPI rank memory allocation (min/avg/max) = 3.605 | 4.456 | 4.732 Mbytes
Step c_2 Press Volume TotEng KinEng PotEng c_1[4] Density 
       0          240   -343.04891    216156.16   -20077.003    1520.2131   -21597.216            0   0.96737059 
     100     239.3254   -369.97011    216156.16   -20078.882      1515.94   -21594.822   0.91691068   0.96737059 
     200    242.52541   -391.91784    216156.16   -20101.696    1536.2096   -21637.905    1.4554189   0.96737059 
     300    238.57139   -393.33932    216156.16   -20094.359     1511.164   -21605.523    1.9309913   0.96737059 
     400    239.17894   -479.82835    216156.16    -20095.07    1515.0123   -21610.082    2.2567408   0.96737059 
     500     241.6349   -302.99769    216156.16   -20087.123    1530.5689   -21617.692    2.7148292   0.96737059 
     600    243.31454   -345.34994    216156.16     -20038.1    1541.2082   -21579.309    3.2272938   0.96737059 
     700    245.74744   -299.32008    216156.16   -20044.575    1556.6187   -21601.194    3.7346339   0.96737059 
     800    241.90243   -296.86415    216156.16   -20009.788    1532.2635   -21542.051    4.1382772   0.96737059 
     900    233.41097    -315.3322    216156.16   -20031.157    1478.4767   -21509.633    4.6823164   0.96737059 
    1000    238.10129   -415.74278    216156.16    -20077.29    1508.1863   -21585.476    5.1754229   0.96737059 
    1100    242.29992   -300.24315    216156.16   -20055.865    1534.7813   -21590.647    5.4718686   0.96737059 
    1200    237.99391   -355.80552    216156.16   -20062.757    1507.5061   -21570.263    6.0353512   0.96737059 
    1300    243.44907   -328.37578    216156.16   -20014.117    1542.0603   -21556.177    6.4705496   0.96737059 
    1400    233.70697   -250.53226    216156.16   -20053.055    1480.3517   -21533.407    6.9436165   0.96737059 
    1500    238.97611   -303.30405    216156.16   -20102.419    1513.7276   -21616.146    7.4696812   0.96737059 
    1600    239.95374   -315.01443    216156.16   -20077.265    1519.9201   -21597.185     7.789986   0.96737059 
    1700    242.53638   -415.90403    216156.16   -20096.591    1536.2791    -21632.87    8.1462812   0.96737059 
    1800    244.72368   -246.55652    216156.16   -20068.943     1550.134   -21619.077    8.4369255   0.96737059 
    1900    241.20431   -344.62127    216156.16   -20031.906    1527.8415   -21559.748    8.7591035   0.96737059 
    2000    245.13764   -509.31002    216156.16   -20004.203    1552.7561   -21556.959    9.4579872   0.96737059 
    2100    236.82018   -261.81391    216156.16    -20086.42    1500.0715   -21586.491    9.9083078   0.96737059 
    2200    235.43607   -295.79725    216156.16   -20049.156    1491.3042    -21540.46    10.415191   0.96737059 
    2300    239.01369   -382.20288    216156.16   -20025.917    1513.9656   -21539.883    11.140108   0.96737059 
    2400    241.82322    -366.8022    216156.16    -20027.99    1531.7618   -21559.752    11.702387   0.96737059 
    2500    241.52818   -395.52195    216156.16   -20048.714    1529.8929   -21578.607    12.383004   0.96737059 
    2600    241.21998   -353.57353    216156.16   -20062.716    1527.9407   -21590.656    12.683761   0.96737059 
    2700    249.39995   -411.47533    216156.16   -20060.113    1579.7545   -21639.867    13.177426   0.96737059 
    2800    246.20395    -505.9121    216156.16   -20024.289    1559.5103   -21583.799    13.312067   0.96737059 
    2900    244.88207   -533.24024    216156.16   -20034.062    1551.1373   -21585.199    13.706772   0.96737059 
    3000    244.51522   -336.75224    216156.16   -20033.281    1548.8135   -21582.095    14.064304   0.96737059 
    3100    243.62111   -421.98203    216156.16   -20017.398      1543.15   -21560.548    14.483981   0.96737059 
    3200    243.50983   -366.77786    216156.16   -20076.983    1542.4452   -21619.429    14.845727   0.96737059 
    3300    236.15178   -283.82848    216156.16   -20153.768    1495.8377   -21649.606    15.044881   0.96737059 
    3400    234.17266   -438.27204    216156.16   -20092.567    1483.3015   -21575.868    15.420263   0.96737059 
    3500    237.17484   -290.34935    216156.16   -20078.765    1502.3179   -21581.082    15.755215   0.96737059 
    3600    239.74771   -358.64839    216156.16   -20086.513     1518.615   -21605.128    16.045078   0.96737059 
    3700    246.62272   -391.48916    216156.16   -20055.414    1562.1629   -21617.577    16.366643   0.96737059 
    3800      246.934   -341.95561    216156.16   -20064.679    1564.1346   -21628.814    16.381166   0.96737059 
    3900    245.73443   -460.02382    216156.16   -20088.229    1556.5363   -21644.765    16.692956   0.96737059 
    4000    238.26232   -584.74011    216156.16   -20111.364    1509.2063   -21620.571    17.152527   0.96737059 
    4100    243.59736    -331.1043    216156.16   -20093.259    1542.9996   -21636.259    17.264778   0.96737059 
    4200    242.67119   -253.86295    216156.16   -20087.528     1537.133   -21624.661    17.523517   0.96737059 
    4300    237.16687   -304.75631    216156.16   -20140.212    1502.2675    -21642.48    17.850239   0.96737059 
    4400    241.17805   -493.86238    216156.16   -20076.859    1527.6751   -21604.534    18.139188   0.96737059 
    4500    237.29603   -409.34706    216156.16   -20104.192    1503.0856   -21607.278    18.512176   0.96737059 
    4600    244.52519   -302.85117    216156.16   -20142.929    1548.8767   -21691.806    18.714497   0.96737059 
    4700    245.55533   -309.02942    216156.16   -20083.613    1555.4018   -21639.015    19.297017   0.96737059 
    4800     240.9096   -502.51645    216156.16   -20056.377    1525.9747   -21582.352     19.55899   0.96737059 
    4900    246.21701    -315.7834    216156.16   -20001.091     1559.593   -21560.685    19.738424   0.96737059 
    5000    237.53288   -260.63659    216156.16   -20054.235    1504.5858   -21558.821    20.144203   0.96737059 
    5100    243.72839   -520.17165    216156.16   -20031.511    1543.8296    -21575.34    20.530962   0.96737059 
    5200    239.13062   -483.96368    216156.16    -20066.45    1514.7063   -21581.156     20.95171   0.96737059 
    5300    235.88276   -481.36729    216156.16    -20134.75    1494.1336   -21628.884    21.410732   0.96737059 
    5400    238.40966   -340.91558    216156.16    -20119.93    1510.1396    -21630.07    21.849092   0.96737059 
    5500    240.19745   -353.39576    216156.16    -20112.94    1521.4638   -21634.404     22.11316   0.96737059 
    5600    237.74578   -294.77549    216156.16   -20125.574    1505.9344   -21631.509    22.549297   0.96737059 
    5700    233.46633   -559.51119    216156.16   -20108.968    1478.8274   -21587.796    23.020491   0.96737059 
    5800    240.78624   -352.92013    216156.16   -20086.094    1525.1934   -21611.287    23.523846   0.96737059 
    5900    240.60552   -485.42437    216156.16   -20112.935    1524.0487   -21636.984    24.088985   0.96737059 
    6000    236.30919   -304.01519    216156.16   -20121.143    1496.8347   -21617.978    24.334691   0.96737059 
    6100    238.33417   -432.55063    216156.16   -20155.012    1509.6614   -21664.673    24.725573   0.96737059 
    6200     232.1378   -206.95171    216156.16   -20144.682    1470.4122   -21615.094    24.990942   0.96737059 
    6300    245.33483   -584.47186    216156.16   -20078.186    1554.0051   -21632.191    25.353978   0.96737059 
    6400    239.90051   -440.70213    216156.16   -20117.248    1519.5829   -21636.831    25.783088   0.96737059 
    6500    236.75026    -241.3076    216156.16   -20126.797    1499.6286   -21626.426    26.074211   0.96737059 
    6600    237.46117   -488.82428    216156.16   -20123.202    1504.1316   -21627.334    26.509401   0.96737059 
    6700    237.02556   -495.92392    216156.16    -20147.89    1501.3724   -21649.263    26.566931   0.96737059 
    6800    238.58135   -287.32871    216156.16   -20127.185    1511.2271   -21638.412    26.268835   0.96737059 
    6900    243.76368   -566.56908    216156.16   -20093.252    1544.0531   -21637.306    26.261739   0.96737059 
    7000    242.52081   -324.33359    216156.16   -20087.692    1536.1805   -21623.873    26.763354   0.96737059 
    7100     243.4574   -248.21101    216156.16   -20111.502     1542.113   -21653.615    27.260744   0.96737059 
    7200    238.31156   -498.45195    216156.16   -20177.442    1509.5181    -21686.96    27.587527   0.96737059 
    7300     234.4115    -157.0745    216156.16   -20212.221    1484.8143   -21697.036    27.716156   0.96737059 
    7400    239.43364   -385.35157    216156.16   -20172.624    1516.6257    -21689.25    27.190478   0.96737059 
    7500    234.72328   -416.07736    216156.16   -20121.641    1486.7892    -21608.43    27.323582   0.96737059 
    7600    241.29552   -479.04616    216156.16   -20075.184    1528.4193   -21603.604    27.336374   0.96737059 
    7700    234.04236   -431.76439    216156.16   -20108.784    1482.4761    -21591.26    27.859638   0.96737059 
    7800    237.72262   -294.78948    216156.16   -20163.416    1505.7877   -21669.204    28.045991   0.96737059 
    7900    239.57269   -363.97018    216156.16   -20122.578    1517.5064   -21640.084    27.965232   0.96737059 
    8000    241.75008   -325.62959    216156.16   -20068.414    1531.2985   -21599.713    28.521836   0.96737059 
    8100    248.81581   -292.65418    216156.16   -20053.444    1576.0544   -21629.498    29.142368   0.96737059 
    8200    244.45102   -308.31511    216156.16   -20087.193    1548.4069     -21635.6    29.502534   0.96737059 
    8300    238.03879   -368.42105    216156.16   -20058.594    1507.7904   -21566.385     30.11229   0.96737059 
    8400    245.48785   -438.94313    216156.16    -20053.89    1554.9744   -21608.865    30.467612   0.96737059 
    8500    244.52332    -312.8909    216156.16    -20086.25    1548.8648   -21635.115    30.886189   0.96737059 
    8600    241.57131   -312.63017    216156.16   -20092.039    1530.1662   -21622.206    31.410148   0.96737059 
    8700    238.53882   -390.92075    216156.16   -20115.593    1510.9577   -21626.551    31.838975   0.96737059 
    8800    237.37405   -412.67145    216156.16   -20115.116    1503.5798   -21618.696    32.175423   0.96737059 
    8900     238.6426   -466.60598    216156.16    -20152.51    1511.6151   -21664.125    32.436425   0.96737059 
    9000    241.16076   -445.37524    216156.16   -20124.859    1527.5656   -21652.425    32.742864   0.96737059 
    9100    245.17714   -310.95101    216156.16   -20133.434    1553.0062    -21686.44    33.084823   0.96737059 
    9200    243.51501   -362.79918    216156.16   -20085.034     1542.478   -21627.512    33.151904   0.96737059 
    9300    240.00901   -476.77109    216156.16   -20154.188    1520.2702   -21674.458    33.861863   0.96737059 
    9400    232.36983   -407.79543    216156.16   -20140.625    1471.8819   -21612.507    34.478592   0.96737059 
    9500    232.89976   -244.60986    216156.16   -20164.651    1475.2386    -21639.89    34.633595   0.96737059 
    9600    235.63906   -269.84623    216156.16   -20162.996      1492.59   -21655.585    34.662878   0.96737059 
    9700    245.81657   -443.67068    216156.16   -20123.373    1557.0566    -21680.43    34.926712   0.96737059 
    9800     239.8619   -526.21936    216156.16   -20095.255    1519.3384   -21614.594     35.28743   0.96737059 
    9900    238.53492   -326.36034    216156.16   -20101.551     1510.933   -21612.484    35.603724   0.96737059 
   10000    235.35793   -474.26856    216156.16   -20108.797    1490.8092   -21599.607    35.968131   0.96737059 
Loop time of 6.54059 on 128 procs for 10000 steps with 9422 atoms

Performance: 660.491 ns/day, 0.036 hours/ns, 1528.914 timesteps/s
96.5% CPU use with 128 MPI tasks x no OpenMP threads

MPI task timing breakdown:
Section |  min time  |  avg time  |  max time  |%varavg| %total
---------------------------------------------------------------
Pair    | 0.00069475 | 1.972      | 4.9905     | 125.7 | 30.15
Neigh   | 0.0030229  | 0.14042    | 0.31988    |  29.2 |  2.15
Comm    | 0.17232    | 1.7128     | 4.0337     |  87.5 | 26.19
Output  | 0.15607    | 0.15615    | 0.15708    |   0.0 |  2.39
Modify  | 0.23503    | 2.4816     | 6.1359     | 144.4 | 37.94
Other   |            | 0.07767    |            |       |  1.19

Nlocal:        73.6094 ave         148 max           0 min
Histogram: 32 4 12 13 3 0 5 17 23 19
Nghost:        620.984 ave         874 max         417 min
Histogram: 17 18 16 13 16 1 15 5 11 16
Neighs:         0.00000 ave           0 max           0 min
Histogram: 128 0 0 0 0 0 0 0 0 0
FullNghs:      7504.75 ave       16551 max           0 min
Histogram: 41 23 0 0 0 0 5 16 24 19

Total # of neighbors = 960608
Ave neighs/atom = 101.95373
Neighbor list builds = 580
Dangerous builds = 0
write_data 	    ${DIR}/data.${NAME}_eq
write_data 	    run_1/data.${NAME}_eq
write_data 	    run_1/data.ibeam_cooling_1_eq
System init for write_data ...

undump              1
unfix               4



################################################
#######         Run Simulation         #########
################################################

reset_timestep      0
timestep	    10.0
log                 ${DIR}/log.run_${NAME}
log                 run_1/log.run_${NAME}
log                 run_1/log.run_ibeam_cooling_1
