
# Set production fixes - Nose/Hoover
#
fix                 4 water temp/csvr ${START_TEMP} ${END_TEMP} 500.0 928347
fix                 4 water temp/csvr 240 ${END_TEMP} 500.0 928347
fix                 4 water temp/csvr 240 227 500.0 928347


## divide "droplet" into core and surface
#region		core_reg cylinder z 135 135 44.6 20 INF units box
#region		surface_reg cylinder z 135 135 44.6 20 INF units box side out
#group		core dynamic all region core_reg
#group		surface dynamic all region surface_reg

## compute pressure core
#compute        peratom_core core stress/atom NULL
#compute        p_core core reduce sum c_peratom_core[1] c_peratom_core[2] c_peratom_core[3]
#variable       press_core equal -(c_p_core[1]+c_p_core[2]+c_p_core[3])/(3*1249982.5)


## compute pressure surface
#compute        peratom_surf surface stress/atom NULL
#compute        p_surf surface reduce sum c_peratom_surf[1] c_peratom_surf[2] #c_peratom_surf[3]
#variable       press_surf equal -(c_p_surf[1]+c_p_surf[2]+c_p_surf[3])/(3*33365)

## compute total pressure of drop
compute        peratom water stress/atom NULL
compute        p water reduce sum c_peratom[1] c_peratom[2] c_peratom[3]
variable       press equal -(c_p[1]+c_p[2]+c_p[3])/(3*50320)


# compute order parameter
compute        3 all orientorder/atom nnn NULL cutoff 3.5

# compute center of mass of bridge
compute 	4 water com

# Run simulation
thermo_style        custom step c_2 press vol etotal ke pe v_press c_1[4] c_4[*]
thermo              200
dump		     1 water custom 400 ${DIR}/prod.${NAME}.dump id type x y z vx vy vz c_3[*] c_peratom[*]
dump		     1 water custom 400 run_20/prod.${NAME}.dump id type x y z vx vy vz c_3[*] c_peratom[*]
dump		     1 water custom 400 run_20/prod.ibeam_cooling_20.dump id type x y z vx vy vz c_3[*] c_peratom[*]
run                 ${STEPS}
run                 5200000
Neighbor list info ...
  update every 1 steps, delay 0 steps, check yes
  max neighbors/atom: 2000, page size: 100000
  master list distance cutoff = 6.67472
  ghost atom cutoff = 6.67472
  binsize = 3.33736, bins = 48 13 9
  2 neighbor lists, perpetual/occasional/extra = 1 1 0
  (1) pair sw, perpetual
      attributes: full, newton on
      pair build: full/bin/atomonly
      stencil: full/bin/3d
      bin: standard
  (2) compute orientorder/atom, occasional, copy from (1)
      attributes: full, newton on
      pair build: copy
      stencil: none
      bin: none
Per MPI rank memory allocation (min/avg/max) = 6.176 | 6.737 | 7.299 Mbytes
Step c_2 Press Volume TotEng KinEng PotEng v_press c_1[4] c_4[1] c_4[2] c_4[3] 
       0    240.10218   -436.30936    181563.75   -13285.497    987.66459   -14273.161   -983.57476    30.893228    78.714266    25.122553    16.416348 
     200    235.62589   -232.17726    181563.75   -13307.673    969.25132   -14276.925   -231.13798    33.434217    78.714653    25.126755    16.399846 
     400    233.51993    -324.8887    181563.75   -13305.417    960.58841   -14266.006   -569.22156    34.914532    78.714284    25.127506    16.407688 
     600    232.42316     -394.216    181563.75   -13380.441    956.07682   -14336.518   -823.27386    36.412922    78.711579    25.124918    16.388701 
     800    229.14831   -497.02372    181563.75   -13389.734    942.60565    -14332.34   -1210.4332    37.761103    78.712124     25.12149    16.396219 
    1000    238.10227   -288.07279    181563.75   -13309.869    979.43793   -14289.307   -473.79429    38.600214    78.712258    25.121688    16.411708 
    1200    242.12452   -280.52802    181563.75   -13396.645    995.98356   -14392.629   -382.76181    40.135461    78.712412    25.121755    16.451289 
    1400    251.81803   -490.13917    181563.75   -13266.853     1035.858   -14302.711   -1219.3178    42.723518    78.713295    25.118124    16.415201 
    1600    245.76367   -366.44271    181563.75   -13275.022    1010.9533   -14285.976   -703.26575    44.347011     78.71612    25.113843    16.421434 
    1800    238.08156   -390.58665    181563.75   -13300.918    979.35277   -14280.271   -867.47866    46.108739     78.71784    25.110772    16.436602 
    2000    249.01834   -374.94778    181563.75   -13172.358    1024.3414     -14196.7   -769.62554    47.351945    78.718795    25.110385    16.438444 
    2200    243.61861   -358.71994    181563.75   -13193.051    1002.1295   -14195.181   -722.00761    48.910322    78.718873    25.109828    16.457326 
    2400    236.69872   -578.70071    181563.75   -13230.795    973.66443   -14204.459   -1552.0576    50.852231    78.719295    25.106992    16.452493 
    2600    233.48542    -495.8206    181563.75   -13273.932    960.44646   -14234.378   -1220.9281    52.370722     78.71973    25.105369    16.452827 
    2800    243.28857    -281.8651    181563.75   -13264.666    1000.7719   -14265.438    -439.2135    53.423567    78.718299    25.105422    16.467136 
    3000    240.57779   -319.85809    181563.75    -13348.16    989.62105   -14337.781   -548.16039    53.556824    78.719587     25.10342    16.428875 
    3200    239.28892   -349.60186    181563.75   -13347.406    984.31926   -14331.725   -641.93519    54.397292    78.716658    25.105228     16.44077 
    3400    240.69793   -229.91864    181563.75   -13303.321    990.11524   -14293.436   -229.00864      54.4442     78.71527    25.100569    16.431868 
    3600    247.02476   -506.07924    181563.75   -13282.957    1016.1408   -14299.098   -1217.4741    55.143248    78.713056    25.099239    16.429042 
    3800    242.66198   -436.55774    181563.75   -13328.171    998.19439   -14326.366   -972.38691    56.013264     78.71454    25.099503    16.427549 
    4000    239.97952   -375.82111    181563.75   -13350.997    987.16005   -14338.157   -751.74743    57.170233    78.720404    25.103471    16.468732 
    4200    246.55153    -274.7456    181563.75   -13277.334    1014.1941   -14291.528   -469.52675    57.166627    78.719527    25.104836    16.445821 
    4400    241.70557   -533.20859    181563.75   -13254.751    994.26019   -14249.011   -1327.1634    58.716881     78.71724    25.100696    16.440351 
    4600    239.68411   -319.17755    181563.75     -13342.5    985.94486   -14328.445   -566.65996     59.90306    78.719638    25.098905     16.42664 
    4800    246.99487   -380.17346    181563.75   -13314.508    1016.0178   -14330.526   -779.55771    61.130305    78.717358    25.097064    16.407418 
    5000    228.74526   -372.01486    181563.75   -13387.563     940.9477   -14328.511   -786.25022    61.741294    78.721157    25.095882    16.414297 
    5200    244.29838   -379.25999    181563.75   -13359.747    1004.9257   -14364.673   -764.48898    61.954589    78.719817     25.08914    16.436356 
    5400     244.2487   -376.37001    181563.75   -13355.824    1004.7214   -14360.546   -756.73625    62.657289    78.722354    25.088079    16.428001 
    5600    232.92979   -463.39557    181563.75   -13393.356    958.16086   -14351.517   -1102.2754    63.825396    78.718259    25.088918    16.443009 
    5800    239.98697   -443.45622    181563.75   -13256.692    987.19071   -14243.882   -1031.9398    64.680087    78.720751    25.091848    16.452561 
    6000    233.22111    -381.7605    181563.75   -13383.718    959.35921   -14343.077   -803.90693    66.054482    78.717821    25.090396    16.441826 
    6200    237.96328   -468.06162    181563.75   -13312.806    978.86621   -14291.672   -1104.7047    67.539373    78.711884    25.087188    16.446312 
    6400    245.61471   -403.36318    181563.75   -13289.561    1010.3405   -14299.902   -912.37441     70.31043     78.71112    25.084306     16.46832 
    6600    235.28173   -384.41881    181563.75   -13342.055     967.8356   -14309.891   -806.88044    70.329199    78.711322    25.085768    16.466476 
    6800    246.55765   -383.01692    181563.75   -13310.091    1014.2193    -14324.31   -790.61599    71.674697    78.711781     25.08686    16.453745 
    7000    226.77153   -218.13016    181563.75   -13345.028    932.82873   -14277.856   -205.66303    73.470561    78.711388    25.086459    16.426734 
    7200    246.36652   -261.44574    181563.75   -13291.667    1013.4331     -14305.1   -341.49504    74.147581    78.711615    25.084765      16.4463 
    7400    233.00383   -442.24038    181563.75   -13349.217    958.46543   -14307.683   -991.40164    75.495095    78.706973    25.081839    16.468181 
    7600    232.14281   -502.30496    181563.75    -13359.83    954.92361   -14314.754   -1189.2004     76.59742    78.705942    25.081896    16.449941 
    7800    235.61346   -338.73738    181563.75   -13293.138    969.20018   -14262.338   -682.15588    76.821388    78.704856     25.08527    16.448411 
    8000    233.46109   -439.66226    181563.75   -13320.903    960.34637    -14281.25   -1020.5065    77.130745    78.707078    25.081812    16.432607 
    8200    238.78865   -309.21502    181563.75   -13365.817    982.26138   -14348.079   -540.82037    77.304373    78.708288    25.081026    16.402482 
    8400    235.27591   -209.30381    181563.75    -13362.88    967.81168   -14330.691    -165.4654    78.780429    78.704875     25.08118    16.427008 
    8600    244.82854   -480.59624    181563.75   -13283.964    1007.1066    -14291.07   -1163.5998     80.07301    78.705192    25.080409    16.425641 
    8800    246.33506   -337.11366    181563.75   -13284.613    1013.3037   -14297.916   -619.94046    82.012309    78.707539    25.082738     16.44051 
    9000    238.20327    -361.4705    181563.75   -13249.699     979.8534   -14229.553   -728.09334    83.237269    78.708966    25.084781    16.454248 
    9200    235.20696   -318.22712    181563.75     -13308.6    967.52804   -14276.128   -571.80104    84.450596    78.713771    25.084269    16.471219 
    9400    238.96752   -491.73252    181563.75     -13334.8    982.99717   -14317.798   -1207.2359    85.830024    78.713209    25.084462    16.478657 
    9600    233.42646   -375.65946    181563.75   -13404.657    960.20392   -14364.861   -735.10079    86.917257     78.71275    25.086431     16.45646 
    9800    235.20984   -358.91725    181563.75   -13354.699    967.53987   -14322.239    -690.4954    86.946437     78.71355    25.088358    16.440957 
   10000    245.29974   -307.00097    181563.75     -13250.5    1009.0449   -14259.545   -534.02613    87.868805    78.717907    25.092357    16.451983 
   10200    240.97479   -406.49714    181563.75   -13290.645     991.2541   -14281.899   -914.18282    88.816316    78.715933    25.092965    16.452006 
   10400    237.90324    -469.2289    181563.75   -13325.551    978.61921    -14304.17   -1102.8918    88.416026     78.71542    25.092486    16.444965 
   10600    248.08235    -339.4854    181563.75   -13293.585    1020.4912   -14314.076   -624.21434    89.037539    78.716443    25.092251    16.443719 
   10800    233.63915   -399.90012    181563.75   -13324.218    961.07882   -14285.296   -806.89532    89.338222     78.71308    25.093892    16.437992 
   11000    233.03272   -436.42233    181563.75   -13331.507    958.58427   -14290.091   -1022.1407     89.96346    78.713971    25.093464    16.463887 
   11200    241.87768    -342.6538    181563.75   -13326.136    994.96816   -14321.104   -611.85758    91.769968    78.718056    25.093401    16.429001 
   11400    246.15403   -205.16061    181563.75    -13305.72     1012.559   -14318.279   -104.49155    92.049787    78.720859    25.091555    16.416052 
   11600    248.41898   -288.13563    181563.75   -13287.459    1021.8759   -14309.335   -450.40424    92.913445    78.721162     25.09379    16.425229 
   11800    237.67246   -406.19289    181563.75   -13292.476    977.66993   -14270.146   -872.59343    94.167599    78.720585    25.092064    16.413552 
   12000    243.44822   -222.27854    181563.75   -13238.218    1001.4286   -14239.647   -227.37264    96.034389    78.719594    25.094088    16.414078 
   12200    244.17589   -347.29138    181563.75   -13265.706    1004.4219   -14270.128   -618.03382    98.103793    78.718544    25.095999    16.418013 
   12400    248.61907   -326.57361    181563.75   -13243.244     1022.699   -14265.943   -544.03453    100.90492    78.715259     25.09394    16.423235 
   12600    245.40116   -196.61017    181563.75   -13227.051    1009.4621   -14236.513   -162.75856    101.81539    78.717654    25.098307     16.41139 
   12800    240.03695   -407.97604    181563.75    -13320.15     987.3963   -14307.546   -920.97807    103.88556    78.717949    25.098415    16.384594 
   13000    236.05867    -326.4949    181563.75   -13341.309    971.03155   -14312.341   -606.27679    105.24092    78.720732    25.095547    16.377444 
   13200    247.48454   -382.72796    181563.75    -13307.08    1018.0321   -14325.112   -778.60125    105.49708    78.717368    25.093678    16.367209 
   13400    246.39118   -305.24993    181563.75   -13254.412    1013.5345   -14267.947     -540.918      107.974    78.716322    25.089303    16.367929 
   13600    243.37863   -466.64553    181563.75   -13250.162    1001.1424   -14251.304   -1094.6106    108.37114    78.718698    25.081913     16.34741 
   13800    232.60734    -422.0643    181563.75   -13330.445    956.83444   -14287.279   -974.79595     108.7725    78.717951    25.080744    16.342661 
   14000    235.24546   -351.74279    181563.75   -13286.018     967.6864   -14253.705   -696.89308     109.4126    78.715237    25.081523    16.364139 
   14200    239.75165   -186.84206    181563.75   -13309.501    986.22271   -14295.724   -120.91102    109.60193    78.716692    25.081017    16.316948 
   14400    232.72216    -357.7313    181563.75   -13354.835    957.30675   -14312.142   -713.72538    110.01905    78.719398    25.083128    16.320285 
   14600    237.74015    -345.5062    181563.75    -13329.44    977.94837   -14307.388   -636.73336    112.04253    78.717409    25.080196    16.302358 
   14800    238.32046    -295.7272    181563.75   -13292.813    980.33545   -14273.149   -520.92166    113.70459    78.716003    25.079281    16.294261 
   15000    234.94167   -280.88459    181563.75   -13287.293    966.43675    -14253.73   -394.93638    115.60501    78.718705    25.079046    16.288855 
   15200    234.21236   -343.96274    181563.75   -13362.843    963.43673    -14326.28   -625.46427     116.0623    78.720086    25.076824    16.291154 
   15400    234.83692   -386.27273    181563.75   -13296.924    966.00588    -14262.93   -820.85216    117.21382    78.718935    25.073857    16.302032 
   15600    244.58796   -458.24706    181563.75   -13346.535     1006.117   -14352.652   -1017.2499    118.00449    78.719973    25.075289    16.314915 
   15800    243.74092   -378.71878    181563.75   -13275.572    1002.6326   -14278.205   -814.50898    118.78103    78.721133    25.077363     16.32216 
   16000    250.49116   -118.18454    181563.75   -13326.788    1030.3999   -14357.188    191.03509     120.6264    78.719824    25.075518    16.335561 
   16200    243.40096   -369.13405    181563.75   -13240.057    1001.2342   -14241.291   -811.41295    121.94636    78.717149    25.073005    16.322221 
   16400    236.32937   -276.71686    181563.75   -13230.097     972.1451   -14202.242   -375.79613    122.68191    78.721101    25.074024    16.320046 
   16600    244.61412   -419.10007    181563.75   -13276.026    1006.2246   -14282.251   -903.37093    123.79328     78.72212    25.074817    16.326026 
   16800    239.12543    -516.2093    181563.75   -13288.304    983.64675   -14271.951   -1282.0416    126.41626    78.723432    25.076851    16.333656 
   17000    244.31546   -389.82671    181563.75   -13305.868     1004.996   -14310.864   -836.07054    126.99607    78.723219    25.083451    16.328635 
   17200     237.0119   -406.97231    181563.75   -13312.632     974.9527   -14287.585   -876.51169    128.99315    78.723767    25.086158    16.334288 
   17400    236.41715   -485.96105    181563.75   -13284.697    972.50617   -14257.203   -1148.9398    130.07253    78.723884    25.089731    16.354875 
   17600    245.56573    -253.2666    181563.75   -13214.377     1010.139   -14224.516   -349.16853    130.47368     78.72275    25.091767    16.345085 
   17800    256.14423   -449.03187    181563.75   -13292.747    1053.6539   -14346.401   -1028.3503     132.1553    78.723807    25.096981    16.375212 
   18000      237.779   -275.31592    181563.75   -13309.578    978.10816   -14287.686   -416.55997    134.37319    78.722721    25.092418    16.387805 
   18200    242.82857    -334.7966    181563.75   -13272.185    998.87968   -14271.065   -601.23655     135.1223    78.721553    25.088562    16.366666 
   18400    245.54627   -269.83074    181563.75   -13257.121     1010.059    -14267.18   -403.67189    136.47362     78.71897    25.084268    16.376632 
   18600     246.2545     -291.038    181563.75   -13229.956    1012.9723   -14242.929   -488.39446    137.87328    78.716777     25.08394     16.40408 
   18800    238.84853   -392.01441    181563.75   -13279.359     982.5077   -14261.866   -838.35242     139.7052    78.715245    25.085606    16.412743 
   19000    242.73299   -370.21062    181563.75   -13266.063    998.48651    -14264.55   -787.31715    139.75238    78.713442    25.084029    16.376748 
   19200      241.948   -312.99322    181563.75   -13249.478    995.25744   -14244.735   -514.28165    141.11718    78.710015    25.082704    16.360586 
   19400    242.83592   -322.25675    181563.75   -13227.184    998.90988   -14226.094    -560.6541    141.50718    78.704844    25.084855    16.357269 
   19600    228.51601   -584.79602    181563.75   -13301.486    940.00468   -14241.491   -1541.8137    145.47449     78.70326    25.087816    16.366184 
   19800    242.08649   -333.79754    181563.75   -13282.908    995.82711   -14278.735   -606.16432    145.76757    78.702521    25.086438    16.373406 
   20000    240.98804   -407.63891    181563.75   -13333.343    991.30859   -14324.652   -890.02826    146.16157    78.704109    25.087204    16.352268 
   20200    233.16439   -449.46095    181563.75   -13321.514    959.12589    -14280.64   -992.71149    148.75903    78.701676    25.086521    16.365056 
   20400    228.87272   -234.61672    181563.75   -13332.843    941.47202   -14274.315    -267.8044    149.68267    78.702104    25.087019    16.369189 
   20600    242.63473   -476.88006    181563.75   -13268.193    998.08231   -14266.276   -1061.1728    151.24333     78.70192    25.090512    16.380424 
   20800    232.49264   -302.86934    181563.75   -13304.837    956.36262   -14261.199   -480.20675    150.85099     78.69964    25.094446    16.380533 
   21000    248.11759   -287.97639    181563.75   -13278.343    1020.6361   -14298.979   -426.05598    150.90604    78.699173    25.096785     16.38024 
   21200    240.45898   -386.16342    181563.75   -13272.368     989.1323     -14261.5   -782.87621    151.46314    78.696919    25.098181    16.408479 
   21400    236.46206   -429.20502    181563.75   -13344.585    972.69093   -14317.276   -949.45105    152.27043    78.695406    25.100746    16.399625 
   21600    239.98584   -477.88086    181563.75   -13282.806    987.18603   -14269.992   -1144.5421    153.09524    78.694658      25.0992      16.4115 
   21800    242.78396   -240.13527    181563.75    -13279.76    998.69617   -14278.456   -263.57097    153.97831    78.691769    25.095812    16.383036 
   22000    236.55302   -274.86884    181563.75   -13254.245    973.06507    -14227.31   -414.82769    154.36355    78.685987     25.09521    16.380809 
   22200    238.37883   -554.92328    181563.75    -13241.57    980.57556   -14222.146   -1383.9499    156.60176    78.679995    25.099133    16.389241 
   22400    238.28081   -413.52611    181563.75   -13229.102    980.17238   -14209.275   -939.73361    156.91705    78.678042    25.097869    16.383278 
   22600    233.77335   -335.54295    181563.75   -13286.369    961.63084       -14248   -621.44393    158.07486    78.672462    25.098005    16.373717 
   22800    241.50174   -227.23555    181563.75   -13224.241    993.42173   -14217.663   -242.05088     159.3602    78.675473    25.101542    16.367534 
   23000    236.55646   -432.92878    181563.75   -13241.187    973.07923   -14214.266   -959.17492    161.73035    78.675008    25.109186    16.360923 
   23200    242.24866   -268.53281    181563.75   -13251.735    996.49418   -14248.229   -386.61041    162.95674    78.671301    25.111504    16.373433 
   23400    238.83608   -487.98773    181563.75   -13206.306    982.45648   -14188.763    -1193.957    165.29591    78.672719    25.114828    16.365829 
   23600    242.15537   -219.61863    181563.75   -13301.384    996.11044   -14297.494   -249.06629    166.57778    78.669601    25.120226    16.395124 
   23800    232.59384   -335.42375    181563.75   -13335.199     956.7789   -14291.978   -611.75389    168.82069    78.669552    25.120859    16.390839 
   24000    238.35759   -440.08279    181563.75   -13297.245    980.48821   -14277.733   -967.84579     169.9716    78.673998    25.120856    16.389205 
   24200    245.70431   -354.03663    181563.75   -13283.927    1010.7091   -14294.636   -695.44146     170.1193    78.676157    25.126728    16.390743 
   24400    246.35679   -305.26637    181563.75   -13269.648     1013.393   -14283.041   -522.94905    170.80228    78.674866    25.130202    16.387545 
   24600    244.09912   -463.71207    181563.75   -13295.194    1004.1061     -14299.3   -1051.3525    173.60168    78.672758    25.126777    16.405189 
   24800    234.07715   -358.17162    181563.75   -13308.054    962.88054   -14270.935   -722.30087    174.01785    78.675186    25.125811    16.382077 
   25000    239.01625   -340.23784    181563.75   -13317.508    983.19763   -14300.706   -728.61289    174.91386    78.675658    25.123153    16.384652 
   25200    240.44584    -512.6559    181563.75   -13272.389    989.07827   -14261.467   -1304.3592    174.64988    78.672264    25.123578    16.372335 
   25400    227.89737   -466.56399    181563.75   -13296.872    937.45991   -14234.332   -1075.6013    175.78122    78.677031    25.125414    16.381671 
   25600    240.33902   -294.28991    181563.75   -13255.197    988.63883   -14243.835    -483.8563     177.4777    78.676305    25.126014    16.362129 
   25800    241.32109   -283.49225    181563.75   -13279.708     992.6786   -14272.386   -436.24525    180.67356    78.678948    25.123812    16.356351 
   26000    237.71672   -374.00921    181563.75   -13271.853    977.85196   -14249.705   -794.13306     181.1491    78.676157    25.127378    16.360311 
   26200    235.59481   -399.11381    181563.75   -13210.644    969.12345   -14179.768   -858.28229    183.47704    78.676712    25.131816     16.35064 
   26400    229.82544   -452.94431    181563.75   -13305.849    945.39104    -14251.24   -1040.6929    184.18631     78.67551    25.132511    16.356007 
   26600    235.39814   -201.84796    181563.75   -13311.625    968.31445   -14279.939   -215.58784    185.27958    78.673528    25.136717    16.354205 
   26800    240.18073   -251.74889    181563.75   -13245.205    987.98774   -14233.193   -338.49669    186.37973    78.671476    25.136765    16.364281 
   27000    234.45636   -355.10915    181563.75    -13318.88    964.44043   -14283.321   -693.35041    188.04475     78.66744    25.141077    16.400698 
   27200    245.49451   -205.46193    181563.75   -13253.635     1009.846   -14263.481   -176.14327    190.80002    78.668831    25.139836    16.402287 
   27400    246.71445    -537.5095    181563.75   -13266.597    1014.8643   -14281.462   -1373.6022    191.97532    78.664118    25.138108    16.390068 
   27600    241.79079    -362.0914    181563.75    -13284.93    994.61075    -14279.54   -689.89833    191.42845    78.665554    25.136313    16.371757 
   27800    231.03693   -388.09173    181563.75   -13388.481    950.37456   -14338.856   -785.91451    191.62053    78.664981    25.136841    16.380398 
   28000    237.14981   -474.20711    181563.75    -13333.76    975.51999    -14309.28   -1146.6445    194.59253    78.668703    25.139824    16.363242 
   28200    240.46669   -478.92327    181563.75   -13314.897    989.16403   -14304.061     -1141.01    195.78455    78.671466    25.142188    16.350439 
   28400    235.61414   -370.08265    181563.75   -13327.821    969.20299   -14297.024   -784.50022    197.41836    78.674438    25.144977    16.342662 
   28600    239.12208   -421.69298    181563.75     -13328.7    983.63296   -14312.333   -932.78502      199.949    78.677338    25.144905    16.334853 
   28800      232.282    -346.1113    181563.75   -13391.339    955.49616   -14346.835   -691.32739    199.91381    78.677328     25.14535    16.325112 
   29000    239.39821   -474.28839    181563.75   -13354.437    984.76882   -14339.205   -1140.3775    201.32653    78.683151     25.14462    16.327446 
   29200    235.55949    -410.4177    181563.75   -13334.351    968.97819   -14303.329    -895.9105    200.39646    78.685612    25.143747    16.334899 
   29400    247.83509   -236.86291    181563.75   -13324.778    1019.4741   -14344.253   -283.78353    201.82257    78.686992    25.142931    16.320308 
   29600    242.88705   -377.56778    181563.75   -13323.872    999.12021   -14322.993    -824.0682    202.77793    78.685132    25.144257     16.31529 
   29800    242.28526   -402.02271    181563.75    -13274.75    996.64476   -14271.394   -852.08736    203.74233    78.682102    25.141308    16.334906 
   30000    239.33537   -410.86063    181563.75   -13286.965    984.51034   -14271.476   -910.78539    204.03731    78.681892    25.140901    16.340706 
   30200    238.33206   -511.91712    181563.75   -13345.589     980.3832   -14325.972   -1280.8304    204.98277    78.682913    25.142291    16.338726 
   30400    234.19039    -226.4517    181563.75   -13378.105    963.34637   -14341.451    -248.6347    206.18189    78.683069    25.143443    16.328926 
   30600    233.38011    -475.4231    181563.75   -13369.817    960.01324    -14329.83   -1080.7668    205.63556     78.68238    25.146809    16.303619 
   30800    243.61817    -378.7268    181563.75   -13331.557    1002.1277   -14333.685   -772.46464    205.70583    78.683723    25.148674    16.322598 
   31000    237.29848   -334.21134    181563.75   -13337.928    976.13152   -14314.059   -601.71783    206.51787    78.681834    25.149356      16.3057 
   31200    244.24758   -313.22688    181563.75   -13286.925    1004.7168   -14291.642   -549.90563    206.39133    78.681953     25.15102    16.285811 
   31400    238.73024   -298.70186    181563.75    -13315.78    982.02112   -14297.801   -483.03986     205.5914    78.682814    25.150363    16.298799 
   31600    240.27078   -375.64459    181563.75    -13256.42    988.35816   -14244.779   -748.89466    207.23296    78.682135    25.147478    16.284549 
   31800    244.90504   -404.90268    181563.75   -13293.056    1007.4213   -14300.478    -839.0493    208.49032    78.682736    25.146386    16.268888 
   32000    242.16877   -399.85063    181563.75   -13256.087    996.16557   -14252.253   -889.21238    210.31033    78.686046    25.146781    16.255312 
   32200    242.07112   -432.23431    181563.75    -13327.91     995.7639   -14323.674   -971.65835    211.10052    78.686416    25.147889    16.264295 
   32400    235.69821   -473.24828    181563.75   -13333.293    969.54879   -14302.841   -1167.0079     211.2714     78.68217    25.148868    16.259428 
   32600    236.33585   -432.92948    181563.75   -13288.172    972.17172   -14260.343   -987.58329     213.1139    78.680876    25.149644    16.248341 
   32800    232.00848   -376.99995    181563.75   -13313.023    954.37105   -14267.394   -766.81385    212.75699    78.677892    25.150619    16.259284 
   33000    244.18058   -239.09812    181563.75   -13274.282    1004.4412   -14278.723   -306.45029     213.3598    78.674912    25.151215    16.255749 
   33200    241.41145   -463.52318    181563.75   -13299.523    993.05033   -14292.574   -1090.9767    216.38882    78.673264    25.150554    16.265314 
   33400    237.38453   -453.67446    181563.75   -13281.118    976.48551   -14257.604   -1087.9313    215.15706    78.673272    25.148566    16.255072 
   33600    229.20499   -219.15831    181563.75   -13322.407    942.83882   -14265.246   -225.81037    216.30206    78.671976    25.152118    16.287614 
   33800    243.63607   -361.24127    181563.75   -13306.087    1002.2013   -14308.289   -757.93964    216.83701    78.671608    25.152985    16.274169 
   34000    242.68366   -246.37792    181563.75   -13325.934    998.28356   -14324.218   -389.72851    218.02739    78.672344    25.156858      16.2521 
   34200    232.68908   -321.03172    181563.75   -13361.033    957.17067   -14318.204   -558.01957     219.6367    78.670828    25.156186    16.270253 
   34400    231.60504   -367.03728    181563.75   -13344.794    952.71148   -14297.505   -719.67181     220.3988    78.669564    25.158296    16.269861 
   34600    237.36364   -309.48444    181563.75   -13310.074    976.39957   -14286.474   -525.34514    220.72326    78.671612    25.159207    16.273032 
   34800    241.22997    -301.3666    181563.75    -13287.83    992.30378   -14280.134   -488.51249    222.50147    78.669867    25.157532    16.292281 
   35000    239.27785   -358.93696    181563.75   -13285.532     984.2737   -14269.806   -730.58624    223.46217    78.668307    25.156308    16.309796 
   35200    241.98242   -300.17169    181563.75    -13258.22    995.39902   -14253.619   -518.52295    224.06204    78.669127    25.152749    16.292994 
   35400    244.18361   -400.93713    181563.75   -13231.671    1004.4537   -14236.124   -845.86149    226.73758    78.667968    25.150229    16.309981 
   35600    241.42942   -364.86638    181563.75   -13327.821    993.12421   -14320.946    -744.2759    229.45444    78.671489    25.152515    16.344243 
   35800    232.40635   -207.30538    181563.75   -13307.442    956.00767    -14263.45   -151.29921    229.43456    78.671608    25.154026      16.3231 
   36000     239.8438   -389.98284    181563.75    -13354.85    986.60178   -14341.452   -852.99367    229.52291    78.671276    25.154805    16.331812 
   36200    236.95174   -453.41559    181563.75   -13343.274     974.7052   -14317.979   -1042.6547    228.64811    78.670688    25.154892    16.320277 
   36400    241.78882   -305.07408    181563.75   -13304.405    994.60262   -14299.008   -557.19028    229.45202    78.670571    25.151727    16.332591 
   36600    232.42431   -270.96055    181563.75   -13359.402    956.08155   -14315.484    -384.3817     231.4513    78.669792    25.149608    16.346912 
   36800    236.30819   -424.95682    181563.75   -13383.105    972.05796   -14355.163   -952.34443    229.83369    78.667957    25.146262    16.351693 
   37000    241.30171   -404.93579    181563.75   -13300.387    992.59891   -14292.986    -817.6566    231.13874    78.671467    25.143812    16.341267 
   37200    232.51475   -95.318487    181563.75   -13358.774    956.45357   -14315.228    228.36343     231.1647    78.678079    25.143899    16.348457 
   37400    238.28643   -386.74962    181563.75   -13308.924    980.19549   -14289.119   -817.80486    232.77405    78.680396    25.146842    16.326907 
   37600    243.06288    -276.3748    181563.75   -13292.557    999.84351   -14292.401   -439.41327    234.80953    78.682845    25.151335    16.319669 
   37800    237.24925   -362.53411    181563.75   -13358.606    975.92901   -14334.535   -705.51115    235.81847    78.682462     25.14835    16.278128 
   38000     237.2969   -425.73532    181563.75   -13347.764    976.12502   -14323.889   -973.17218     236.5653    78.683808    25.151698    16.278335 
   38200    238.36745   -329.74895    181563.75   -13284.107    980.52877   -14264.636   -576.12906    237.59943     78.68413    25.152867     16.29232 
   38400    244.08153   -439.34692    181563.75   -13262.802    1004.0337   -14266.836   -1019.7136    238.42946    78.687372    25.156736    16.302432 
   38600    245.79348    -283.2649    181563.75   -13279.141    1011.0759   -14290.216    -396.6051    238.61224    78.689031    25.158765    16.298921 
   38800    246.79868   -391.06074    181563.75    -13298.98    1015.2108   -14314.191   -814.19407    240.32562    78.688058    25.161205    16.294696 
   39000    245.45664   -291.71885    181563.75   -13285.651    1009.6903   -14295.341   -446.32421    240.07994     78.68568    25.160102    16.320119 
   39200    226.76425   -422.76852    181563.75   -13370.419    932.79881   -14303.218   -910.59106    242.79856      78.6849    25.155811    16.349871 
   39400    233.62406    -331.6653    181563.75   -13325.353    961.01673    -14286.37   -617.00195    243.92717    78.685683     25.15297    16.351489 
   39600    234.48494   -352.08113    181563.75     -13338.8    964.55801   -14303.358   -701.69918    244.79918    78.687281    25.151029    16.335513 
   39800    252.06234    -410.1397    181563.75   -13256.334     1036.863   -14293.197   -836.48971    246.37979    78.687243    25.151894    16.340676 
   40000     232.8586    -426.4379    181563.75   -13356.306    957.86803   -14314.174   -948.20029    246.69821    78.687129    25.150457    16.331209 
   40200    232.09883   -277.59729    181563.75   -13406.356    954.74269   -14361.099   -429.96083    248.53664    78.685908    25.152429    16.329893 
   40400    236.11995   -360.24055    181563.75    -13277.36    971.28363   -14248.644   -696.48833    249.22494     78.68351    25.156237     16.32778 
   40600    228.78124   -403.98726    181563.75   -13395.243    941.09571   -14336.339   -872.20365    249.64347    78.686104    25.160073    16.341172 
   40800    243.27079    -423.9887    181563.75   -13312.707    1000.6987   -14313.405   -963.86161    250.62485    78.687979    25.160756    16.349818 
   41000    241.63609   -401.83749    181563.75   -13280.233    993.97437   -14274.207   -848.34602    252.13421    78.687009    25.159443    16.354205 
   41200    243.46747   -379.78671    181563.75   -13297.205    1001.5078   -14298.713   -758.74147    250.84444    78.683859    25.156693    16.369991 
   41400    239.73554   -398.26037    181563.75   -13280.727    986.15643   -14266.883   -839.94714    250.73265    78.687065    25.158661    16.380585 
   41600    240.80797   -462.01068    181563.75   -13221.092     990.5679    -14211.66   -1070.5327    251.63225    78.690272     25.15503    16.388848 
   41800    238.38922   -351.21667    181563.75   -13272.556    980.61831   -14253.175   -684.55291    253.16896    78.694194    25.150362    16.393862 
   42000    240.40099   -355.96683    181563.75   -13273.436    988.89377   -14262.329   -646.47822    253.48543    78.697329    25.151582    16.393398 
   42200    240.41863   -395.20881    181563.75    -13285.95    988.96634   -14274.916   -870.14195    256.51521    78.698475      25.1511    16.416138 
   42400     233.9035   -287.10999    181563.75   -13294.784    962.16622    -14256.95    -512.7734    256.50698     78.70161    25.155324    16.429813 
   42600    243.23636   -367.74594    181563.75    -13274.04    1000.5571   -14274.597   -811.10102    257.88325    78.706079    25.158436    16.414104 
   42800    236.71679   -415.67794    181563.75   -13235.146    973.73876   -14208.885   -941.05957    258.16521    78.704751    25.161101    16.382556 
   43000    241.36017   -230.40095    181563.75   -13206.883    992.83936   -14199.723   -308.84642    258.61273    78.701105    25.156924     16.38401 
   43200    249.29078   -465.00736    181563.75    -13237.03    1025.4621   -14262.492   -1086.7239    260.43292    78.703678    25.154633    16.376652 
   43400    233.83901   -323.28194    181563.75    -13288.23    961.90094   -14250.131   -583.36053    261.96977    78.704101    25.150706    16.373935 
   43600    235.89989   -455.67711    181563.75   -13301.871    970.37842    -14272.25   -1044.7054    264.85788    78.704069     25.15016    16.374766 
   43800    244.86533   -235.46739    181563.75   -13267.388    1007.2579   -14274.646   -286.75258    266.91772    78.702638    25.148384    16.362328 
   44000    233.36791   -500.34355    181563.75   -13310.691    959.96306   -14270.654   -1205.6971    268.49534    78.705149    25.144635    16.363572 
   44200    234.27048   -363.77415    181563.75    -13258.35     963.6758   -14222.026   -681.95351    269.24597    78.707319    25.144921     16.35943 
   44400    254.14037   -290.65712    181563.75   -13213.442    1045.4109   -14258.853   -498.48032    267.30161    78.709586    25.147244    16.364086 
   44600    239.66583   -435.54732    181563.75    -13281.75    985.86967    -14267.62   -1005.7063    267.97607    78.706481    25.147911     16.33985 
   44800     235.5169   -346.97443    181563.75   -13267.217    968.80296    -14236.02   -661.49935    269.95202    78.706416    25.146864    16.351898 
   45000    246.23332   -322.56255    181563.75   -13257.531    1012.8852   -14270.416    -595.5438    271.01831     78.70601    25.147011    16.334083 
   45200    252.63253   -275.42372    181563.75   -13193.805    1039.2084   -14233.013   -389.14498    271.81664    78.706229     25.14445    16.300812 
   45400    253.89432   -354.28092    181563.75   -13190.718    1044.3988   -14235.117   -700.03487    273.71477    78.703508    25.142717    16.278659 
   45600    251.65986   -480.97833    181563.75   -13210.771    1035.2073   -14245.979   -1116.1867    272.66574    78.700928     25.14492    16.264574 
   45800     239.4609   -251.84756    181563.75   -13284.548     985.0267   -14269.575   -316.27096    271.50482    78.700142    25.143921    16.260176 
   46000    239.52533   -293.57145    181563.75   -13282.018    985.29172    -14267.31    -492.2183    272.59816     78.70138    25.138838    16.245129 
   46200    248.03728   -243.04874    181563.75   -13288.124    1020.3058    -14308.43   -295.90756    271.86706    78.701412    25.136879    16.234515 
   46400    238.94356   -338.38789    181563.75   -13244.973    982.89859   -14227.871   -598.20825    272.72701    78.703788    25.136499    16.243208 
   46600    239.74479   -406.73406    181563.75   -13313.718    986.19446   -14299.912   -880.08634    272.56589    78.701453    25.133533    16.238003 
   46800    245.39559   -375.88204    181563.75   -13272.348    1009.4391   -14281.787   -748.66262    272.97346    78.702798    25.136029    16.234746 
   47000     245.7617   -306.35372    181563.75    -13240.35    1010.9451   -14251.295   -493.40436    275.71953    78.699201    25.136791    16.248535 
   47200     228.4136   -470.91246    181563.75   -13306.838    939.58342   -14246.421   -1123.7449    276.27118    78.696298    25.139137    16.230651 
   47400    247.01017   -346.83508    181563.75    -13300.13    1016.0807   -14316.211   -662.08781    275.94136    78.696429    25.139128    16.225681 
   47600     240.4602    -383.1566    181563.75   -13321.182    989.13734    -14310.32   -822.95295    277.19163    78.696165    25.135458    16.231973 
   47800    236.04016     -287.057    181563.75   -13304.083    970.95541   -14275.039   -468.15167    277.48359    78.695961     25.13664     16.25244 
   48000    240.88051   -331.54552    181563.75   -13318.947    990.86629   -14309.813   -611.17823    279.71167    78.693748    25.140961    16.244534 
   48200    243.73206   -401.71156    181563.75   -13299.999    1002.5962   -14302.595   -905.67545    278.52647    78.694534     25.13945    16.255636 
   48400    232.83405   -225.64156    181563.75   -13312.667    957.76702   -14270.434   -191.25137     278.4172    78.696033    25.139956    16.249246 
   48600    248.37308   -352.77808    181563.75   -13297.626    1021.6871   -14319.314    -663.3719    280.54945    78.693782    25.139464    16.229206 
   48800    234.36334   -410.40269    181563.75   -13296.342     964.0578     -14260.4   -896.21768    281.93388     78.68962    25.138472    16.199902 
   49000    236.75015   -449.60202    181563.75    -13248.12    973.87598   -14221.996    -1052.656    282.84969     78.68283     25.14108    16.190687 
   49200    243.37988   -396.10355    181563.75   -13262.103    1001.1475    -14263.25   -859.32104    279.74144    78.682427    25.145162    16.223122 
   49400    240.00233   -453.01553    181563.75   -13297.193    987.25387   -14284.447   -1048.2985    277.95689    78.682975    25.144416    16.231778 
   49600     244.5253    -358.8094    181563.75   -13340.446    1005.8592   -14346.305    -709.8136    278.37746    78.681654    25.147656    16.235624 
   49800    232.84678   -314.03066    181563.75   -13361.002    957.81937   -14318.821   -537.06362    281.02672    78.679372    25.153268    16.217938 
   50000     232.4203   -459.53325    181563.75   -13379.615    956.06507    -14335.68   -1070.2522     281.7617    78.674571    25.156198    16.256986 
   50200    248.27779   -518.19812    181563.75   -13325.001    1021.2951   -14346.296   -1297.0044    285.14207    78.671402    25.155774    16.233722 
   50400    243.75003   -177.34258    181563.75   -13347.184    1002.6701   -14349.854   -58.241886    283.34024    78.671411     25.15972    16.212451 
   50600    233.67299   -281.67833    181563.75   -13406.574    961.21803   -14367.792   -409.04854    284.48902    78.674444    25.159391    16.240022 
   50800    238.48673    -374.3678    181563.75    -13385.52    981.01944   -14366.539   -810.34034    285.29753      78.6762    25.161062    16.247521 
   51000    240.71852   -267.51448    181563.75   -13303.925    990.19991   -14294.124   -375.45679    287.18465    78.674078    25.158968    16.256951 
   51200    235.43603   -374.59951    181563.75   -13386.155    968.47033   -14354.626   -766.11618    286.94708    78.676501    25.160141    16.261826 
   51400    237.11221   -190.72254    181563.75   -13327.481    975.36529   -14302.847   -125.60374    287.81405     78.67549    25.159164    16.263236 
   51600      240.284   -422.86848    181563.75    -13314.87    988.41251   -14303.283   -939.95813    289.65301    78.675146    25.156032    16.258044 
   51800     232.8608   -431.52686    181563.75   -13280.314    957.87706   -14238.191   -966.52726    290.92173    78.677093    25.156059    16.253397 
   52000    236.79733    -267.0315    181563.75   -13301.066    974.07004   -14275.136   -348.60534    290.08337    78.677601    25.155636     16.26602 
   52200      249.072    -366.9969    181563.75   -13294.826    1024.5621   -14319.388   -767.08256    289.69087    78.675919    25.153238     16.25613 
   52400    240.70863   -252.45838    181563.75   -13311.266    990.15924   -14301.426   -316.09833    292.05579    78.677741    25.152665    16.280522 
   52600    237.40843   -312.23238    181563.75   -13295.341    976.58383   -14271.925   -552.89967    293.86646     78.68236    25.150595    16.242089 
   52800    227.68928    -311.7909    181563.75   -13380.213    936.60392   -14316.817   -520.62412    295.95066    78.682256     25.14501    16.235025 
   53000     234.4583   -341.21246    181563.75   -13366.746    964.44842   -14331.194   -608.34483    296.83419    78.681769    25.141274    16.220522 
   53200    240.99172    -355.6927    181563.75   -13336.564    991.32377   -14327.887   -646.76926    297.77447    78.680659    25.138304    16.223675 
   53400     240.8648   -290.46679    181563.75   -13338.451    990.80165   -14329.252   -483.95412    295.61336    78.677915    25.132689    16.222355 
   53600    246.54853   -409.76336    181563.75   -13276.044    1014.1818   -14290.226   -898.11405    297.24951    78.675113    25.132204    16.246639 
   53800     239.5882   -304.43927    181563.75   -13308.139    985.55034   -14293.689   -516.61089    298.88488    78.673684    25.132833    16.247042 
   54000    247.15615   -329.51489    181563.75    -13250.34    1016.6812   -14267.021    -582.7698    300.13554    78.673525    25.132479    16.242275 
   54200    228.59351   -472.64521    181563.75   -13344.499     940.3235   -14284.823   -1087.5982    300.87838    78.676604    25.130423    16.239658 
   54400    246.10545   -342.58516    181563.75   -13300.251    1012.3592    -14312.61   -670.41266    299.15409    78.676509    25.127588    16.248699 
   54600    235.66025   -346.99006    181563.75   -13280.053    969.39267   -14249.446   -672.15739    302.34926    78.675242    25.130408    16.259938 
   54800    247.04006   -310.22387    181563.75   -13241.578    1016.2037   -14257.782   -544.73857    301.51575    78.675348    25.132494    16.278986 
   55000    238.00133   -248.31522    181563.75    -13286.01    979.02271   -14265.032    -342.0745    301.56135    78.674592    25.128446     16.28875 
   55200    239.70544    -362.8743    181563.75   -13275.983    986.03263   -14262.016   -695.88522    302.43326    78.673435    25.123999    16.283942 
   55400    249.25253   -342.31281    181563.75   -13261.505    1025.3047   -14286.809   -632.09073     301.8553    78.672192    25.126589    16.290836 
   55600    228.35891   -469.35767    181563.75   -13270.665    939.35844   -14210.024   -1086.2055    302.78304    78.670568    25.127514     16.30447 
   55800      235.995   -415.94771    181563.75   -13307.903    970.76966   -14278.672   -886.29682     306.1625    78.671159    25.125665    16.324249 
   56000    232.86963   -365.37014    181563.75   -13333.204    957.91339   -14291.117   -706.24171    307.50649    78.673144    25.124009    16.322546 
   56200    239.05745   -412.91783    181563.75   -13268.127    983.36709   -14251.494   -888.53689    310.28187    78.672791    25.127048    16.288537 
   56400    240.42165   -452.72729    181563.75   -13315.937    988.97874   -14304.916   -983.14117     311.1082    78.674473    25.127505    16.273652 
   56600    237.64552   -515.01843    181563.75   -13383.261    977.55911    -14360.82   -1243.2477    313.40468    78.674141    25.126446    16.259883 
   56800    225.41694   -272.82995    181563.75   -13403.735    927.25662   -14330.991   -404.86686    314.19679    78.676333    25.129302    16.266001 
   57000    234.83427   -462.60666    181563.75   -13385.179    965.99496   -14351.174   -1062.2104    315.03842    78.676756    25.129794    16.229847 
   57200    227.46895   -414.54735    181563.75   -13403.304    935.69761   -14339.001    -905.8225    313.07343    78.680411    25.128828    16.240799 
   57400    230.98042   -373.00144    181563.75   -13343.832    950.14209   -14293.974   -753.73757     313.4597    78.679116    25.128706    16.229253 
   57600     246.8903   -311.81888    181563.75   -13248.952    1015.5877    -14264.54   -540.99455     316.2081    78.680802    25.126819    16.204312 
   57800     242.9237   -463.50834    181563.75   -13282.321    999.27097   -14281.591   -1058.6968    317.22264    78.682413    25.126054    16.232059 
   58000    247.05783   -502.81601    181563.75   -13260.563    1016.2768    -14276.84    -1196.918    316.95307    78.679592    25.124038    16.236066 
   58200    239.45235   -302.33052    181563.75   -13302.878    984.99151    -14287.87    -540.6206    317.98421    78.677154    25.126331    16.236487 
   58400    241.81885   -375.77979    181563.75    -13304.96    994.72615   -14299.686   -787.03796    319.42982    78.676606    25.124372    16.236368 
   58600    235.19797   -398.68199    181563.75   -13294.172    967.49103   -14261.663   -831.83237    319.96027    78.676509    25.117595    16.235322 
   58800    247.94925   -482.80493    181563.75   -13309.053    1019.9437   -14328.997   -1125.3913    319.54055     78.67256    25.116772    16.225542 
   59000    231.00573   -235.96272    181563.75   -13325.003    950.24619   -14275.249   -285.98356    321.65449    78.670144    25.117915    16.232816 
   59200    241.80007    -343.7029    181563.75   -13313.601     994.6489    -14308.25   -600.17172    323.14663      78.6685    25.120375    16.260321 
   59400    236.37136   -480.03371    181563.75   -13307.733    972.31781    -14280.05   -1126.7085     326.8346    78.668751    25.123367    16.250971 
   59600    242.64829   -188.28965    181563.75   -13284.318    998.13808   -14282.456   -81.957903    326.86583    78.666809    25.120459    16.274263 
   59800    246.35864     -402.185    181563.75   -13282.429    1013.4007    -14295.83   -870.13733    329.24459    78.668708    25.120517    16.291668 
   60000     230.3056   -384.44611    181563.75     -13326.7    947.36619   -14274.066   -805.17405    329.36236     78.66941     25.12325    16.285798 
   60200    243.55838   -346.41178    181563.75   -13303.394    1001.8817   -14305.276   -638.54549    331.94255    78.667939    25.126401    16.292519 
   60400    235.99867    -326.5879    181563.75   -13380.562    970.78474   -14351.347   -554.13501     334.9974    78.665478    25.129533    16.282895 
   60600    242.33399   -287.60777    181563.75   -13355.959     996.8452   -14352.804   -428.56707    335.66845    78.665183    25.133117    16.286566 
   60800    236.01251   -354.74484    181563.75   -13381.108    970.84169   -14351.949   -687.16765    340.30462    78.664645    25.131259    16.288479 
   61000    237.46931   -330.21557    181563.75   -13434.258    976.83425   -14411.092   -584.45552    343.22012    78.658064    25.133889    16.293483 
   61200    234.36609   -507.78917    181563.75   -13418.248    964.06911   -14382.317   -1268.6365    348.54895    78.656078    25.138153     16.29303 
   61400    232.45193   -187.85287    181563.75   -13417.528    956.19519   -14373.723    -68.84345    349.17329    78.655357    25.136343    16.302874 
   61600    231.17676   -292.03116    181563.75   -13404.857    950.94974   -14355.807   -424.18923    349.52787     78.65165    25.138495    16.321219 
   61800    243.67892   -286.70203    181563.75   -13357.564    1002.3776   -14359.941   -426.69873    350.97972    78.648891    25.139409    16.327019 
   62000    236.82722   -295.74066    181563.75   -13374.561      974.193   -14348.754   -461.06447    350.04023    78.644047    25.142862    16.342376 
   62200    243.40687   -355.04492    181563.75   -13305.776    1001.2585   -14307.034   -677.53497     349.6574    78.643173    25.147781    16.358045 
   62400    252.84254   -390.12356    181563.75    -13318.17    1040.0723   -14358.242   -807.87013    353.31733    78.645034    25.150951    16.357786 
   62600    233.46681   -348.94077    181563.75    -13396.95    960.36991    -14357.32   -667.45795    352.66282    78.649211    25.151515     16.34898 
   62800    235.75022   -298.71584    181563.75   -13382.584    969.76274   -14352.347    -498.0642    351.15586    78.653034    25.148297    16.353529 
   63000    244.20619   -350.51386    181563.75    -13329.29    1004.5465   -14333.836   -670.38253    353.72492    78.655474    25.145001    16.345326 
   63200    236.49446   -244.15438    181563.75   -13388.339     972.8242   -14361.163     -253.239    353.47204    78.655922    25.145349    16.346891 
   63400    236.37506   -209.72312    181563.75   -13317.336    972.33305   -14289.669   -137.85573    350.32679     78.65329    25.144725    16.318596 
   63600     243.3749   -310.69766    181563.75   -13246.003     1001.127    -14247.13   -532.25348    348.66764     78.65153    25.143043    16.329675 
   63800    239.43168   -427.55033    181563.75   -13285.032    984.90649   -14269.938   -951.48682     346.3876    78.653721    25.145405    16.332332 
   64000    236.45957   -437.15107    181563.75    -13328.32    972.68065   -14301.001   -1022.7702     345.2783    78.653822    25.151126    16.317697 
   64200    246.39019   -341.78448    181563.75   -13305.635    1013.5305   -14319.166   -661.41045    347.91724    78.654585    25.150514    16.312666 
   64400    246.94408   -377.71806    181563.75   -13283.808    1015.8089   -14299.617   -740.49536    346.11399    78.654127    25.149966    16.310238 
   64600    239.30407   -339.34906    181563.75   -13310.772    984.38155   -14295.153    -644.1268    348.56255    78.653377    25.150654    16.343163 
   64800    236.99993   -256.70431    181563.75   -13311.024    974.90347   -14285.927   -330.74487    351.42359    78.650768     25.14894    16.338816 
   65000    238.23173   -315.08628    181563.75   -13361.099    979.97047    -14341.07   -536.71326    354.40808    78.650108    25.149353    16.344113 
   65200    239.18282   -503.60056    181563.75   -13334.543     983.8828   -14318.426   -1244.9262    358.43199    78.647595    25.153446    16.341636 
   65400    245.41261   -535.05789    181563.75    -13186.45    1009.5092    -14195.96   -1354.0459      358.534    78.648128    25.153599    16.368496 
   65600    239.68664   -453.56509    181563.75   -13289.456    985.95526   -14275.411   -1061.9376    355.62553    78.648866    25.154262    16.387129 
   65800    246.98142   -417.19212    181563.75   -13261.353    1015.9625   -14277.315   -895.44093    356.08201    78.649461    25.150735     16.40382 
   66000    240.93882   -405.71512    181563.75   -13300.477    991.10614   -14291.583   -898.22083     358.7114    78.652082    25.148378    16.377504 
   66200    247.67821   -224.99529    181563.75   -13274.271    1018.8287     -14293.1   -240.59036    360.39419    78.652267    25.148232    16.369223 
   66400    238.81505   -379.53903    181563.75   -13347.441    982.36997   -14329.811   -760.21273    359.80244    78.649656    25.143861    16.341909 
   66600    241.48376   -333.48814    181563.75    -13307.34    993.34777   -14300.688   -581.61729    360.02784     78.64796    25.139934    16.346543 
   66800    230.23863   -435.13265    181563.75   -13327.363    947.09073   -14274.453    -1018.161    360.83232    78.650887    25.133509    16.359041 
   67000    232.52005    -263.0425    181563.75   -13357.617    956.47539   -14314.093   -334.44341    361.52043    78.651379    25.127756    16.367065 
   67200    236.09042   -350.91396    181563.75   -13344.417    971.16216   -14315.579   -677.79595    360.99635     78.64915    25.127806    16.386725 
   67400    231.50269   -484.15974    181563.75   -13309.985    952.29044   -14262.276   -1155.9178    361.22101    78.649184    25.125003    16.418545 
   67600    236.11744   -447.09174    181563.75   -13386.086    971.27332   -14357.359   -1024.5471    359.26574    78.646368    25.124496    16.418168 
   67800    245.02098   -465.11413    181563.75   -13353.146    1007.8982   -14361.044   -1099.3244    361.68296     78.64872     25.12977     16.40236 
   68000    235.30839   -426.44137    181563.75   -13333.558    967.94528   -14301.504   -946.73692    363.47523     78.65148    25.130983    16.407265 
   68200    245.96486   -385.96067    181563.75   -13331.431    1011.7808   -14343.212   -844.52201    363.76308    78.652091    25.133376    16.422928 
   68400    232.69227   -466.74355    181563.75   -13281.628     957.1838   -14238.812   -1092.8059    362.79078    78.651091    25.134849    16.454524 
   68600    236.84046   -151.34986    181563.75   -13308.327    974.24745   -14282.575    18.670334    361.97215    78.656747    25.135165    16.448411 
   68800    240.22139   -264.65102    181563.75   -13231.841    988.15497   -14219.996    -376.1486     363.3852    78.660666    25.136712    16.471493 
   69000    241.88014   -439.94323    181563.75   -13228.896    994.97826   -14223.874   -978.79248     364.0783    78.660544     25.13718    16.440976 
   69200    240.96077   -437.89346    181563.75   -13268.024    991.19644    -14259.22   -961.77648     365.2191    78.662646    25.139846    16.434046 
   69400    231.61826   -343.33712    181563.75   -13328.745    952.76585   -14281.511   -650.28304     365.8198    78.662578    25.138423    16.449363 
   69600    250.34349   -412.22035    181563.75   -13288.373    1029.7924   -14318.166   -914.73749     367.5378    78.661423    25.141526    16.454446 
   69800    240.74363   -342.94326    181563.75   -13324.887    990.30322    -14315.19    -655.4988    368.01496    78.665343    25.145874    16.443528 
   70000    237.59835   -514.03787    181563.75   -13396.613    977.36504   -14373.978   -1245.5338     369.5599    78.667289    25.149796    16.438815 
   70200    233.17974   -425.78977    181563.75   -13359.079    959.18902   -14318.268   -952.53242    369.88847    78.666811    25.155092     16.43439 
   70400    237.25468   -329.36557    181563.75   -13327.221    975.95138   -14303.172   -593.44792     369.2239    78.667885    25.154521    16.419674 
   70600    239.06653   -354.51875    181563.75   -13310.086    983.40445    -14293.49   -684.83957    370.24819    78.668803     25.15161    16.422757 
   70800     236.3165   -423.43876    181563.75    -13330.66    972.09214   -14302.752   -936.60037    372.59592    78.665554    25.150934    16.424937 
   71000    239.63844    -425.7311    181563.75   -13290.497    985.75699   -14276.254   -976.13142    371.71504    78.665775    25.151999    16.432624 
   71200    251.53633   -337.15389    181563.75   -13177.578    1034.6992   -14212.277   -638.42367    373.52822    78.664481    25.156371    16.451612 
   71400    242.48409   -297.39407    181563.75   -13276.135    997.46262   -14273.598   -504.18323    373.62918    78.665564    25.157685    16.450012 
   71600    232.34288   -352.44765    181563.75   -13276.599    955.74658   -14232.345   -702.72879    372.24377    78.670182    25.157803    16.440822 
   71800    235.27869   -375.27832    181563.75   -13266.925    967.82309   -14234.748   -759.38114    371.95679    78.669539    25.154344    16.411896 
   72000    243.52673   -370.58546    181563.75   -13226.597    1001.7516   -14228.348   -756.88408    373.93535    78.669861     25.15318    16.427032 
   72200    238.35665   -408.31643    181563.75   -13248.467    980.48434   -14228.952     -910.007    376.38687    78.671934    25.150627    16.465225 
   72400    245.77198   -455.93199    181563.75   -13239.889    1010.9874   -14250.877   -1066.9581    377.23963    78.673282    25.149864    16.462802 
   72600    247.72201   -374.42991    181563.75   -13261.895    1019.0089   -14280.904   -789.70985    378.62545     78.67352     25.15373    16.486474 
   72800    242.01129   -293.73433    181563.75   -13312.706    995.51778   -14308.224    -489.0615    377.39003    78.675276    25.153207    16.495235 
   73000     240.1206   -340.97508    181563.75   -13287.259    987.74039       -14275   -706.83435    378.14721     78.67883    25.151937    16.484232 
   73200    246.70619   -260.74351    181563.75   -13236.115    1014.8303   -14250.945   -385.94892    376.77424     78.67611    25.150599    16.475299 
   73400    238.67514    -238.7903    181563.75   -13284.824    981.79445   -14266.618   -247.86803    379.62396     78.67024    25.150367    16.477659 
   73600    243.20038   -344.98774    181563.75   -13262.337    1000.4091   -14262.746   -658.13534    381.10801    78.671965    25.146833    16.483958 
   73800    249.16043   -476.01204    181563.75   -13203.524    1024.9259   -14228.449   -1085.9709     383.2168     78.67572    25.146599    16.484625 
   74000    242.56827    -245.9199    181563.75   -13204.379    997.80892   -14202.188   -331.52541    383.19782    78.678986    25.143337     16.47303 
   74200    246.65118   -235.39904    181563.75   -13200.686     1014.604    -14215.29   -236.80141    383.97914    78.679844    25.144428    16.490133 
   74400    242.63667   -451.40159    181563.75   -13240.108    998.09029   -14238.199   -1035.4067    381.90103    78.680734    25.141753    16.530932 
   74600    245.54287   -183.66564    181563.75   -13291.917     1010.045   -14301.962   -42.370448     383.2931    78.679061    25.142149    16.532952 
   74800    248.72483   -190.71053    181563.75   -13249.239     1023.134   -14272.373   -143.12703    383.37164     78.67621    25.143474    16.507743 
   75000    244.05524   -358.90799    181563.75   -13287.755    1003.9256   -14291.681   -697.60698    385.76749    78.671521    25.148039    16.487469 
   75200    239.78217   -410.93363    181563.75   -13287.881    986.34824    -14274.23   -933.61662    383.49456    78.671978     25.15092    16.445776 
   75400    250.80655   -437.98288    181563.75   -13233.006    1031.6972   -14264.703   -945.98873    386.31335     78.67278    25.151753    16.439674 
   75600    238.49583   -240.08467    181563.75   -13312.039    981.05687   -14293.096   -314.73524    384.55168    78.674347    25.150578    16.424862 
   75800    242.62495   -376.93367    181563.75    -13309.65    998.04207   -14307.692   -757.45845    387.28783    78.674991    25.145271    16.417493 
   76000     237.2508   -254.60165    181563.75   -13315.087    975.93541   -14291.022   -341.92656    385.66684    78.672183    25.142727    16.413467 
   76200    237.73856   -424.50572    181563.75   -13355.703    977.94183   -14333.645   -960.80367    386.76899    78.671673    25.142317    16.411129 
   76400    232.22614   -367.78289    181563.75   -13374.593    955.26636   -14329.859   -771.70093    389.63387    78.672955    25.142446    16.414101 
   76600    238.26917    -357.3354    181563.75    -13304.78    980.12449   -14284.905   -666.97143    388.61675     78.67303     25.14007    16.434913 
   76800    248.13377   -350.53089    181563.75   -13263.891    1020.7027   -14284.593   -676.79828    388.37686    78.671283    25.142052    16.444488 
   77000    238.79478   -391.12476    181563.75   -13284.543    982.28661   -14266.829   -795.51281    390.41082    78.673887    25.140483    16.444149 
   77200    239.94918   -412.30229    181563.75   -13249.386    987.03524   -14236.422   -916.96223    394.01764    78.676898    25.143258    16.443185 
   77400     236.8436   -464.59097    181563.75   -13208.836    974.26037   -14183.096   -1103.9311    393.06143    78.677453    25.145817    16.465153 
   77600    237.30715   -382.98886    181563.75   -13226.623    976.16722    -14202.79   -790.78062    397.02508    78.675441    25.143686    16.466267 
   77800    238.95901   -364.59107    181563.75   -13249.439    982.96216   -14232.402   -707.60711     400.0723    78.676986    25.142899    16.429837 
   78000    240.65977    -384.4957    181563.75   -13323.149    989.95825   -14313.107   -803.24336    398.68145    78.677216    25.139776    16.407746 
   78200    240.81759   -353.62245    181563.75   -13261.879    990.60746   -14252.486   -692.67523     400.7643    78.679193    25.138073    16.427929 
   78400    246.43183   -454.81204    181563.75   -13258.128    1013.7017    -14271.83   -1104.0549    402.42666    78.677728    25.139598    16.407619 
   78600    229.30277   -453.68096    181563.75   -13312.749    943.24106    -14255.99    -1130.572    401.19003    78.675688    25.140047    16.400956 
   78800    241.23904   -401.60005    181563.75   -13298.958    992.34109   -14291.299   -893.41373    401.13001    78.675624      25.1413    16.390679 
   79000    241.16182   -441.15835    181563.75   -13265.555    992.02348   -14257.579   -1007.4798    404.00912    78.674394    25.144061    16.367344 
   79200    247.38049   -385.18259    181563.75   -13250.465    1017.6041   -14268.069   -815.59156    404.70829    78.672834    25.144382    16.347537 
   79400    235.31808   -368.03254    181563.75   -13323.984    967.98511   -14291.969   -749.39935     405.9216     78.67845    25.145413     16.33635 
   79600     234.9501    -237.9958    181563.75   -13292.709    966.47142    -14259.18   -273.99435    408.35268    78.677229    25.146353    16.323695 
   79800    244.68536   -489.06817    181563.75   -13306.753    1006.5176    -14313.27   -1200.4977    409.16484    78.679721    25.145052    16.340695 
   80000    234.75182   -247.52653    181563.75   -13346.493    965.65581   -14312.148   -298.09437    409.21436    78.679647    25.143771    16.335416 
   80200    246.22582   -332.41283    181563.75   -13280.708    1012.8543   -14293.563   -567.90571    412.16249      78.6785    25.147323    16.356108 
   80400    238.66296   -216.86079    181563.75   -13323.312    981.74433   -14305.056   -183.15904    414.93163     78.67821    25.147054    16.349966 
   80600     236.1085   -372.73972    181563.75   -13222.017    971.23654   -14193.253      -791.69    417.71749    78.677403    25.150156    16.347923 
   80800    236.89143   -364.40355    181563.75   -13282.955    974.45712   -14257.412   -736.03111    418.37646    78.677625    25.152982     16.34767 
   81000    254.79443   -360.14954    181563.75   -13199.522    1048.1014   -14247.623   -717.38142    418.20377    78.679206    25.155806    16.339746 
   81200    238.23094   -541.92336    181563.75   -13229.971    979.96722   -14209.938   -1345.4944    420.39096    78.680004    25.161481     16.35526 
   81400    236.71895   -323.12517    181563.75   -13286.404    973.74763   -14260.152   -582.51099    419.51869    78.681842    25.162585    16.356311 
   81600    240.03618   -430.08063    181563.75   -13262.139    987.39312   -14249.532    -988.2381    419.46563    78.677978     25.16254     16.34968 
   81800    245.15825   -344.81262    181563.75   -13268.916    1008.4629   -14277.379   -636.93863    420.60037    78.677742    25.162784    16.364767 
   82000    250.09219   -326.25595    181563.75   -13252.349    1028.7587   -14281.108   -609.63765    421.99069    78.680564     25.16169    16.349564 
   82200    238.40278   -314.19076    181563.75   -13287.051    980.67411   -14267.725   -563.55862    420.89424    78.679685    25.161147    16.356819 
   82400    239.14375   -248.07279    181563.75   -13310.506    983.72207   -14294.228   -346.72245    423.17277    78.680656     25.16435    16.349356 
   82600    237.48422   -340.12499    181563.75   -13304.649    976.89558   -14281.545   -627.29246    424.89139    78.681177    25.163884    16.329156 
   82800    246.99012   -365.82154    181563.75   -13302.502    1015.9983     -14318.5   -711.92639    424.41187    78.682724    25.163843    16.340733 
   83000     242.0273   -300.56761    181563.75   -13303.385    995.58362   -14298.969     -495.277     424.8165    78.681342    25.164098    16.335459 
   83200     238.7539   -308.08162    181563.75   -13305.812    982.11843    -14287.93   -512.70818    424.45069    78.682829    25.169577    16.329556 
   83400    239.09241   -328.51003    181563.75   -13308.121     983.5109   -14291.632   -599.02797    425.98384    78.686289    25.170172    16.344223 
   83600    236.36466   -376.79372    181563.75   -13292.703    972.29026   -14264.993   -743.70048     427.4029    78.685434    25.169622    16.352401 
   83800    238.40704   -515.11079    181563.75   -13354.583     980.6916   -14335.275   -1309.3086    429.82639     78.68508    25.174557    16.355051 
   84000     228.5823   -286.29904    181563.75   -13375.867    940.27739   -14316.144   -459.27447      430.568    78.685966    25.177439    16.376635 
   84200    237.90798    -269.6637    181563.75   -13356.937    978.63872   -14335.576    -398.5654    432.69733    78.684724    25.176737     16.38006 
   84400    240.72839   -354.61316    181563.75   -13349.143    990.24053   -14339.383   -727.24419    434.93688     78.68511    25.180994    16.382562 
   84600    239.28126   -337.07014    181563.75   -13302.576    984.28772   -14286.864    -651.5275    438.01002    78.679695    25.183883    16.394084 
   84800    237.30531   -233.20402    181563.75   -13326.537    976.15962   -14302.697   -259.64348    438.07856    78.678733    25.180913    16.384027 
   85000    234.71303   -298.77909    181563.75    -13346.92    965.49623   -14312.417   -540.92974    438.98921    78.676022    25.179648    16.408594 
   85200    240.54571    -307.5508    181563.75   -13219.792    989.48909   -14209.281   -508.79422    439.92641    78.674111    25.180386    16.391667 
   85400    243.54747   -474.57102    181563.75   -13283.755    1001.8369   -14285.592   -1155.5429    443.36351    78.669164    25.177638    16.383631 
   85600    243.34691   -280.22506    181563.75    -13311.61    1001.0119   -14312.622   -448.75368    444.62783    78.669984     25.17395    16.387474 
   85800    251.22862   -458.72314    181563.75   -13268.662    1033.4334   -14302.095   -1005.1447    450.59262    78.668638    25.171529    16.387921 
   86000    243.21791   -330.49299    181563.75   -13262.795    1000.4812   -14263.277   -594.72023    455.75037    78.670691    25.175065    16.369477 
   86200    236.05425   -416.33824    181563.75   -13313.394    971.01339   -14284.407   -879.01456    456.22859    78.668961    25.175793    16.365756 
   86400    241.17942    -468.6028    181563.75   -13345.422    992.09585   -14337.518   -1103.2537    456.24083    78.668972      25.1772    16.364223 
   86600    244.31498   -422.79486    181563.75   -13356.274     1004.994   -14361.268   -959.75012    455.44091    78.668524    25.177434    16.340646 
   86800    236.32756   -342.05494    181563.75   -13371.287    972.13764   -14343.424   -654.88704    455.78873    78.667939     25.17434    16.325795 
   87000    235.27883   -438.77055    181563.75   -13400.087    967.82367   -14367.911    -978.7173     458.1999    78.666889    25.174437    16.363199 
   87200     232.5312   -289.89868    181563.75   -13373.582    956.52124   -14330.104   -430.23393    457.29246    78.667916     25.17294    16.363468 
   87400    235.71139   -619.54024    181563.75    -13365.61    969.60301   -14335.213   -1657.3078    460.71179    78.666635    25.173044    16.357148 
   87600    237.15057   -242.88176    181563.75    -13355.28    975.52312   -14330.803   -334.49889    456.78675    78.665504    25.170388    16.348876 
   87800    231.11077    -327.9373    181563.75   -13397.579    950.67827   -14348.257   -585.83235    456.33662    78.662271    25.165864    16.357823 
   88000    242.53774   -439.38939    181563.75   -13333.956    997.68334   -14331.639   -1008.9506    454.57093    78.660789    25.159858    16.352746 
   88200     241.9296   -382.14499    181563.75   -13305.348    995.18175    -14300.53   -793.88563    455.69392    78.661953    25.158101    16.358957 
   88400    242.80727   -383.26473    181563.75   -13320.784    998.79204   -14319.576   -796.26727    454.18079    78.663894    25.160138    16.342797 
   88600    234.24129   -352.39185    181563.75    -13369.01    963.55574   -14332.566   -668.14616    452.71939    78.665366    25.160417    16.358013 
   88800    236.20215   -422.09385    181563.75   -13391.241    971.62175   -14362.863   -920.40099    454.10606    78.663888    25.158645    16.353433 
   89000    235.18043   -336.05591    181563.75   -13423.641    967.41891    -14391.06   -617.48616    455.72589    78.663952    25.160746    16.358466 
   89200    226.93139   -434.32207    181563.75   -13410.864    933.48633    -14344.35   -943.73507    460.54503    78.660791    25.161052    16.356072 
   89400    240.07947   -266.76154    181563.75   -13362.303    987.57118   -14349.874   -392.43982    461.56293    78.660839    25.160363    16.354375 
   89600    238.67863   -375.54636    181563.75   -13439.163     981.8088   -14420.972   -766.67678    463.23793    78.661635    25.160272    16.360049 
   89800     246.3463   -356.04749    181563.75   -13346.835    1013.3499   -14360.185   -711.73324    463.08839    78.660677    25.163408    16.351989 
   90000    241.23239   -325.69511    181563.75   -13296.944    992.31375   -14289.257   -617.71001    462.39785    78.658338    25.162661    16.353833 
   90200    237.23691   -347.43415    181563.75   -13366.606    975.87826   -14342.484   -639.91557    460.55314    78.658467    25.161975    16.366193 
   90400    240.33084    -553.9445    181563.75   -13411.338     988.6052   -14399.943   -1375.1837    460.68845    78.658265    25.163101    16.352404 
   90600    234.59861   -334.41755    181563.75    -13293.29    965.02556   -14258.316    -647.2662    462.73081    78.656561    25.161858    16.357481 
   90800    239.14786   -283.32534    181563.75   -13265.826    983.73899   -14249.565   -424.88145    464.95073    78.655789    25.165708    16.332995 
   91000    234.44466   -343.09855    181563.75    -13298.78     964.3923   -14263.173   -679.39196    464.24807    78.655421    25.163852    16.319747 
   91200    235.51624   -390.46979    181563.75   -13295.365    968.80025   -14264.166   -793.05108    464.63366    78.655127    25.161782    16.324662 
   91400    234.82397   -390.86936    181563.75   -13365.614     965.9526   -14331.567   -855.98924    469.52914     78.65243    25.153348    16.322141 
   91600    242.35357    -350.7057    181563.75   -13282.562    996.92576   -14279.487   -709.23285    473.68134    78.651396    25.156222    16.321987 
   91800    238.40132   -421.19706    181563.75   -13315.066    980.66811   -14295.734   -976.10926    476.98011    78.649308    25.157147    16.347584 
   92000     238.7997   -136.10452    181563.75    -13282.94    982.30685   -14265.247    87.857234    475.37124    78.648912    25.155603    16.353275 
   92200    244.70679    -405.2047    181563.75   -13312.063    1006.6058   -14318.668   -889.66354     478.0993    78.655155    25.151788    16.346951 
   92400    238.79395   -285.20888    181563.75   -13228.694     982.2832   -14210.977   -498.73338    478.75132    78.655953    25.150572    16.361676 
   92600    242.75831   -270.49122    181563.75   -13291.264    998.59064   -14289.855    -373.8326    479.47345     78.66063    25.154451    16.366729 
   92800     231.0805   -201.60693    181563.75   -13338.067    950.55377   -14288.621   -156.86839    479.56576    78.661427    25.159254    16.345496 
   93000    236.53405   -382.36692    181563.75   -13357.051    972.98704   -14330.038   -784.64198    479.67487    78.661035    25.162754    16.313555 
   93200     234.7741   -171.45938    181563.75   -13325.949    965.74745   -14291.697   -45.177788    479.84459    78.665464    25.163684    16.297797 
   93400    235.98048   -303.15056    181563.75    -13357.49    970.70993     -14328.2   -542.84058    483.63078    78.667598     25.16441    16.289143 
   93600    246.00916    -267.7621    181563.75   -13350.589    1011.9631   -14362.552   -430.26582    482.29578    78.672066    25.162662    16.298139 
   93800    244.62109   -344.26475    181563.75   -13291.198    1006.2532   -14297.451   -678.52435    482.22912    78.671576    25.164185    16.298228 
   94000    233.42298   -306.62633    181563.75   -13355.376    960.18961   -14315.566   -541.89418    484.79074    78.673103    25.163205    16.320671 
   94200    246.19251   -308.39416    181563.75   -13275.415    1012.7173   -14288.132   -555.59493    487.51373     78.67497    25.162477    16.327883 
   94400    240.22912    -392.3017    181563.75   -13274.421    988.18677   -14262.608    -824.2741    488.96807    78.671808    25.162269    16.318073 
   94600    246.32344   -375.36939    181563.75    -13264.59    1013.2559   -14277.846    -797.4386    488.23024    78.668271     25.15961    16.306953 
   94800    248.49485   -470.39629    181563.75   -13213.559     1022.188   -14235.747   -1105.6404    491.54966    78.666386    25.163684    16.330182 
   95000    235.93297   -407.55745    181563.75    -13320.35    970.51447   -14290.865   -918.32847    493.06216    78.663001     25.16414    16.301086 
   95200    241.78422   -340.02098    181563.75   -13307.164     994.5837   -14301.747   -653.22384    496.01742    78.662722     25.16217    16.317038 
   95400    238.43003   -369.53262    181563.75   -13310.074    980.78621    -14290.86   -771.39061    499.51783    78.663925    25.164987    16.282152 
   95600     242.7683   -368.16809    181563.75   -13315.069    998.63172   -14313.701   -770.39048    496.74836    78.668055    25.167625    16.274673 
   95800    236.94533   -332.28276    181563.75   -13316.636    974.67883   -14291.315   -618.54831    497.77442    78.670174      25.1692     16.27508 
   96000    236.91256   -437.52307    181563.75   -13346.015    974.54404   -14320.559    -978.1624    496.97976    78.671438    25.168508    16.280263 
   96200    239.56224   -362.90076    181563.75   -13367.349    985.44356   -14352.792   -668.29494    501.23024    78.671073    25.177837    16.312028 
   96400    234.98042   -428.81317    181563.75   -13333.619    966.59614   -14300.215   -970.62823    502.23644    78.672108    25.179032    16.288695 
   96600    232.53344   -296.65342    181563.75   -13372.777    956.53047   -14329.308   -502.34552    505.07821    78.670927    25.172923    16.282675 
   96800     246.1702   -337.65682    181563.75   -13314.106    1012.6255   -14326.731   -604.94834    505.14381    78.671935     25.17347    16.298734 
   97000    238.25503   -356.35406    181563.75   -13308.681    980.06632   -14288.747   -701.31194    509.70167    78.670324    25.172674    16.307644 
   97200    249.88073   -451.00934    181563.75   -13274.818    1027.8888   -14302.707   -1001.6223    512.19985    78.667107      25.1785    16.322289 
   97400    234.76032   -326.05949    181563.75   -13385.273    965.69077   -14350.964   -619.06265    514.09984    78.665264    25.180684    16.321518 
   97600    236.55939   -236.67927    181563.75   -13359.533    973.09126   -14332.625   -273.59539    515.90509    78.665601    25.175334    16.317681 
   97800    231.06664   -328.09362    181563.75   -13359.848    950.49676   -14310.344   -639.17745    519.49964    78.663082    25.168866    16.321468 
   98000    239.51103   -299.23277    181563.75    -13394.98    985.23291   -14380.213   -488.97469    522.31524    78.659234     25.16779    16.286555 
   98200    239.13223   -439.34911    181563.75    -13389.96    983.67471   -14373.634   -1006.5682    526.03332    78.662285    25.169084    16.303111 
   98400    235.98223   -342.03998    181563.75   -13345.707    970.71712   -14316.425   -582.17841    529.47567    78.661531    25.171251    16.286396 
   98600    238.66436   -254.42749    181563.75   -13317.029    981.75011   -14298.779   -356.99041    530.38563    78.664606     25.17472    16.303349 
   98800    248.06582   -269.09238    181563.75   -13210.407    1020.4232    -14230.83   -371.99623    533.36249    78.667531    25.174286    16.292128 
   99000    243.18466   -344.06172    181563.75    -13246.14    1000.3445   -14246.484   -654.52493    537.77282    78.669339    25.172783    16.295663 
   99200    238.77143   -399.68693    181563.75   -13260.071    982.19053   -14242.262   -866.40129    541.91854    78.668598    25.170845    16.298015 
   99400    246.35845   -257.83107    181563.75    -13243.64    1013.3999    -14257.04   -332.40256     540.9446    78.665735    25.169964    16.318465 
   99600    243.91696   -468.40237    181563.75   -13246.941    1003.3568   -14250.298    -1041.903    540.18505    78.663388    25.164818    16.325972 
   99800    239.19746    -408.4838    181563.75   -13213.243    983.94302   -14197.186   -895.14596    537.32976    78.664005    25.155792     16.34151 
  100000    244.89492   -378.12817    181563.75    -13249.84    1007.3796    -14257.22    -786.9767    537.69642    78.663418     25.15413    16.364541 
  100200    247.88575   -447.24438    181563.75   -13217.141    1019.6825   -14236.823    -1041.406    543.29918     78.66404    25.152835     16.37278 
  100400    240.27118   -361.06663    181563.75   -13251.435     988.3598   -14239.795   -727.10004    541.87548    78.659383    25.148651    16.394923 
  100600    246.83587   -363.02611    181563.75   -13323.342    1015.3638   -14338.706   -762.39977    542.22781    78.655686    25.142776    16.383498 
  100800    247.81986   -277.44652    181563.75    -13285.39    1019.4114   -14304.802   -420.83513    542.40323    78.653604    25.136558    16.362872 
[...]
 5175800    226.16495   -320.90398    181563.75   -14753.995    930.33357   -15684.329   -505.74049    1910.6099    78.311613    23.703547    16.378091 
 5176000    234.07075    -386.1693    181563.75   -14709.783    962.85423   -15672.637   -751.53421    1909.3779    78.311499    23.704101    16.379844 
 5176200    231.53358   -347.19918    181563.75   -14727.729    952.41751   -15680.147   -615.46435    1907.6434    78.311856    23.704218    16.383072 
 5176400     223.6717   -241.20502    181563.75   -14766.734    920.07755   -15686.811   -183.98564    1909.3636    78.311151    23.705053    16.383038 
 5176600    228.28635   -362.89163    181563.75   -14716.988    939.05998   -15656.048   -634.68707    1909.4561    78.311407    23.705728    16.378382 
 5176800    228.69076   -442.38521    181563.75    -14733.07    940.72354   -15673.793   -952.25153    1909.0659    78.312012     23.70515    16.379614 
 5177000    223.48416   -374.19986    181563.75   -14748.498    919.30608   -15667.805   -694.04026    1911.1185    78.311992    23.704816    16.379515 
 5177200    233.70221   -345.58084    181563.75   -14698.461    961.33823   -15659.799   -561.87402     1907.702    78.311497     23.70524    16.385915 
 5177400     225.7729   -387.74431    181563.75   -14721.141    928.72087   -15649.862   -708.30281      1907.45    78.311885    23.705108    16.380906 
 5177600    230.22528   -316.76947    181563.75   -14730.977    947.03581   -15678.013   -483.19019    1910.8105    78.311589    23.704043    16.379313 
 5177800    225.33663    -346.3091    181563.75   -14746.434    926.92624    -15673.36   -610.10886    1905.4876     78.31179     23.70466    16.380967 
 5178000    222.73937   -415.12678    181563.75   -14721.097    916.24239   -15637.339   -846.68003    1909.1962    78.312998    23.703991    16.381324 
 5178200    225.65588   -365.71591    181563.75   -14739.755    928.23949   -15667.994   -639.02007    1911.0366     78.31224    23.702718    16.386307 
 5178400    230.06759   -302.63961    181563.75   -14716.146    946.38715   -15662.533   -422.84689    1905.2434    78.312429    23.701211    16.387038 
 5178600     226.9834   -466.82233    181563.75   -14706.775    933.70027   -15640.475   -1069.0871    1910.7473    78.312537    23.702398     16.38393 
 5178800    228.53672   -351.45929    181563.75    -14680.22    940.08987    -15620.31   -566.71675    1910.0393     78.31196    23.704326     16.38518 
 5179000    236.72608   -338.89676    181563.75   -14679.768    973.77695   -15653.545   -565.38291    1904.6781    78.312718    23.704813    16.379637 
 5179200    227.75438   -374.21553    181563.75   -14719.659    936.87173   -15656.531   -683.08554    1910.6951    78.312069    23.705489    16.382077 
 5179400     231.4698   -444.27212    181563.75    -14727.59    952.15515   -15679.745   -936.89019    1910.4272     78.31204    23.705239    16.375587 
 5179600    227.39894   -332.79855    181563.75   -14744.394    935.40961   -15679.804   -546.91274    1905.4755    78.311856     23.70526    16.384478 
 5179800    224.33904   -322.22103    181563.75    -14702.65    922.82265   -15625.473   -487.56231    1910.8887    78.311604    23.704823    16.384755 
 5180000    223.04103   -371.71374    181563.75   -14734.041    917.48328   -15651.524   -634.53066    1908.6948    78.313127    23.703606    16.380399 
 5180200    221.39316   -435.34355    181563.75   -14717.005     910.7047   -15627.709   -913.45272    1908.0022    78.312169     23.70267    16.383181 
 5180400    228.56492   -305.68587    181563.75   -14699.758    940.20587   -15639.963   -473.16234    1910.9254     78.31146    23.702718    16.385421 
 5180600    218.79577   -365.72961    181563.75     -14758.4    900.02029   -15658.421   -654.60314    1907.0503    78.312327    23.703204    16.394761 
 5180800     223.2127   -465.54959    181563.75   -14728.629    918.18942   -15646.819   -990.97328    1911.2932    78.312384    23.703027    16.395476 
 5181000    224.32761   -329.91276    181563.75   -14739.706    922.77564   -15662.481   -501.71517    1910.2912    78.312486    23.702754     16.40506 
 5181200    224.72911    -329.1402    181563.75   -14713.879    924.42721   -15638.307    -546.3683    1905.5948     78.31127    23.702585    16.404178 
 5181400     224.2095   -377.94376    181563.75   -14698.461     922.2898   -15620.751   -740.57421    1909.9704    78.312513    23.701788    16.399313 
 5181600    224.42511   -415.41397    181563.75   -14710.391    923.17671   -15633.567     -852.099    1911.5624    78.312056    23.701755    16.402986 
 5181800    228.55891   -217.69138    181563.75   -14680.325    940.18115   -15620.506    -81.92804    1904.8579     78.31216    23.702728    16.400302 
 5182000    226.45532   -389.91281    181563.75   -14753.162      931.528    -15684.69   -751.59208    1911.0936    78.312899    23.704572    16.398293 
 5182200     212.1765   -442.95083    181563.75   -14820.998    872.79182    -15693.79   -946.75785    1910.6557    78.312608    23.704956    16.400775 
 5182400     227.4389   -366.65445    181563.75   -14722.822    935.57396   -15658.396   -666.84317     1906.874    78.311888    23.705447    16.402229 
 5182600    232.42748   -255.36374    181563.75   -14704.141     956.0946   -15660.235   -281.45282    1909.2282    78.312939    23.705328    16.399124 
 5182800    225.19307   -404.54141    181563.75   -14724.486    926.33573   -15650.822   -792.14984    1910.3097     78.31222    23.704231    16.404917 
 5183000    232.40613    -428.2767    181563.75   -14719.817    956.00676   -15675.823   -860.43897    1908.8453    78.312554    23.704568    16.396391 
 5183200    220.43794   -294.80933    181563.75    -14690.41    906.77542   -15597.185   -435.90028    1908.7441    78.312834    23.703663    16.404855 
 5183400    231.61936   -348.97785    181563.75   -14749.773    952.77037   -15702.543    -597.8691    1907.5953    78.312238    23.701765    16.404759 
 5183600    229.80275   -463.15595    181563.75   -14727.946    945.29772   -15673.244   -989.55088     1910.719    78.311468    23.701905    16.401674 
 5183800    218.72572   -341.28525    181563.75   -14763.095    899.73218   -15662.828   -566.00436    1911.0676    78.312815    23.701882    16.406349 
 5184000    225.45897   -213.13259    181563.75   -14746.036    927.42952   -15673.465   -118.81755    1907.0447    78.313137    23.700276    16.399124 
 5184200    230.21344   -445.48921    181563.75    -14730.93    946.98708   -15677.917   -983.39362    1909.4947    78.312608    23.699862    16.405241 
 5184400    227.57728   -490.62345    181563.75   -14744.214    936.14323   -15680.357   -1121.0802     1912.875    78.312039    23.699699    16.402241 
 5184600    226.95743   -259.88876    181563.75   -14714.042    933.59346   -15647.635   -262.95803    1905.6236    78.311497     23.70042    16.407004 
 5184800    233.07758   -325.04237    181563.75    -14671.85    958.76879   -15630.619    -537.4306    1908.7319    78.312313    23.700665    16.404501 
 5185000    231.34873   -476.56433    181563.75   -14663.028    951.65713   -15614.685   -1085.7924    1913.0823    78.313057    23.699991    16.409625 
 5185200    224.43752   -392.65117    181563.75   -14715.703    923.22775   -15638.931    -773.8746    1907.5302    78.312933    23.699552    16.408671 
 5185400    220.22667    -216.4589    181563.75   -14728.367    905.90633   -15634.273   -111.92557    1908.6835    78.312111    23.700018    16.404982 
 5185600    217.61237   -383.93724    181563.75   -14778.717    895.15239   -15673.869   -728.59001    1910.1696    78.313054    23.699322    16.410677 
 5185800    216.86559   -355.11817    181563.75   -14721.788    892.08048   -15613.868   -616.37684    1909.2508    78.312675    23.698468    16.408146 
 5186000    233.84357   -311.16222    181563.75   -14689.694     961.9197   -15651.614   -524.73095    1910.0047    78.312581    23.698448    16.406487 
 5186200    234.01084   -356.51315    181563.75   -14676.487    962.60778   -15639.094   -609.71841    1909.4624     78.31223    23.696852    16.400067 
 5186400    220.36917   -490.30996    181563.75   -14739.869    906.49252   -15646.361    -1077.147    1910.5214    78.311894    23.695977     16.40273 
 5186600    229.72062   -343.15535    181563.75    -14729.97    944.95987    -15674.93   -566.39849    1910.3134    78.311174     23.69543    16.406423 
 5186800    229.02124    -258.4653    181563.75    -14689.05    942.08297   -15631.133   -306.55452    1906.2532    78.311036    23.693515    16.409189 
 5187000     216.9613   -454.07248    181563.75   -14727.963    892.47417   -15620.437   -1014.0662    1910.2834    78.311602     23.69281    16.400472 
 5187200    227.90654   -350.08382    181563.75   -14714.217    937.49763   -15651.715   -564.99538    1912.5421    78.311311    23.691344    16.404293 
 5187400    218.02252   -262.85978    181563.75   -14762.114    896.83952   -15658.953   -313.02973    1905.7421    78.312397    23.689553    16.404761 
 5187600    225.72344   -394.36417    181563.75   -14735.953     928.5174   -15664.471   -787.35971    1910.1412    78.312753     23.68972    16.400457 
 5187800    224.77697   -471.30148    181563.75   -14710.345    924.62406   -15634.969   -1020.8118    1912.4396    78.312233    23.688261    16.405485 
 5188000     221.7905   -294.52269    181563.75   -14739.497    912.33917   -15651.836   -384.99887    1907.1793    78.312954    23.687467    16.403424 
 5188200    231.88618   -267.34705    181563.75   -14711.005    953.86794   -15664.872    -303.7215    1908.7791     78.31336    23.686738    16.405725 
 5188400    228.26295   -430.74766    181563.75     -14730.8    938.96372   -15669.763   -891.16668    1911.5026     78.31405    23.687211    16.406643 
 5188600    220.57434   -418.44391    181563.75     -14746.9    907.33647   -15654.237   -857.00932    1908.6943    78.314673     23.68636    16.403551 
 5188800    229.32951   -300.06483    181563.75   -14706.399    943.35104    -15649.75   -434.71853    1909.4177    78.314539    23.685691    16.402643 
 5189000    227.32304   -305.45735    181563.75   -14725.015    935.09737   -15660.113   -406.76612    1909.9643    78.314807     23.68559    16.414158 
 5189200    229.66813   -353.59189    181563.75     -14706.3    944.74394   -15651.044   -621.56101    1910.6951    78.313981    23.685167    16.405002 
 5189400    228.03821   -308.79642    181563.75   -14729.915    938.03924   -15667.954   -485.78413    1911.2402    78.315546    23.687105    16.405846 
 5189600     225.8751   -275.86879    181563.75   -14736.446    929.14128   -15665.588   -341.39562    1908.2996    78.315617    23.686025    16.401874 
 5189800    220.03168   -388.23952    181563.75    -14739.65    905.10423   -15644.754   -728.84378    1910.6546    78.316819    23.687266    16.401529 
 5190000    227.67225   -357.81543    181563.75    -14721.39    936.53385   -15657.924   -631.62728    1911.4964    78.317318    23.687009    16.402194 
 5190200    218.43111    -336.4794    181563.75   -14745.086    898.52029   -15643.607     -565.418    1908.1901      78.3188    23.686902    16.405398 
 5190400     222.3538   -442.92822    181563.75   -14710.138    914.65631   -15624.794   -938.20503    1910.1201    78.320842    23.687621    16.400088 
 5190600    232.42484   -381.99599    181563.75   -14693.265    956.08373   -15649.348   -725.77206    1911.8668    78.320942    23.686196    16.399808 
 5190800    228.32273   -296.99511    181563.75   -14721.954    939.20965   -15661.164    -411.6704    1908.0279    78.321931    23.685183    16.403876 
 5191000    219.29907   -354.99587    181563.75   -14764.842    902.09065   -15666.933   -590.15819    1909.2024    78.322126    23.684696    16.402541 
 5191200     229.0208   -392.70168    181563.75   -14744.925    942.08114   -15687.006   -724.85496    1911.9917    78.322048    23.683178     16.40397 
 5191400     228.0455   -346.91786    181563.75   -14730.606    938.06922   -15668.675   -598.27467    1907.8618    78.321241    23.682704    16.403023 
 5191600    229.93435   -336.34503    181563.75   -14727.252    945.83906   -15673.091   -569.49779    1909.2815    78.321275    23.682725    16.403402 
 5191800    220.84683   -413.05357    181563.75   -14744.925    908.45738   -15653.382   -839.58157    1910.7624    78.320967    23.681735    16.404319 
 5192000    224.31664   -413.37098    181563.75   -14709.819    922.73049   -15632.549   -869.86148    1908.9927    78.321162    23.680967    16.404991 
 5192200    228.02524   -251.34146    181563.75   -14659.828    937.98589   -15597.814    -260.8485    1909.2019    78.320907    23.680665    16.405832 
 5192400     234.1375   -297.89029    181563.75   -14653.895    963.12878   -15617.024   -425.44897    1908.1346    78.322008    23.681911    16.406588 
 5192600     226.5991    -413.7177    181563.75   -14722.682    932.11943   -15654.801    -824.7944    1909.0543    78.321496    23.682924    16.398833 
 5192800    218.31287   -377.37144    181563.75   -14735.173    898.03389   -15633.207   -726.15201    1910.0968    78.321375    23.681146    16.402999 
 5193000    220.50485   -332.22328    181563.75   -14714.301    907.05064   -15621.352   -536.60023     1908.667     78.32224    23.681011    16.408826 
 5193200     229.5042   -333.42646    181563.75   -14706.712    944.06964   -15650.781   -540.90103     1909.092    78.322138    23.681822    16.402755 
 5193400    224.19186   -388.34007    181563.75   -14777.373    922.21722    -15699.59   -782.96032    1910.7351    78.322225      23.6821    16.407128 
 5193600    228.83794   -418.65562    181563.75   -14717.175    941.32895   -15658.503   -883.55331    1910.5046    78.321663    23.682641    16.405137 
 5193800    224.09672   -346.26763    181563.75   -14747.914    921.82587    -15669.74   -585.26864    1907.7289    78.321956    23.682221    16.411658 
 5194000    233.52305   -286.15375    181563.75   -14699.849    960.60123    -15660.45   -371.64987    1910.1002    78.321707    23.683968    16.412157 
 5194200     225.5899   -416.32038    181563.75   -14721.403    927.96807   -15649.371   -858.40145    1909.6011    78.321427     23.68442    16.407992 
 5194400    234.86236   -417.61977    181563.75    -14688.51    966.11053    -15654.62   -881.01627    1909.4329    78.321779    23.686005    16.405965 
 5194600    226.89433   -342.03772    181563.75   -14738.219     933.3339   -15671.553   -591.44218    1911.1057    78.322275    23.686477     16.40544 
 5194800    231.79435   -302.71927    181563.75   -14695.173    953.49018   -15648.663    -419.8927    1909.8068    78.322964    23.687583    16.412288 
 5195000    228.42146    -414.1557    181563.75   -14697.492    939.61577   -15637.108   -834.74475    1910.7824    78.323171    23.688555    16.406763 
 5195200    228.23401   -377.04883    181563.75    -14745.67    938.84467   -15684.515   -717.61129    1910.4849    78.322643    23.688236    16.404436 
 5195400    228.11626   -310.69181    181563.75   -14713.371    938.36031   -15651.731   -459.77635    1909.1523      78.3236    23.689179    16.405588 
 5195600    225.37941   -390.62778    181563.75   -14719.889    927.10221   -15646.992   -754.33272    1909.7391    78.324182    23.688777    16.406253 
 5195800    221.12436   -320.41804    181563.75   -14727.365    909.59902   -15636.964    -492.1507    1909.5285    78.324867    23.689484    16.408435 
 5196000    230.64896    -326.3202    181563.75   -14682.947    948.77862   -15631.725   -510.25941    1907.4701    78.325166    23.689146    16.407943 
 5196200     231.2334   -343.53743    181563.75   -14714.511    951.18273   -15665.694   -607.01966    1910.3218    78.323503    23.691518    16.406699 
 5196400    231.34247   -402.21586    181563.75   -14664.665    951.63138   -15616.296   -814.21737    1911.4984    78.323308    23.692662    16.410354 
 5196600    226.22736   -313.01605    181563.75   -14747.999     930.5903   -15678.589   -464.41831    1909.0192    78.323713    23.693259     16.41007 
 5196800    224.25274   -250.64879    181563.75   -14727.803    922.46764    -15650.27   -248.29644    1909.8464    78.324153    23.693438    16.410989 
 5197000    226.42789   -406.11972    181563.75   -14700.685    931.41518     -15632.1   -820.16458    1908.3717    78.325276    23.693468    16.403853 
 5197200    228.04386   -417.99265    181563.75   -14711.869    938.06248   -15649.932   -845.40291    1911.7228    78.324889    23.694091    16.403784 
 5197400    235.77716   -296.78358    181563.75   -14646.639    969.87358   -15616.513   -429.43868    1910.1701    78.326607    23.694551    16.408754 
 5197600    229.89605   -302.75502    181563.75   -14691.325     945.6815   -15637.007   -465.37211    1907.7571    78.328715    23.694007    16.409565 
 5197800    223.75778   -481.48193    181563.75    -14685.85    920.43163   -15606.282   -1080.9568    1912.0461    78.329582    23.693365    16.406679 
 5198000    232.45809   -348.70756    181563.75    -14663.56    956.22049    -15619.78   -568.89297    1910.8947    78.330104    23.693932    16.404039 
 5198200    225.30013   -293.75094    181563.75   -14702.223    926.77612   -15628.999   -393.05094    1906.7193    78.331311    23.695103    16.406526 
 5198400    224.34106   -392.29202    181563.75   -14723.504    922.83096   -15646.335   -788.14656    1912.2736    78.331471    23.696917    16.409815 
 5198600    229.32155   -363.28747    181563.75   -14709.071     943.3183    -15652.39   -635.51855    1909.7474      78.3319    23.698036    16.408959 
 5198800    223.17722   -366.57834    181563.75   -14762.607    918.04348    -15680.65   -705.43451    1906.6088    78.333581    23.699819    16.412039 
 5199000    227.90226   -296.53971    181563.75   -14724.278    937.48004   -15661.759    -385.9143    1910.0718    78.334949      23.7027    16.411073 
 5199200    225.34996   -404.70053    181563.75    -14729.43     926.9811   -15656.411   -784.73817    1909.7691     78.33601    23.703554    16.409868 
 5199400    225.47716   -382.28131    181563.75   -14766.691    927.50434   -15694.196   -714.49832    1909.0987     78.33856    23.704052    16.405965 
 5199600     224.4145   -306.10681    181563.75   -14759.776    923.13307   -15682.909   -475.10629    1908.7671     78.33949    23.704389    16.408639 
 5199800     227.9341   -381.18346    181563.75    -14703.42    937.61101   -15641.031   -724.81699    1908.6545    78.340122    23.704184    16.402451 
 5200000    227.30944   -396.48434    181563.75     -14705.8    935.04143   -15640.841   -738.16448    1911.0056    78.342665    23.705116    16.408918 
Loop time of 5961.95 on 64 procs for 5200000 steps with 9253 atoms

Performance: 753.579 ns/day, 0.032 hours/ns, 872.198 timesteps/s
100.0% CPU use with 64 MPI tasks x no OpenMP threads

MPI task timing breakdown:
Section |  min time  |  avg time  |  max time  |%varavg| %total
---------------------------------------------------------------
Pair    | 0.52116    | 1580.4     | 4635.3     |3615.2 | 26.51
Neigh   | 7.2089     | 214.55     | 495.59     |1178.4 |  3.60
Comm    | 178.63     | 1592.6     | 4356.8     |3349.5 | 26.71
Output  | 159.17     | 159.23     | 159.43     |   0.3 |  2.67
Modify  | 132.73     | 2353.3     | 5552       |4657.2 | 39.47
Other   |            | 61.95      |            |       |  1.04

Nlocal:    144.578 ave 291 max 0 min
Histogram: 16 8 0 8 0 0 0 2 18 12
Nghost:    960.984 ave 1328 max 657 min
Histogram: 13 3 1 5 18 0 12 4 0 8
Neighs:    0 ave 0 max 0 min
Histogram: 64 0 0 0 0 0 0 0 0 0
FullNghs:  15519.4 ave 35291 max 0 min
Histogram: 24 8 0 0 0 0 0 11 14 7

Total # of neighbors = 993242
Ave neighs/atom = 107.343
Neighbor list builds = 500548
Dangerous builds = 0
write_data 		${DIR}/data.${NAME}_run
write_data 		run_20/data.${NAME}_run
write_data 		run_20/data.ibeam_cooling_20_run
Total wall time: 1:39:34
