
### Dimensions ###


### IMPORT ATOMS ###
read_data ../Box_Setup/data.Ibeam_240K
Reading data file ...
  orthogonal box = (0.0000000 0.0000000 0.0000000) to (157.50400 36.487659 45.872046)
  10 by 2 by 4 MPI processor grid
  reading atoms ...
  9436 atoms
  reading velocities ...
  9436 velocities
  read_data CPU = 0.028 seconds
group water type 2
2716 atoms in group water
group graphite type 1
6720 atoms in group graphite


# Define potential
#
pair_style          sw
pair_coeff * * MLC_e.sw C mW

# Add velocity/set timestep
#

fix		1 graphite setforce 0.0 0.0 0.0
velocity 	graphite set 0.0 0.0 0.0
velocity            water create ${START_TEMP} ${SEED} rot yes dist gaussian
velocity            water create 240 ${SEED} rot yes dist gaussian
velocity            water create 240 9692 rot yes dist gaussian
timestep            5.0

# Define output
#
compute 1 water msd
compute 2 water temp


thermo	            100
thermo_style custom step c_2 press vol etotal ke pe c_1[4] density

# Neighbor lists
#
neigh_modify        delay 0 every 1 check yes


# Set fixes
#
fix                 2 water momentum 10 linear 1 1 1 rescale
fix                 3 all nve
fix                 4 water temp/csvr ${START_TEMP} ${START_TEMP} 500.0 928347
fix                 4 water temp/csvr 240 ${START_TEMP} 500.0 928347
fix                 4 water temp/csvr 240 240 500.0 928347

# Run 0.05 ns equilibration
#
dump                1 all custom 100 ${DIR}/eq.${NAME}.dump id type x y z vx vy vz
dump                1 all custom 100 run_10/eq.${NAME}.dump id type x y z vx vy vz
dump                1 all custom 100 run_10/eq.ibeam_cooling_10.dump id type x y z vx vy vz
run                 10000
Neighbor list info ...
  update every 1 steps, delay 0 steps, check yes
  max neighbors/atom: 2000, page size: 100000
  master list distance cutoff = 6.6747184
  ghost atom cutoff = 6.6747184
  binsize = 3.3373592, bins = 48 11 14
  1 neighbor lists, perpetual/occasional/extra = 1 0 0
  (1) pair sw, perpetual
      attributes: full, newton on
      pair build: full/bin/atomonly
      stencil: full/bin/3d
      bin: standard
Per MPI rank memory allocation (min/avg/max) = 3.597 | 4.372 | 4.790 Mbytes
Step c_2 Press Volume TotEng KinEng PotEng c_1[4] Density 
       0          240   -384.81349    263624.46   -25860.227    1942.2958   -27802.523            0   0.81656126 
     100    231.92937   -395.58149    263624.46   -25857.914     1876.981   -27734.895   0.82765863   0.81656126 
     200    238.27321   -338.99563    263624.46   -25886.239    1928.3211    -27814.56    1.2304602   0.81656126 
     300    234.99354   -215.61635    263624.46    -25862.81     1901.779   -27764.589    1.7148155   0.81656126 
     400    238.61736   -297.00496    263624.46   -25853.459    1931.1062   -27784.565      2.15056   0.81656126 
     500    239.02832   -309.52549    263624.46   -25816.761    1934.4321   -27751.193    2.6205477   0.81656126 
     600    246.48909   -177.69532    263624.46     -25742.7    1994.8114   -27737.512    3.1085742   0.81656126 
     700    241.66312   -254.86762    263624.46   -25755.286    1955.7553   -27711.042    3.5369734   0.81656126 
     800    251.29784   -300.01043    263624.46   -25736.845    2033.7281   -27770.573    3.8508533   0.81656126 
     900    242.14841    -347.4931    263624.46   -25757.365    1959.6827   -27717.048    4.2146883   0.81656126 
    1000    240.26684   -280.46422    263624.46   -25767.892    1944.4554   -27712.347     4.521001   0.81656126 
    1100    239.87438    -247.5144    263624.46   -25745.896    1941.2792   -27687.175    4.8014036   0.81656126 
    1200    239.27814   -170.89259    263624.46   -25754.567    1936.4539   -27691.021    5.1380071   0.81656126 
    1300    246.42707   -277.76863    263624.46   -25710.988    1994.3095   -27705.297    5.6217477   0.81656126 
    1400    237.57389   -387.24874    263624.46    -25749.74    1922.6616   -27672.402    5.8566083   0.81656126 
    1500    244.51538   -310.52997    263624.46   -25776.532    1978.8384   -27755.371    6.2060156   0.81656126 
    1600    240.97459   -267.04309    263624.46   -25761.074    1950.1831   -27711.257    6.6012311   0.81656126 
    1700    237.72336   -172.65695    263624.46   -25777.971    1923.8712   -27701.842    6.8968014   0.81656126 
    1800    247.67922   -298.70391    263624.46   -25756.808     2004.443   -27761.251    7.1666016   0.81656126 
    1900    243.19518   -435.18206    263624.46   -25720.256    1968.1541    -27688.41    7.6352054   0.81656126 
    2000    248.63296   -301.39956    263624.46   -25689.327    2012.1615   -27701.489    7.9610182   0.81656126 
    2100    234.70004   -268.52394    263624.46   -25784.298    1899.4038   -27683.702    8.3343644   0.81656126 
    2200    242.17552   -168.59346    263624.46   -25737.449    1959.9021   -27697.351    8.6395956   0.81656126 
    2300    245.31035   -249.58893    263624.46    -25704.63     1985.272   -27689.902     9.158171   0.81656126 
    2400    235.50066   -341.30234    263624.46   -25704.945    1905.8831   -27610.828    9.5754481   0.81656126 
    2500    237.76677   -397.82592    263624.46   -25717.089    1924.2226   -27641.311    10.063321   0.81656126 
    2600    236.83898   -237.63765    263624.46   -25729.992     1916.714   -27646.706    10.443828   0.81656126 
    2700    240.95837   -279.29332    263624.46   -25730.298    1950.0518    -27680.35     10.82374   0.81656126 
    2800    242.63248   -274.88163    263624.46   -25682.761    1963.6002   -27646.361    11.200282   0.81656126 
    2900     242.4926   -184.57841    263624.46   -25700.529    1962.4682   -27662.998    11.537027   0.81656126 
    3000    243.81059   -116.95173    263624.46   -25701.745    1973.1346   -27674.879    12.059439   0.81656126 
    3100    247.20113   -159.98145    263624.46   -25684.805    2000.5738   -27685.378    12.321147   0.81656126 
    3200    238.14199   -377.37897    263624.46   -25749.014    1927.2591   -27676.273    12.632911   0.81656126 
    3300     239.4559   -302.85472    263624.46   -25853.764    1937.8925   -27791.656    12.914805   0.81656126 
    3400    234.63557   -205.59603    263624.46   -25797.624    1898.8821   -27696.506     13.24045   0.81656126 
    3500    243.64256   -183.28324    263624.46   -25795.597    1971.7747   -27767.372    13.579983   0.81656126 
    3600    234.67751   -187.47608    263624.46   -25791.763    1899.2215   -27690.985    13.936988   0.81656126 
    3700    246.80641   -345.12661    263624.46   -25764.466    1997.3795   -27761.845    14.338764   0.81656126 
    3800    239.03662    -154.3748    263624.46    -25762.57    1934.4993   -27697.069    14.744351   0.81656126 
    3900    241.54667    -131.8954    263624.46   -25772.339    1954.8129   -27727.152    15.375627   0.81656126 
    4000    236.81339   -309.82283    263624.46   -25807.713    1916.5069    -27724.22    15.835819   0.81656126 
    4100    240.61223   -365.67802    263624.46   -25781.254    1947.2505   -27728.504    15.991057   0.81656126 
    4200    239.67267   -431.58482    263624.46   -25766.053    1939.6468     -27705.7    16.168183   0.81656126 
    4300     237.7022    -166.9252    263624.46   -25852.803    1923.6999   -27776.503    16.296192   0.81656126 
    4400     242.3546   -302.02242    263624.46   -25810.603    1961.3514   -27771.954    16.729394   0.81656126 
    4500    237.46774   -225.74155    263624.46   -25836.622    1921.8025   -27758.425    17.357838   0.81656126 
    4600    240.26635   -165.91602    263624.46   -25873.251    1944.4514   -27817.702    17.758359   0.81656126 
    4700    240.32432   -79.231797    263624.46   -25798.897    1944.9205   -27743.818    18.096283   0.81656126 
    4800    238.90332   -371.98434    263624.46   -25761.739    1933.4205    -27695.16    18.663723   0.81656126 
    4900    243.58879   -224.95378    263624.46   -25691.111    1971.3396    -27662.45    19.248509   0.81656126 
    5000    242.51214   -292.53409    263624.46   -25773.825    1962.6263   -27736.451    19.745806   0.81656126 
    5100    242.86203   -331.61911    263624.46   -25750.092     1965.458    -27715.55    20.310383   0.81656126 
    5200    239.61504   -333.71307    263624.46   -25785.148    1939.1804   -27724.329    20.464827   0.81656126 
    5300    236.48837   -153.01766    263624.46   -25846.772    1913.8765   -27760.649    20.659066   0.81656126 
    5400    238.97735   -239.50241    263624.46   -25818.792    1934.0196   -27752.811    20.960187   0.81656126 
    5500    240.36978   -364.12895    263624.46   -25816.349    1945.2884   -27761.638    21.227693   0.81656126 
    5600    233.66805    -218.6792    263624.46   -25844.057     1891.052   -27735.109    21.441064   0.81656126 
    5700    232.01956   -278.58561    263624.46   -25822.411    1877.7109   -27700.122     21.77527   0.81656126 
    5800    239.79322   -199.85365    263624.46   -25797.148    1940.6223    -27737.77    22.113441   0.81656126 
    5900    235.37916   -242.04065    263624.46   -25830.366    1904.8998   -27735.266    22.343459   0.81656126 
    6000    238.23137   -317.54744    263624.46   -25823.915    1927.9825   -27751.897    22.600882   0.81656126 
    6100    236.44593   -123.81234    263624.46   -25843.122    1913.5331   -27756.655    22.851956   0.81656126 
    6200     231.9459   -230.13527    263624.46   -25831.872    1877.1148   -27708.987    23.231411   0.81656126 
    6300     241.3082   -319.92619    263624.46   -25757.723     1952.883   -27710.606    23.401896   0.81656126 
    6400    237.41742   -231.64702    263624.46   -25804.754    1921.3953    -27726.15     24.01444   0.81656126 
    6500    237.66061   -212.32418    263624.46   -25810.523    1923.3634   -27733.886    24.669446   0.81656126 
    6600     241.7443   -322.99353    263624.46   -25823.487    1956.4122     -27779.9    24.985585   0.81656126 
    6700    235.37782    -161.1096    263624.46   -25846.686     1904.889   -27751.575     25.41839   0.81656126 
    6800    239.08091   -336.02126    263624.46   -25822.631    1934.8578   -27757.489    25.765964   0.81656126 
    6900     244.6676   -299.17094    263624.46   -25790.891    1980.0703   -27770.961    25.906967   0.81656126 
    7000     243.2585   -364.04077    263624.46   -25791.605    1968.6666   -27760.271    26.404098   0.81656126 
    7100    243.12526   -338.14767    263624.46   -25795.523    1967.5882   -27763.111    26.787191   0.81656126 
    7200    237.88977   -314.60377    263624.46   -25867.067    1925.2179   -27792.285    27.259648   0.81656126 
    7300    237.70556   -161.06387    263624.46   -25912.088    1923.7272   -27835.815    27.867169   0.81656126 
    7400    237.63411   -105.78737    263624.46   -25845.585    1923.1489   -27768.734    28.149419   0.81656126 
    7500    237.00573   -294.25087    263624.46   -25809.284    1918.0635   -27727.347    28.240639   0.81656126 
    7600    243.34684   -219.28619    263624.46   -25753.365    1969.3815   -27722.746     28.32639   0.81656126 
    7700    240.86121   -385.04984    263624.46   -25784.196    1949.2655   -27733.462    28.844408   0.81656126 
    7800    235.33174   -249.86219    263624.46   -25846.558    1904.5161   -27751.074    29.125548   0.81656126 
    7900    239.99288   -257.62298    263624.46   -25808.499    1942.2382   -27750.738    29.276676   0.81656126 
    8000    240.31586   -89.973799    263624.46   -25730.548    1944.8521     -27675.4    29.145652   0.81656126 
    8100    243.88761   -209.40552    263624.46   -25699.157    1973.7579   -27672.915    29.315707   0.81656126 
    8200    244.08464   -262.63805    263624.46   -25713.317    1975.3524   -27688.669     29.42284   0.81656126 
    8300    240.38434   -401.63811    263624.46   -25686.109    1945.4063   -27631.515     29.75541   0.81656126 
    8400    244.46969   -290.71261    263624.46   -25670.471    1978.4686   -27648.939    30.041773   0.81656126 
    8500    245.16453   -218.20997    263624.46   -25721.809    1984.0919     -27705.9     30.46622   0.81656126 
    8600    241.87667   -143.11805    263624.46   -25739.476    1957.4836    -27696.96    30.726088   0.81656126 
    8700    241.85539    -282.9998    263624.46   -25764.264    1957.3113   -27721.576    31.141818   0.81656126 
    8800     239.7781   -183.55977    263624.46   -25775.579       1940.5   -27716.079    31.761619   0.81656126 
    8900    240.02411   -296.47685    263624.46   -25796.099     1942.491    -27738.59    32.238993   0.81656126 
    9000    236.66772   -168.54108    263624.46   -25754.009    1915.3281   -27669.337    32.783926   0.81656126 
    9100    239.70875   -239.45768    263624.46   -25763.781    1939.9388    -27703.72    33.417586   0.81656126 
    9200    236.54147   -353.34369    263624.46   -25692.175    1914.3063   -27606.481    33.722629   0.81656126 
    9300    240.38082   -220.07069    263624.46   -25756.879    1945.3778   -27702.257    34.231473   0.81656126 
    9400    239.09829   -272.01153    263624.46   -25736.351    1934.9983   -27671.349    34.602911   0.81656126 
    9500     240.9075   -224.72701    263624.46   -25774.952    1949.6401   -27724.592    34.795039   0.81656126 
    9600    240.61618   -122.30636    263624.46    -25788.41    1947.2825   -27735.692    35.129859   0.81656126 
    9700    239.31573   -226.77243    263624.46     -25766.3    1936.7581   -27703.059    35.393542   0.81656126 
    9800    243.14577    -403.0891    263624.46   -25721.294    1967.7542   -27689.049    35.730376   0.81656126 
    9900    242.20139   -289.39205    263624.46   -25748.703    1960.1114   -27708.814    36.189035   0.81656126 
   10000    240.96761   -273.08574    263624.46    -25749.31    1950.1266   -27699.437     36.66629   0.81656126 
Loop time of 33.8731 on 80 procs for 10000 steps with 9436 atoms

Performance: 127.535 ns/day, 0.188 hours/ns, 295.219 timesteps/s
97.9% CPU use with 80 MPI tasks x no OpenMP threads

MPI task timing breakdown:
Section |  min time  |  avg time  |  max time  |%varavg| %total
---------------------------------------------------------------
Pair    | 0.00054121 | 7.8094     | 29.301     | 378.3 | 23.05
Neigh   | 0.00052214 | 0.2485     | 0.91563    |  62.6 |  0.73
Comm    | 0.013537   | 10.216     | 30.862     | 355.5 | 30.16
Output  | 0.17844    | 0.17867    | 0.18571    |   0.2 |  0.53
Modify  | 0.61508    | 15.277     | 33.561     | 384.9 | 45.10
Other   |            | 0.1431     |            |       |  0.42

Nlocal:        117.950 ave         373 max           0 min
Histogram: 36 1 17 6 0 0 0 0 2 18
Nghost:        754.725 ave        1265 max           0 min
Histogram: 12 0 0 4 0 23 17 0 11 13
Neighs:         0.00000 ave           0 max           0 min
Histogram: 80 0 0 0 0 0 0 0 0 0
FullNghs:      11527.1 ave       45061 max           0 min
Histogram: 50 10 0 0 0 0 0 2 10 8

Total # of neighbors = 922168
Ave neighs/atom = 97.728699
Neighbor list builds = 586
Dangerous builds = 0
write_data 	    ${DIR}/data.${NAME}_eq
write_data 	    run_10/data.${NAME}_eq
write_data 	    run_10/data.ibeam_cooling_10_eq
System init for write_data ...

undump              1
unfix               4



################################################
#######         Run Simulation         #########
################################################

reset_timestep      0
timestep	    10.0
log                 ${DIR}/log.run_${NAME}
log                 run_10/log.run_${NAME}
log                 run_10/log.run_ibeam_cooling_10
