
# Set production fixes - Nose/Hoover
#
fix                 4 water temp/csvr ${START_TEMP} ${END_TEMP} 500.0 928347
fix                 4 water temp/csvr 240 ${END_TEMP} 500.0 928347
fix                 4 water temp/csvr 240 227 500.0 928347


## divide "droplet" into core and surface
#region		core_reg cylinder z 135 135 44.6 20 INF units box
#region		surface_reg cylinder z 135 135 44.6 20 INF units box side out
#group		core dynamic all region core_reg
#group		surface dynamic all region surface_reg

## compute pressure core
#compute        peratom_core core stress/atom NULL
#compute        p_core core reduce sum c_peratom_core[1] c_peratom_core[2] c_peratom_core[3]
#variable       press_core equal -(c_p_core[1]+c_p_core[2]+c_p_core[3])/(3*1249982.5)


## compute pressure surface
#compute        peratom_surf surface stress/atom NULL
#compute        p_surf surface reduce sum c_peratom_surf[1] c_peratom_surf[2] #c_peratom_surf[3]
#variable       press_surf equal -(c_p_surf[1]+c_p_surf[2]+c_p_surf[3])/(3*42395)

## compute total pressure of drop
compute        peratom water stress/atom NULL
compute        p water reduce sum c_peratom[1] c_peratom[2] c_peratom[3]
variable       press equal -(c_p[1]+c_p[2]+c_p[3])/(3*58301)


# compute order parameter
compute        3 all orientorder/atom nnn NULL cutoff 3.5

# compute center of mass of bridge
compute 	4 water com

# Run simulation
thermo_style        custom step c_2 press vol etotal ke pe v_press c_1[4] c_4[*]
thermo              200
dump		     1 water custom 400 ${DIR}/prod.${NAME}.dump id type x y z vx vy vz c_3[*] c_peratom[*]
dump		     1 water custom 400 run_10/prod.${NAME}.dump id type x y z vx vy vz c_3[*] c_peratom[*]
dump		     1 water custom 400 run_10/prod.ibeam_cooling_10.dump id type x y z vx vy vz c_3[*] c_peratom[*]
run                 ${STEPS}
run                 5200000
Neighbor list info ...
  update every 1 steps, delay 0 steps, check yes
  max neighbors/atom: 2000, page size: 100000
  master list distance cutoff = 6.6747184
  ghost atom cutoff = 6.6747184
  binsize = 3.3373592, bins = 48 11 14
  2 neighbor lists, perpetual/occasional/extra = 1 1 0
  (1) pair sw, perpetual
      attributes: full, newton on
      pair build: full/bin/atomonly
      stencil: full/bin/3d
      bin: standard
  (2) compute orientorder/atom, occasional, copy from (1)
      attributes: full, newton on
      pair build: copy
      stencil: none
      bin: none
Per MPI rank memory allocation (min/avg/max) = 6.104 | 6.801 | 7.324 Mbytes
Step c_2 Press Volume TotEng KinEng PotEng v_press c_1[4] c_4[1] c_4[2] c_4[3] 
       0    240.96761   -273.08574    263624.46    -25749.31    1950.1266   -27699.437   -701.83932     36.66629    78.602107    18.376581    27.375222 
     200    240.03035   -233.48882    263624.46    -25769.68    1942.5414   -27712.221   -533.36824    38.928088    78.601571    18.373969    27.363117 
     400    236.21194    -331.9825    263624.46   -25735.352    1911.6394   -27646.991   -994.24457    40.592511    78.602905    18.375062    27.364276 
     600    236.89123   -268.50728    263624.46   -25634.213    1917.1369    -27551.35   -681.31964    42.834575    78.603963    18.373069    27.372034 
     800    237.43709   -362.88998    263624.46   -25643.907    1921.5544   -27565.461   -1142.6249    44.590744    78.603149    18.373437    27.382384 
    1000     248.9495   -256.03712    263624.46   -25719.484    2014.7232   -27734.208   -693.55999    45.511394    78.602396    18.373107     27.36053 
    1200    238.64892   -353.41231    263624.46   -25681.375    1931.3617   -27612.737   -1079.4513    46.461967    78.602731    18.370103    27.362642 
    1400    241.41163   -371.28153    263624.46   -25665.336      1953.72   -27619.056   -1119.3158    48.438851    78.601781    18.369471    27.358085 
    1600    241.61058   -186.38744    263624.46     -25709.3    1955.3301    -27664.63   -308.70073    50.682565    78.601628    18.368148    27.352414 
    1800    244.34758   -157.64815    263624.46   -25624.795    1977.4804   -27602.275    -191.7959    51.716815    78.601604    18.368434    27.366217 
    2000    242.73065   -173.58226    263624.46   -25587.752    1964.3947   -27552.147   -263.28899    53.873967    78.602102    18.367846    27.373394 
    2200    235.18405   -266.62431    263624.46   -25639.405    1903.3208   -27542.726   -678.51867    55.152571    78.602675    18.365492    27.372601 
    2400    241.99053   -192.08422    263624.46   -25610.822     1958.405   -27569.227    -352.0562    57.762578    78.602641    18.363247    27.369371 
    2600    239.99888   -207.53918    263624.46   -25641.791    1942.2868   -27584.078   -427.92225    59.138637    78.602518     18.36297    27.372028 
    2800    244.35603   -376.69067    263624.46   -25564.256    1977.5487   -27541.804   -1158.3072    60.131546    78.601133    18.362399    27.347449 
    3000    236.56271   -325.28362    263624.46   -25568.137    1914.4782   -27482.615   -981.18291    62.259373    78.600916    18.361945    27.352894 
    3200    240.78231    -100.8359    263624.46   -25692.147     1948.627   -27640.774    44.029167    64.312371    78.600408    18.362565    27.358375 
    3400    235.90157   -333.56584    263624.46   -25706.063    1909.1276   -27615.191   -1006.3683    64.829853    78.601152    18.364744    27.356258 
    3600    238.23602   -136.77415    263624.46   -25699.579    1928.0201   -27627.599    -70.56762    66.267636    78.601503    18.366145    27.360335 
    3800    242.37594   -279.46368    263624.46   -25632.312    1961.5241   -27593.837   -733.92274    67.232254     78.60169     18.36893     27.37918 
    4000    242.29929   -290.77329    263624.46   -25669.118    1960.9037   -27630.022   -791.07133    69.050369     78.60048    18.368036    27.382103 
    4200    240.08436   -178.91941    263624.46   -25626.311    1942.9785    -27569.29   -270.80436    70.353097    78.601138    18.367791    27.375667 
    4400    236.84926   -198.53934    263624.46   -25659.241    1916.7972   -27576.038   -371.67758    71.498591    78.601787    18.366835    27.374565 
    4600     235.7855   -176.09133    263624.46   -25766.106    1908.1883   -27674.295   -257.65516    72.857813    78.602867    18.365035    27.388193 
    4800    241.89241   -284.90669    263624.46   -25625.105    1957.6109   -27582.716   -722.95583    73.897106    78.603427    18.363261    27.385845 
    5000    234.24727   -263.37297    263624.46   -25694.463    1895.7396   -27590.203   -678.72127    76.130506    78.603913    18.360906    27.370538 
    5200    239.63295   -439.99654    263624.46   -25696.348    1939.3253   -27635.674   -1456.7911    78.370744    78.603507    18.357666    27.338642 
    5400    239.12852   -235.27303    263624.46   -25701.113     1935.243   -27636.356   -550.82987     80.04766    78.603483    18.354522    27.369312 
    5600    239.56942   -370.68206    263624.46   -25706.068    1938.8112   -27644.879   -1123.7339    81.740411    78.604668    18.353139    27.357426 
    5800    237.68323    -176.8403    263624.46   -25662.745    1923.5464   -27586.291   -302.69139      82.3235    78.604203    18.353886    27.346991 
    6000    237.14697   -174.73708    263624.46   -25723.721    1919.2065   -27642.927   -255.45046    84.226882     78.60344    18.352708    27.328478 
    6200    234.33152   -458.13084    263624.46   -25703.007    1896.4214   -27599.428   -1499.9218     86.33196     78.60329    18.352019    27.331902 
    6400    240.29249   -302.74344    263624.46   -25710.371    1944.6629   -27655.034   -873.04152    88.737438     78.60448    18.351717    27.335288 
    6600    238.25954   -267.11497    263624.46    -25741.96    1928.2104   -27670.171   -693.09321     90.32376    78.604178    18.352516    27.323698 
    6800    241.05073    -296.6269    263624.46   -25737.621    1950.7992   -27688.421   -815.73554    91.864624    78.605965    18.354107    27.323574 
    7000    236.46699    -262.1103    263624.46   -25669.289    1913.7035   -27582.993   -661.80856    93.344874    78.606026    18.354732    27.315932 
    7200    230.61787   -331.34644    263624.46   -25785.913    1866.3672    -27652.28    -964.2394    93.885631    78.608086    18.355687    27.317068 
    7400    239.96845    -246.5027    263624.46   -25725.262    1942.0405   -27667.303    -596.0289    95.489005    78.609547    18.355879    27.321038 
    7600    246.86319   -351.00373    263624.46   -25621.587     1997.839   -27619.426   -1037.6927    97.709826    78.608972     18.35519    27.293524 
    7800    235.36576   -150.54938    263624.46   -25769.356    1904.7914   -27674.147   -121.71391    99.926281    78.609584    18.356077    27.281067 
    8000    240.59556   -314.35176    263624.46   -25613.775    1947.1157    -27560.89    -908.5139    102.11413    78.610482    18.354868    27.282796 
    8200    249.24279   -284.85955    263624.46   -25644.408    2017.0968   -27661.504   -731.77602     102.7632    78.611875    18.354386    27.302478 
    8400    238.30621   -275.59023    263624.46   -25597.732    1928.5882    -27526.32   -733.97572     103.9382    78.614278    18.351674    27.308301 
    8600    240.57355   -286.18302    263624.46   -25654.926    1946.9375   -27601.864   -750.46481    107.35351    78.614134    18.349793    27.306958 
    8800    243.99347   -211.06395    263624.46   -25708.627    1974.6146   -27683.242   -438.15217    109.60925    78.614278    18.348888    27.304144 
    9000    238.03452   -307.59221    263624.46   -25711.562    1926.3894   -27637.952   -871.07277    111.87367    78.614735    18.349492    27.311354 
    9200    239.66455   -362.25626    263624.46   -25641.264    1939.5811   -27580.845    -1128.068     113.1773    78.615483    18.349786    27.319175 
    9400    241.85521   -133.98953    263624.46   -25704.312    1957.3099   -27661.622   -72.922877    115.69803     78.61555    18.351697    27.332273 
    9600    241.69149    -279.4923    263624.46   -25721.024    1955.9849   -27677.009   -745.83916    116.50554    78.613942    18.350662    27.343268 
    9800    244.99953   -201.60177    263624.46   -25619.923    1982.7565    -27602.68   -399.68327    116.61134    78.613917    18.350703    27.337327 
   10000    245.62931   -161.67624    263624.46   -25627.789    1987.8533   -27615.642    -242.8142    117.40247    78.615892    18.349738    27.341298 
   10200    244.54736    -127.7331    263624.46   -25552.577    1979.0972   -27531.675   -88.267058    120.16047     78.61456    18.349097    27.343118 
   10400    238.93378   -463.92028    263624.46   -25574.572    1933.6671    -27508.24    -1549.961    122.22531     78.61282    18.348129    27.343832 
   10600     240.4552   -254.97304    263624.46   -25660.738    1945.9798   -27606.718   -604.22063    123.98482    78.613692    18.350263    27.335506 
   10800    238.82504   -268.75431    263624.46   -25738.597     1932.787   -27671.384   -671.22982    125.78095    78.613177    18.348162    27.336621 
   11000    240.52618   -371.71472    263624.46   -25720.166    1946.5541    -27666.72   -1088.6928    126.83733    78.614847    18.349381    27.335934 
   11200    236.42648    -244.7927    263624.46     -25769.3    1913.3757   -27682.676   -597.73107    127.31236    78.616368    18.351425     27.33598 
   11400    244.44251   -158.39531    263624.46   -25724.414    1978.2486   -27702.663   -204.31306    128.91288    78.617661    18.352409    27.311655 
   11600    243.33663   -198.18162    263624.46     -25660.4    1969.2989   -27629.699   -354.68528    129.99372    78.618017    18.352074    27.328187 
   11800    243.40409    -165.3699    263624.46   -25616.619    1969.8448   -27586.464   -263.25104    130.85678    78.616871    18.352248     27.33958 
   12000    245.90683   -286.11235    263624.46    -25583.73    1990.0992    -27573.83   -756.42101    132.13459    78.617497    18.353889    27.347309 
   12200    244.77409   -276.48931    263624.46   -25629.217     1980.932   -27610.149   -709.40472    134.65689    78.618591    18.355396    27.348174 
   12400    239.41635   -257.48456    263624.46   -25714.562    1937.5724   -27652.134   -601.01999    136.96412     78.61889    18.357182    27.365275 
   12600    240.37291   -383.34867    263624.46   -25644.233    1945.3138   -27589.547     -1155.36    139.77823    78.619872     18.35786    27.365989 
   12800    243.41163    -191.5497    263624.46   -25655.942    1969.9058   -27625.848   -313.75011    141.30817    78.619442     18.35529    27.355778 
   13000    239.78463   -211.56006    263624.46   -25698.678    1940.5529   -27639.231    -445.2986    143.19242    78.617642    18.354471    27.355919 
   13200    236.31267   -314.38343    263624.46   -25719.072    1912.4547   -27631.527   -906.47661    144.35619    78.618675    18.355094    27.371565 
   13400    233.98157   -238.65867    263624.46   -25782.901    1893.5893    -27676.49   -581.40121    146.72466    78.617751    18.354084    27.375953 
   13600    235.18377   -354.14542    263624.46   -25717.435    1903.3186   -27620.753   -1055.2457    147.83314      78.6177     18.35356    27.372392 
   13800    239.27523   -363.72357    263624.46   -25639.356    1936.4303   -27575.786   -1077.2015    148.95968    78.617317    18.351658    27.382191 
   14000    242.17509   -244.51856    263624.46   -25600.978    1959.8986   -27560.877   -608.23541    150.48803    78.615374    18.350273    27.373713 
   14200    241.73475   -381.56787    263624.46   -25656.726     1956.335   -27613.061   -1205.0855    152.07409    78.615048    18.348497    27.379152 
   14400    243.39667   -208.71448    263624.46   -25658.949    1969.7847   -27628.734   -419.38711    154.06621    78.614809    18.347718    27.372908 
   14600    243.67995   -301.22095    263624.46    -25701.25    1972.0773   -27673.327   -858.62759    156.34599     78.61389    18.348029    27.368507 
   14800    240.93932   -265.38162    263624.46   -25686.904    1949.8976   -27636.802   -646.28637    158.22547    78.613927    18.347511    27.381422 
   15000    241.37935   -240.33409    263624.46   -25722.868    1953.4588   -27676.327   -583.29006    159.47841    78.613484     18.34728    27.363386 
   15200     239.5091   -214.23247    263624.46   -25693.628     1938.323   -27631.951   -478.25868    159.62211    78.613688     18.34914    27.355263 
   15400    244.14905   -80.035098    263624.46   -25783.137    1975.8737    -27759.01    160.50943    159.61461     78.61421    18.352619    27.349693 
   15600    243.74952   -216.93559    263624.46   -25669.476    1972.6403   -27642.116   -410.12273    160.75954    78.612015    18.354272     27.34976 
   15800    240.38777   -360.45384    263624.46   -25658.069     1945.434   -27603.503   -1106.9721    161.18424    78.610217    18.354902     27.32251 
   16000    235.64455   -174.31128    263624.46   -25677.326    1907.0476   -27584.373   -280.81481    161.40077    78.610719    18.356826     27.31566 
   16200      246.348   -222.93162    263624.46   -25693.673    1993.6696   -27687.343   -506.39997    162.01237    78.611674    18.356998    27.302276 
   16400    236.64498   -189.63387    263624.46   -25704.066     1915.144    -27619.21   -350.80283     162.8462    78.612233    18.357918    27.312946 
   16600    237.27134   -404.42676    263624.46   -25612.817    1920.2131    -27533.03   -1300.0537    163.18896    78.612268    18.359003    27.314594 
   16800    239.86337   -275.20346    263624.46   -25633.403    1941.1901   -27574.593   -701.35379     163.7701    78.612592    18.361908    27.326641 
   17000    238.72961   -374.30871    263624.46    -25755.66    1932.0147   -27687.675   -1211.8062    165.87912    78.613121    18.362254    27.340934 
   17200    233.91354   -232.86363    263624.46   -25723.857    1893.0387   -27616.896   -525.83875    166.81992    78.612546    18.361662    27.345496 
   17400    234.61891   -328.08826    263624.46   -25817.449    1898.7472   -27716.196   -994.78991    167.56959    78.611771    18.360873     27.33809 
   17600    237.90255   -312.55002    263624.46   -25711.034    1925.3214   -27636.355   -908.48032    168.58885    78.612683    18.362129    27.342173 
   17800    240.18306   -319.97457    263624.46   -25716.601    1943.7773   -27660.378   -912.04543    169.31706    78.611882     18.36304    27.318846 
   18000    242.92053   -192.71897    263624.46   -25688.184    1965.9314   -27654.115   -358.32114    170.40813    78.612915    18.361877    27.304564 
   18200    238.73512   -170.91941    263624.46   -25701.107    1932.0593   -27633.166   -303.38514    171.47658    78.614263    18.362715    27.303615 
   18400    232.57689    -537.2511    263624.46   -25659.668    1882.2214   -27541.889   -1895.4116    172.54744    78.614152    18.364919    27.324326 
   18600    244.66763   -71.600151    263624.46   -25663.893    1980.0705   -27643.963    214.86417    173.50836    78.613376    18.364799    27.318499 
   18800    243.20834   -240.44334    263624.46   -25752.383    1968.2606   -27720.643   -549.02627    175.63419    78.614612     18.36503    27.312136 
   19000        240.1   -275.41811    263624.46   -25703.433    1943.1051   -27646.538   -679.05942     176.7042    78.614016    18.368171    27.316748 
   19200    240.32322   -225.27418    263624.46   -25723.653    1944.9116   -27668.564   -508.88259     177.8569    78.614586    18.370716    27.323028 
   19400    242.53198   -301.29039    263624.46   -25657.932    1962.7868   -27620.718   -844.11878    180.36051    78.615907    18.370113    27.310509 
   19600    238.69991   -155.26629    263624.46   -25700.454    1931.7743   -27632.228   -121.87549    181.83296    78.615682    18.371427    27.308586 
   19800    241.81311   -401.27956    263624.46   -25699.863    1956.9691   -27656.832   -1283.5041    182.55146    78.616019    18.372737    27.301392 
   20000    240.09191     -315.515    263624.46   -25734.322    1943.0396   -27677.362   -903.52823    184.05906    78.616207    18.371753    27.301057 
   20200    235.73407   -255.08889    263624.46   -25826.147    1907.7721   -27733.919   -642.27695    184.30617    78.614336    18.371651    27.292362 
   20400    239.52438   -499.87904    263624.46    -25701.48    1938.4467   -27639.927   -1747.9982    185.31893    78.613925    18.372547    27.303975 
   20600    230.70587   -270.24784    263624.46   -25768.015    1867.0793   -27635.094   -708.79778    186.48825    78.615466    18.374561    27.302893 
   20800    242.18778   -251.85029    263624.46   -25658.318    1960.0013   -27618.319    -651.6114    188.55011    78.616144     18.37356    27.298013 
   21000    238.94626    -220.0581    263624.46   -25671.077     1933.768   -27604.845   -466.65571    190.29075    78.617389    18.371676    27.287922 
   21200    239.67138   -218.11242    263624.46   -25600.882    1939.6363   -27540.518   -471.74096    191.44466     78.61643    18.370144    27.282026 
   21400    240.79917   -272.22436    263624.46   -25652.466    1948.7634   -27601.229   -696.67962    193.18308    78.616048    18.368789    27.276718 
   21600    243.83666   -197.27283    263624.46   -25532.254    1973.3455   -27505.599   -387.79823    195.83299    78.615986    18.369286    27.257343 
   21800    239.82985   -122.61084    263624.46   -25650.967    1940.9188   -27591.886   -34.595947      196.703    78.616179    18.366956    27.244176 
   22000    236.29959   -273.08248    263624.46    -25742.84    1912.3488   -27655.189    -720.5317    198.14106    78.615094    18.366769    27.247746 
   22200    236.84912   -259.56546    263624.46   -25790.878    1916.7961   -27707.674   -626.11664    199.39387    78.615966    18.365402    27.256724 
   22400    242.96445   -226.54646    263624.46   -25659.238    1966.2868   -27625.524    -520.9383    200.09345    78.616321    18.363881    27.246865 
   22600    240.11007   -319.16372    263624.46   -25700.618    1943.1866   -27643.805   -932.45567    202.55407    78.615914    18.362788    27.234367 
   22800    236.16959   -287.33351    263624.46   -25661.695    1911.2967   -27572.992   -783.53519    204.13229    78.615942    18.362189    27.224559 
   23000    239.77119   -324.07144    263624.46   -25719.884    1940.4441   -27660.328   -937.42643    206.86656    78.615015    18.362837    27.225113 
   23200    242.92008   -327.28006    263624.46   -25655.084    1965.9277   -27621.012   -958.83288    207.51812    78.613763    18.362344    27.217142 
   23400    238.06786   -224.60093    263624.46   -25663.323    1926.6592   -27589.982   -490.76682    207.37106    78.613826    18.364621    27.234559 
   23600    244.26315   -464.82078    263624.46   -25602.223    1976.7971    -27579.02   -1557.7332    209.84652    78.614516    18.365306    27.215638 
   23800    243.32586   -233.73783    263624.46   -25648.734    1969.2116   -27617.945   -508.28683    210.21972    78.613241    18.366181    27.207443 
   24000    241.44959   -223.39238    263624.46   -25687.834    1954.0272   -27641.861   -513.63501    212.51474    78.612232    18.365869    27.198661 
   24200    241.55687   -246.33042    263624.46   -25676.148    1954.8955   -27631.043   -599.19577    214.01409    78.610391    18.366166    27.178898 
   24400    234.85602   -233.69237    263624.46   -25711.975    1900.6661   -27612.641   -493.54037    214.99498    78.610503    18.363813    27.154536 
   24600    235.44057   -196.03969    263624.46   -25765.196    1905.3968   -27670.592   -370.46409    216.47854    78.610331    18.362807    27.172276 
   24800    236.55461    -260.8998    263624.46   -25728.164    1914.4126   -27642.576   -633.61692    217.49303    78.611568    18.363621    27.184884 
   25000    241.90556   -196.19902    263624.46   -25727.545    1957.7173   -27685.263   -363.69047    219.18489    78.609904    18.364601    27.191398 
   25200    233.06583   -225.72676    263624.46   -25842.478    1886.1783   -27728.657    -495.7141    219.40559    78.611479    18.363649    27.191758 
   25400     239.9207   -136.89034    263624.46   -25726.114    1941.6541   -27667.768   -119.10146    221.87173    78.612612     18.36404    27.190675 
   25600     244.1802    -323.8658    263624.46    -25603.53    1976.1258   -27579.655   -967.71975    223.73366    78.612306    18.365573    27.191038 
   25800    245.08722   -357.79143    263624.46   -25593.013    1983.4662   -27576.479   -1092.0825    225.51939    78.613752    18.366661    27.184468 
   26000    245.08378   -253.58163    263624.46   -25654.032    1983.4384    -27637.47   -571.48265    226.27632    78.612794    18.367025    27.173359 
   26200    240.12021   -66.989453    263624.46   -25724.328    1943.2687   -27667.596    243.84646    227.87887    78.613329    18.368355    27.164956 
   26400    236.03213   -441.00043    263624.46   -25761.704    1910.1843   -27671.888   -1495.4643    229.24437    78.612537    18.370842    27.143556 
   26600    241.97174   -343.30843    263624.46     -25637.3    1958.2529   -27595.553   -1028.3387    230.98496    78.612835     18.37104    27.121932 
   26800    238.19882   -326.04508    263624.46   -25699.947    1927.7191   -27627.666   -952.92785    233.45107    78.611093    18.370104    27.110382 
   27000    241.12641    -349.1987    263624.46   -25720.197    1951.4118   -27671.609   -1082.6071    234.54629    78.611964    18.372317    27.107447 
   27200    242.14622   -222.81906    263624.46   -25730.352     1959.665   -27690.017   -522.01514    235.85237    78.610052    18.374258     27.12023 
   27400    244.30595   -317.99374    263624.46   -25692.179    1977.1435   -27669.323   -907.66719    237.46453    78.611992    18.375695    27.115497 
   27600    234.14948   -376.01538    263624.46   -25834.342    1894.9482    -27729.29   -1195.2818    238.40743    78.613127    18.376129    27.125564 
   27800    246.45438   -129.00934    263624.46   -25661.166    1994.5305   -27655.696   -68.130572     240.6513    78.613611    18.375679    27.130832 
   28000    237.57878   -316.56511    263624.46   -25805.628    1922.7011   -27728.329   -884.36844    242.26987    78.613826     18.37729    27.136868 
   28200     239.0497   -297.82299    263624.46   -25753.471    1934.6052   -27688.076   -837.36051    242.40239    78.615099    18.378396    27.140145 
   28400    239.27768    -279.2457    263624.46   -25781.519    1936.4502   -27717.969   -740.05186    243.45745    78.615368    18.380732    27.149249 
   28600     235.9142   -138.22773    263624.46   -25779.922    1909.2299   -27689.152   -99.920648    243.88253    78.615038    18.380308    27.148072 
   28800    239.90363   -74.968339    263624.46   -25768.149    1941.5159   -27709.665     173.1142    245.65633    78.613982    18.381746     27.14466 
   29000    242.40243   -331.88463    263624.46   -25702.055    1961.7385   -27663.793   -983.02618    246.58127     78.61512    18.381774    27.140435 
   29200    245.00943   -266.40202    263624.46   -25659.041    1982.8366   -27641.878   -683.99915    246.14749    78.616485    18.383049    27.140756 
   29400    244.43035   -316.51948    263624.46   -25720.567    1978.1502   -27698.718   -817.26229    246.85678    78.617466    18.384551    27.148739 
   29600    244.00668   -133.58011    263624.46   -25684.228    1974.7215   -27658.949    -146.4074    247.76423    78.618979    18.384435    27.165802 
   29800    233.02422   -279.35548    263624.46   -25813.932    1885.8415   -27699.773   -710.21669    247.69955    78.618948      18.3821    27.181828 
   30000    233.61336   -337.81633    263624.46   -25840.504    1890.6094   -27731.113   -1018.4234    248.40516    78.618497    18.381312    27.189593 
   30200    233.47032   -181.31901    263624.46   -25771.184    1889.4518   -27660.636   -304.10041    249.79678    78.617465    18.380641     27.16157 
   30400    245.12655   -209.18454    263624.46   -25710.663    1983.7844   -27694.447   -368.37191    251.94365    78.614893    18.380005    27.156874 
   30600    243.40847   -265.80941    263624.46   -25763.138    1969.8802   -27733.018   -651.01065    252.47798    78.613341    18.379518    27.155629 
   30800    238.27829   -278.69426    263624.46   -25745.509    1928.3622   -27673.871   -768.28344    254.08567    78.612519     18.38057    27.144007 
   31000    237.62952   -231.98887    263624.46   -25732.339    1923.1117    -27655.45   -536.15071    256.66168    78.611252     18.38021    27.147071 
   31200    244.28244    -373.8035    263624.46   -25755.174    1976.9532   -27732.128   -1202.0931    260.36721    78.610101    18.379593    27.161854 
   31400    236.90076   -297.82989    263624.46   -25737.725     1917.214   -27654.939   -808.90856    261.13449    78.608745    18.380598    27.159656 
   31600    245.58871   -356.18156    263624.46   -25696.223    1987.5247   -27683.748   -1070.4205    262.40941    78.608233    18.379554    27.161243 
   31800    241.75435   -157.52812    263624.46   -25643.219    1956.4936   -27599.713   -183.20476    262.63217    78.606969    18.378779    27.161471 
   32000     239.9927   -349.02721    263624.46   -25700.823    1942.2368    -27643.06   -1032.4575    264.11838     78.60709    18.379051    27.165918 
   32200    234.38419   -211.98911    263624.46   -25792.496    1896.8476   -27689.343    -444.3058    263.99984    78.605037    18.378586    27.182407 
   32400    233.62427    -290.0248    263624.46   -25746.492    1890.6977    -27637.19   -807.46595    265.65701    78.604811    18.378737     27.20439 
   32600    237.84225   -283.35755    263624.46   -25656.565    1924.8334   -27581.398    -805.5476    267.83802    78.603224    18.379472     27.21803 
   32800    234.96404    -214.0799    263624.46    -25651.16    1901.5403     -27552.7    -442.9007    268.95735    78.603172    18.381613    27.239405 
   33000    235.79016   -229.44405    263624.46   -25645.373    1908.2261   -27553.599    -518.5127    271.16645    78.603954    18.382551    27.243562 
   33200    243.83247   -243.10714    263624.46   -25710.332    1973.3116   -27683.644   -597.65826    272.21944    78.605092    18.383942    27.250601 
   33400    238.02433   -353.95313    263624.46   -25717.092    1926.3069   -27643.399   -1085.3086    276.33683    78.606099    18.384032    27.238129 
   33600    238.05589   -311.76794    263624.46   -25773.049    1926.5624   -27699.611   -917.40602    276.77794     78.60578    18.384298     27.25433 
   33800    239.79153   -413.17418    263624.46    -25580.46    1940.6087   -27521.069   -1379.5896    279.02543    78.606443    18.384519    27.259485 
   34000    233.68809    -233.0694    263624.46   -25708.107    1891.2142   -27599.321   -493.82875    279.95514    78.606642    18.384781     27.27317 
   34200    236.77622   -217.18216    263624.46   -25704.709    1916.2061   -27620.915   -472.38261    279.96918    78.606686    18.388211    27.283051 
   34400    233.70539   -305.00494    263624.46   -25711.667    1891.3542   -27603.021    -866.2596    282.08762    78.607045    18.388467    27.271419 
   34600    241.07586   -319.95466    263624.46   -25609.221    1951.0027   -27560.223   -929.04811    286.48818    78.607061    18.386372    27.253063 
   34800    237.10452   -327.89353    263624.46   -25701.904     1918.863   -27620.767   -949.15737    288.23685    78.607078    18.384904    27.254274 
   35000     242.2008   -186.71977    263624.46   -25709.497    1960.1067   -27669.604    -348.2368    288.33997    78.607941    18.384932    27.255954 
   35200    242.41801   -232.87583    263624.46   -25668.308    1961.8645   -27630.173   -544.62743    290.05502    78.608979    18.386387    27.242106 
   35400    237.33322   -320.71071    263624.46   -25717.616    1920.7139    -27638.33   -965.20502    292.45332    78.608759    18.389322    27.240439 
   35600    237.28183   -263.83063    263624.46   -25717.198    1920.2979   -27637.496   -686.47229    292.46352    78.608242    18.389481    27.238094 
   35800    246.32187   -193.04849    263624.46   -25572.508    1993.4581   -27565.966   -350.18351    293.80303    78.607679     18.38821    27.254613 
   36000    236.94961   -217.04851    263624.46   -25713.486    1917.6093   -27631.096   -437.72138    295.24354    78.607599    18.388441    27.242675 
   36200    240.37264   -164.77727    263624.46   -25729.417    1945.3116   -27674.729   -208.01231    297.60575    78.606283    18.386648    27.228387 
   36400     236.6742   -355.79338    263624.46   -25732.793    1915.3805   -27648.173   -1126.3762    301.54478    78.606304    18.384909    27.220476 
   36600    233.97838   -171.32066    263624.46    -25718.81    1893.5634   -27612.373   -277.50202    302.81286    78.607494    18.384043    27.204732 
   36800    238.40156   -252.12607    263624.46   -25788.923    1929.3598   -27718.283   -620.28963    302.91172    78.606415    18.383468    27.222853 
   37000    234.56379   -361.22664    263624.46    -25693.14    1898.3011   -27591.441    -1155.248    304.13014    78.606313    18.383878    27.223237 
   37200    237.70168   -143.59399    263624.46   -25763.464    1923.6958   -27687.159   -99.898496    304.89792    78.607285    18.384194    27.238129 
   37400    242.53454    -134.3858    263624.46   -25800.605    1962.8076   -27763.412   -65.723614    305.15272    78.606633    18.383294    27.235019 
   37600    237.65358    -194.2229    263624.46   -25778.011    1923.3065   -27701.317   -381.40495      307.927    78.607102    18.384369    27.252116 
   37800    236.73205   -330.14027    263624.46   -25849.276    1915.8487   -27765.124   -977.12541    309.77899    78.607161    18.385837    27.263169 
   38000    239.51958    -268.0263    263624.46   -25723.413    1938.4078    -27661.82    -689.6446    310.76897    78.605977    18.387964    27.274572 
   38200    241.55583   -234.85071    263624.46     -25738.2     1954.887   -27693.087   -549.81658     310.8917    78.606444     18.38947    27.290376 
   38400    235.75647   -246.11398    263624.46   -25712.359    1907.9534   -27620.313   -592.66669    311.61507    78.607131    18.388009    27.299463 
   38600    244.90863   -280.15918    263624.46   -25711.677    1982.0209   -27693.698   -757.47549    313.72917    78.605928    18.386814    27.300684 
   38800    236.93234   -259.60244    263624.46   -25787.966    1917.4696   -27705.435   -677.85526    313.36682    78.607441    18.386258    27.309947 
   39000    243.86446   -176.37909    263624.46   -25685.014    1973.5705   -27658.585   -330.25678    315.07325    78.608285    18.387578    27.318697 
   39200    236.66096   -361.70585    263624.46   -25804.077    1915.2733   -27719.351   -1118.6788    317.82863    78.607568    18.389068    27.295945 
   39400    242.51515   -135.90498    263624.46   -25695.039    1962.6507    -27657.69   -64.224877    317.72579    78.608345    18.390915    27.293138 
   39600    239.53887   -69.237643    263624.46   -25690.088    1938.5639   -27628.652     243.3743    318.33416    78.609225    18.392124    27.299217 
   39800    235.95721   -255.12711    263624.46   -25748.184     1909.578   -27657.762   -567.38413    319.36776    78.607727     18.39325    27.302608 
   40000    243.17209   -292.49997    263624.46   -25777.776    1967.9672   -27745.743   -787.12143    320.68314    78.608716    18.394152    27.314101 
   40200    239.81635   -357.49879    263624.46   -25751.893    1940.8096   -27692.702    -1125.702    323.57361     78.60803    18.395172    27.303771 
   40400    236.19742   -255.86356    263624.46   -25804.792    1911.5219   -27716.314   -618.96256    324.02723    78.606117    18.397371    27.300231 
   40600     239.2202   -157.29888    263624.46   -25756.962     1935.985   -27692.947   -213.83678    324.74393    78.606572     18.39988    27.317697 
   40800    239.17455   -199.80825    263624.46   -25717.641    1935.6155   -27653.256   -421.22176    326.18477    78.606397    18.401632     27.30416 
   41000    242.54992   -315.48145    263624.46   -25755.735     1962.932   -27718.667   -872.52776    328.05046      78.6036    18.403653    27.288757 
   41200    237.98584    -233.6585    263624.46   -25693.191    1925.9954   -27619.187   -524.43374    328.21233    78.602428     18.40462    27.282227 
   41400    241.39112   -310.59734    263624.46   -25783.051     1953.554   -27736.605   -867.70114    330.12168    78.602981    18.406275    27.287138 
   41600     243.6829   -344.77481    263624.46   -25770.228    1972.1011    -27742.33   -1058.3714    332.75745    78.600402    18.407681    27.298134 
   41800    239.51472   -283.74675    263624.46   -25763.688    1938.3685   -27702.057   -756.11645    334.76844    78.599574    18.406423    27.277318 
   42000    236.93025   -336.30922    263624.46   -25807.301    1917.4526   -27724.754   -969.84802    334.35302    78.599204    18.406827    27.291116 
   42200    241.58121   -197.31116    263624.46   -25854.935    1955.0924   -27810.027   -330.96793    334.07657    78.600815    18.407872    27.293887 
   42400    240.02843   -329.02482    263624.46   -25896.455    1942.5259   -27838.981   -949.80655    336.17141    78.600023    18.407542    27.284399 
   42600    238.55118   -308.78619    263624.46   -25855.853    1930.5707   -27786.424    -880.5096     336.5536    78.599577    18.406774    27.286438 
   42800    238.69734   -146.72302    263624.46   -25842.464    1931.7535   -27774.218   -143.40561    336.15264    78.599476    18.407535    27.267758 
   43000     242.1645   -453.64334    263624.46   -25831.106    1959.8129   -27790.918   -1504.4459     339.7225    78.599266    18.409236     27.26102 
   43200    246.63292   -314.14722    263624.46   -25819.885    1995.9754    -27815.86    -823.1216    338.70642    78.598012    18.407748      27.2684 
   43400    237.92077   -229.25585    263624.46   -25820.411    1925.4689    -27745.88   -491.12303    339.85088       78.597    18.406977    27.260797 
   43600    240.11477   -275.54685    263624.46   -25809.054    1943.2247   -27752.279   -719.42419    341.69115    78.595902    18.408636    27.282773 
   43800    237.88684    -144.6141    263624.46   -25840.427    1925.1942   -27765.621   -126.79052    342.84402    78.595877    18.408691    27.276006 
   44000     237.2809   -294.46757    263624.46   -25865.714    1920.2904   -27786.005   -802.10138    344.98374    78.595928    18.410712     27.28167 
   44200    242.43091   -117.54635    263624.46   -25771.116    1961.9689   -27733.085    24.010101    346.74891    78.595815    18.410297    27.298673 
   44400    234.27638   -276.38715    263624.46   -25782.868    1895.9752   -27678.844   -695.81416    348.12325    78.597867    18.410098    27.270113 
   44600    236.98662   -199.36466    263624.46   -25846.408    1917.9089   -27764.317    -361.0329    348.02169     78.59645     18.41257     27.26735 
   44800    237.30333   -203.49542    263624.46   -25838.563    1920.4719   -27759.035   -393.86798    347.77986    78.596831    18.415648    27.246599 
   45000    242.24375   -417.96371    263624.46   -25864.511    1960.4543   -27824.966   -1332.2264    348.01323    78.598354    18.414874    27.233011 
   45200    244.24431    -358.0307    263624.46   -25848.534    1976.6446   -27825.178   -1091.0509    348.65367     78.59639    18.414383    27.235463 
   45400    234.46224   -396.35231    263624.46   -25901.966    1897.4793   -27799.445   -1266.5054    350.23017    78.596634    18.414796    27.225146 
   45600    237.33624   -319.45629    263624.46   -25799.057    1920.7383   -27719.795   -897.53471    351.45089    78.597081    18.412937    27.229174 
   45800    241.83052   -190.95194    263624.46   -25802.625      1957.11   -27759.735   -340.98304    350.80339    78.596724    18.413714    27.239653 
   46000    239.57838   -305.36942    263624.46   -25758.109    1938.8837   -27696.993   -869.59048    351.44535    78.598084    18.415145    27.258815 
   46200    244.72443   -143.53761    263624.46   -25763.084    1980.5302   -27743.614   -117.92672    351.18841    78.597061    18.417334    27.268004 
   46400    234.28407   -462.49519    263624.46   -25780.177    1896.0374   -27676.214   -1627.3122    353.89302    78.597205    18.416069    27.255034 
   46600    237.99215     -185.813    263624.46   -25748.705    1926.0465   -27674.752   -313.34151    354.21776     78.59742    18.415535    27.271849 
   46800     247.4521   -191.62219    263624.46    -25686.75    2002.6049   -27689.355   -317.73937    355.55776    78.598197    18.414671    27.272708 
   47000    235.41783    -413.6181    263624.46   -25773.274    1905.2128   -27678.487   -1335.9359    357.31224    78.599316    18.415877    27.279417 
   47200    235.20371   -372.63839    263624.46   -25786.685    1903.4799   -27690.165   -1121.7037    360.15225    78.600315    18.419179    27.283329 
   47400    240.37652   -133.55579    263624.46   -25773.038     1945.343   -27718.381   -75.191461     363.2431    78.599296    18.418265    27.279953 
   47600    237.93215   -366.24439    263624.46   -25752.859     1925.561    -27678.42   -1097.8008    365.51725    78.598392    18.417901    27.259488 
   47800    234.99024   -341.84083    263624.46   -25771.113    1901.7523   -27672.866   -983.65753    366.18165    78.599218    18.418576    27.256387 
   48000    235.88395   -108.20148    263624.46   -25762.337     1908.985   -27671.322    55.984143    368.38544    78.598813      18.4193    27.247535 
   48200    239.46322   -290.99427    263624.46    -25767.45    1937.9517   -27705.401   -773.87404    371.84244    78.597655    18.420657    27.227902 
   48400    238.67313   -327.24805    263624.46   -25779.888    1931.5576   -27711.446   -966.84634     373.9795    78.597261    18.419573    27.219909 
   48600    244.79661   -267.02984    263624.46   -25839.558    1981.1143   -27820.673    -676.3851    373.52375    78.595965    18.419255     27.22039 
   48800     236.4081   -113.55883    263624.46   -25847.747    1913.2269   -27760.974    -9.069752    373.88881    78.595211    18.418597    27.221643 
   49000     242.8156   -271.94068    263624.46   -25843.308    1965.0822    -27808.39   -703.24043    374.95054    78.594906    18.416992    27.211648 
   49200    238.86663   -346.67288    263624.46    -25790.52    1933.1236   -27723.644   -1057.3993    374.91118    78.593255    18.416467     27.19407 
   49400    241.48979   -229.42486    263624.46   -25894.061    1954.3525   -27848.413   -498.31384    375.24342    78.592616    18.415403    27.186892 
   49600     239.2739   -298.48926    263624.46    -25906.99    1936.4196   -27843.409   -813.46233    377.52994    78.592257    18.413386    27.181059 
   49800    230.28064   -75.777191    263624.46   -25915.948    1863.6381   -27779.586    182.20919    379.29496    78.592862    18.413548    27.193159 
   50000    237.62781   -224.19071    263624.46   -25864.678    1923.0979   -27787.776   -480.68114    380.60969    78.594078    18.414845     27.18625 
   50200    241.55466   -416.54401    263624.46   -25807.524    1954.8775   -27762.401    -1372.274    382.57414    78.594766    18.413415    27.215354 
   50400    238.12697   -51.536537    263624.46   -25845.632    1927.1375    -27772.77     301.7636    382.32761    78.597087    18.412306    27.207831 
   50600    244.74058   -454.47969    263624.46   -25699.645    1980.6609   -27680.306   -1538.3542    383.95493    78.596598     18.41259    27.215182 
   50800      236.639   -274.82087    263624.46   -25879.631    1915.0956   -27794.727   -689.21692    384.10777    78.596481    18.412508    27.207516 
   51000    234.60594   -386.42244    263624.46   -25859.066    1898.6423   -27757.708   -1195.7649    384.15297    78.594038    18.411673    27.196489 
   51200    229.81706   -343.92292    263624.46   -25897.669    1859.8863   -27757.555   -1027.0389    383.61049    78.594832    18.410756    27.196746 
   51400    235.16268     -325.803    263624.46   -25791.249    1903.1479   -27694.397   -925.47625    385.61912    78.594176    18.409839    27.207009 
   51600    234.46978   -269.29886    263624.46   -25715.357    1897.5403   -27612.898   -692.93649    384.73805    78.593646    18.410504    27.227226 
   51800    243.44799   -231.33583    263624.46    -25718.46    1970.2001    -27688.66   -490.32575    386.99455    78.596264    18.409095    27.231895 
   52000    240.25649   -195.70486    263624.46   -25766.318    1944.3716    -27710.69   -339.29883    386.43995    78.597532    18.407195     27.23597 
   52200    235.70687   -257.63359    263624.46   -25846.686     1907.552   -27754.238   -623.22873    389.57865     78.59755    18.405867    27.222062 
   52400    232.29854   -235.44666    263624.46   -25903.171    1879.9687   -27783.139   -545.21345     390.4851    78.598134    18.405889    27.215581 
   52600    238.89444   -289.22276    263624.46   -25713.417    1933.3486   -27646.766   -796.05768    392.37926    78.599378    18.405461    27.216173 
   52800    241.79245   -334.47595    263624.46   -25622.719    1956.8019    -27579.52   -995.77565    393.82966    78.600867    18.404678    27.226272 
   53000    242.81217    -469.1165    263624.46   -25636.252    1965.0544   -27601.307   -1542.1651    393.78346    78.604188    18.404574    27.223839 
   53200    237.57685   -191.50257    263624.46   -25759.598    1922.6855   -27682.284   -341.40824    393.41844    78.604685    18.406127    27.223605 
   53400    235.94919   -242.48102    263624.46   -25684.488    1909.5131   -27594.001   -539.25374    393.26873    78.604215    18.406049    27.217229 
   53600     236.6416   -318.22877    263624.46   -25759.213    1915.1166   -27674.329   -879.00825    394.24644    78.604582    18.407463    27.212394 
   53800    236.98957   -300.03546    263624.46   -25712.117    1917.9328    -27630.05   -862.76935      394.637    78.605638    18.408057    27.205404 
   54000    236.31173   -322.85669    263624.46   -25762.956    1912.4471   -27675.403   -912.97063     395.6891     78.60638    18.409521     27.21126 
   54200    233.35764   -184.80039    263624.46    -25648.35    1888.5399    -27536.89   -302.10567    396.44945    78.605947    18.414707    27.215411 
   54400    239.21865   -227.03359    263624.46   -25684.571    1935.9724   -27620.543   -497.91345    397.50087    78.608492    18.416719    27.223407 
   54600    243.34102   -381.24307    263624.46   -25698.955    1969.3344   -27668.289   -1210.1981    398.53675    78.609592    18.417927    27.209092 
   54800    244.56447   -221.62093    263624.46   -25701.873    1979.2356   -27681.109   -449.99406    399.24625    78.609044     18.42017     27.19116 
   55000     237.8324   -138.10171    263624.46   -25648.947    1924.7536   -27573.701   -117.69063    399.07029    78.609736    18.418005    27.196268 
   55200    236.01067    -280.3909    263624.46   -25781.237    1910.0105   -27691.248   -752.55609    399.81778    78.607964    18.419415      27.1931 
   55400    239.28288   -279.45219    263624.46   -25743.251    1936.4922   -27679.744    -714.1468    399.93302    78.608185    18.423105    27.201477 
   55600    238.54461   -306.19701    263624.46     -25678.6    1930.5175   -27609.118   -825.64955    401.69763     78.60913    18.422345    27.199239 
   55800    246.24439   -205.46316    263624.46    -25643.86     1992.831   -27636.691   -373.54775    402.35235    78.609645     18.42228    27.184913 
   56000    242.58096   -112.96592    263624.46   -25637.341    1963.1833   -27600.525    24.756895    402.15567    78.607116    18.422494    27.193503 
   56200    238.58274   -198.37338    263624.46    -25664.79    1930.8261   -27595.616   -357.50149    401.62126    78.606418    18.424193    27.197487 
   56400    238.12892   -310.82933    263624.46    -25764.49    1927.1534   -27691.643   -890.04291    402.17826     78.60703    18.424067    27.191584 
   56600    235.98489   -271.49393    263624.46    -25819.63    1909.8019   -27729.432    -676.6468    401.47293    78.606173    18.424864    27.177602 
   56800    240.71104   -228.73859    263624.46   -25712.745    1948.0502   -27660.795   -484.81733    403.23084    78.607022    18.425351    27.165577 
   57000     235.2292   -305.54848    263624.46   -25817.866    1903.6862   -27721.552   -885.61764    403.76916    78.606102    18.424877    27.149881 
   57200    237.49017   -336.90375    263624.46   -25707.844     1921.984   -27629.828   -1017.0627    405.22597    78.603218    18.424583    27.159614 
   57400    241.82419   -260.21681    263624.46   -25756.495    1957.0588   -27713.553   -697.45058    406.17172    78.602312    18.425104    27.164844 
   57600    231.06646   -347.20064    263624.46    -25823.32    1869.9976   -27693.318   -1061.4139    408.25828    78.602587    18.424642    27.163396 
   57800    239.73325   -276.60162    263624.46   -25687.945     1940.137   -27628.082   -752.23109    410.98209    78.601694    18.426173    27.149432 
   58000    243.10728   -425.84896    263624.46   -25736.523    1967.4428   -27703.965   -1382.5889    412.55697    78.601845    18.426811    27.137769 
   58200    248.86574   -179.43047    263624.46   -25706.638    2014.0453   -27720.683   -288.99413    412.93524     78.60237    18.427874    27.135842 
   58400    242.66358   -356.69315    263624.46   -25756.838    1963.8519    -27720.69   -1081.4112    416.13303    78.601114    18.428887    27.134549 
   58600    240.28584   -339.18872    263624.46   -25761.479    1944.6091   -27706.088   -1024.3709    417.05645    78.602255    18.428801    27.113024 
   58800    238.55914   -267.71774    263624.46   -25761.599    1930.6351   -27692.234   -682.71028    416.97035    78.602738    18.427861    27.113669 
   59000    243.67868   -292.30679    263624.46   -25659.345    1972.0671   -27631.412   -769.04294    417.63691    78.602082     18.42688    27.120879 
   59200    237.75932   -235.44933    263624.46   -25693.732    1924.1623   -27617.895   -546.10123    419.98534    78.601809    18.427484    27.119598 
   59400    240.93648   -284.31055    263624.46   -25715.648    1949.8747   -27665.522   -759.97782    422.02008     78.60196    18.428477    27.133016 
   59600    243.41672   -282.39715    263624.46   -25715.249     1969.947   -27685.196   -767.79449    423.35049     78.60156    18.430519    27.144498 
   59800    235.47642   -299.15035    263624.46   -25814.759    1905.6869   -27720.446   -803.92571    425.13826     78.60317    18.430356    27.127803 
   60000    242.39358   -179.64765    263624.46   -25740.133    1961.6668     -27701.8   -302.25669     428.0252    78.604422    18.429805    27.116137 
   60200    242.39942   -239.05913    263624.46   -25739.104    1961.7141   -27700.818   -574.57273    428.97002    78.603258    18.429535    27.083984 
   60400    240.59429   -239.55354    263624.46   -25667.089    1947.1054   -27614.194   -519.72363    427.10137    78.602576    18.428785    27.080634 
   60600      236.926   -324.81864    263624.46   -25729.898    1917.4182   -27647.317   -965.38767    429.26071    78.600912    18.427728    27.085806 
   60800    241.62741   -231.28116    263624.46   -25597.474    1955.4663    -27552.94   -521.81355     431.5908     78.60272    18.426351    27.088285 
   61000    241.92511   -296.94948    263624.46    -25696.74    1957.8755   -27654.615   -809.23731    431.20544    78.603959    18.425031    27.089243 
   61200    245.30982   -256.58321    263624.46   -25665.479    1985.2677   -27650.746   -620.32055    432.42379    78.603766    18.423338    27.085666 
   61400    237.00129   -177.36711    263624.46   -25676.589    1918.0276   -27594.616   -271.73074    434.69831    78.603694    18.422743     27.06121 
   61600    236.18704    -186.0414    263624.46   -25724.046     1911.438   -27635.484   -311.76476    437.75738    78.602107    18.422708    27.052378 
   61800     239.3971   -89.983875    263624.46    -25753.88    1937.4166   -27691.296    143.04131    437.37282    78.600953    18.419973    27.061658 
   62000    232.45279   -455.93187    263624.46    -25708.33     1881.217   -27589.547   -1560.1605    438.06963    78.601988    18.420167    27.055431 
   62200    241.47135   -175.51877    263624.46   -25673.211    1954.2033   -27627.414    -304.1214    438.51712    78.603297    18.420194    27.038808 
   62400    241.26858   -221.90642    263624.46    -25732.99    1952.5623   -27685.553   -484.73596     438.8697    78.604436    18.417316    27.050913 
   62600    240.78502   -306.60415    263624.46   -25720.585    1948.6489   -27669.234   -856.97426    440.00185    78.605432    18.417662      27.0677 
   62800    238.47702   -96.155925    263624.46   -25752.093    1929.9705   -27682.064    72.568739    441.50232    78.604556     18.41809    27.064683 
   63000    240.46886   -118.83672    263624.46   -25767.893    1946.0902   -27713.983   -39.932587    442.54396    78.604488    18.416344    27.071181 
   63200    238.47035   -242.12248    263624.46   -25676.628    1929.9165   -27606.545   -589.89268    443.71207    78.602723    18.415944    27.049498 
   63400    233.97468   -198.14477    263624.46   -25790.668    1893.5336   -27684.201   -411.50612    442.73927    78.602172    18.416628    27.067768 
   63600    227.72962   -350.77172    263624.46   -25812.878    1842.9929   -27655.871   -1057.4783    442.84866    78.599632     18.41726    27.081617 
   63800    235.29747   -302.07139    263624.46   -25877.919    1904.2387   -27782.158   -813.15329      442.502    78.597734    18.418209    27.098988 
   64000    238.48606   -256.05243    263624.46   -25666.213    1930.0437   -27596.257   -646.88946    442.19305    78.597461    18.416909    27.108955 
   64200    242.75611   -308.46741    263624.46   -25673.446    1964.6007   -27638.047   -866.33769    443.92293    78.595819    18.416769    27.126519 
   64400    236.99831   -365.54036    263624.46   -25701.653    1918.0035   -27619.657   -1114.7476    446.45661    78.595339    18.415407    27.099333 
   64600    236.81938   -297.66825    263624.46   -25746.198    1916.5554   -27662.753   -857.78019    449.14486    78.596946    18.413777    27.089108 
   64800    241.24272   -270.10544    263624.46   -25722.103     1952.353   -27674.456   -710.47896    449.32719    78.597171    18.411816    27.068354 
   65000    239.81209   -248.32871    263624.46   -25666.449    1940.7751   -27607.224   -578.25273     451.2128    78.598497    18.411341    27.063379 
   65200    238.35989   -279.03632    263624.46   -25707.908    1929.0226    -27636.93   -774.78265    452.11547     78.59641    18.413019    27.060691 
   65400    236.68588   -318.26062    263624.46   -25652.423     1915.475   -27567.898   -922.39295    454.26103    78.596549    18.413788     27.05985 
   65600    242.98762   -238.12893    263624.46   -25581.274    1966.4743   -27547.748   -553.18666     455.5642    78.597158    18.415871    27.070605 
   65800    237.34286   -264.55192    263624.46   -25604.485    1920.7919   -27525.277   -649.92063    458.16032    78.598076    18.417055    27.081052 
   66000    240.32281   -199.77944    263624.46   -25636.679    1944.9083   -27581.587   -385.85845    458.66464     78.59752    18.418823    27.090425 
   66200    236.96491    -223.3401    263624.46   -25690.864    1917.7331   -27608.597   -521.35218    460.53005     78.59904     18.41747    27.089773 
   66400     236.6361   -318.93146    263624.46    -25680.52    1915.0721   -27595.593   -935.18733    463.09004     78.60036    18.413549    27.096381 
   66600    235.88663   -312.41049    263624.46   -25717.718    1909.0068   -27626.725   -950.64722    463.33087    78.601586    18.411121     27.09649 
   66800    237.87775   -418.18701    263624.46   -25777.869    1925.1207    -27702.99   -1319.8614    464.96609    78.603626    18.407645    27.103295 
   67000     235.9426   -246.78012    263624.46   -25807.789    1909.4597   -27717.249   -628.67492    464.11026     78.60455    18.404322     27.08841 
   67200     233.8248   -467.66362    263624.46   -25703.096    1892.3206   -27595.417   -1586.9477    466.80987    78.605495    18.402136    27.087674 
   67400    236.49622   -312.15232    263624.46   -25669.057    1913.9401   -27582.998   -836.64104    465.39585     78.60526    18.399146    27.088689 
   67600    242.28334    -352.4775    263624.46   -25561.436    1960.7746   -27522.211   -1085.5705    467.84417    78.604105     18.40037    27.096164 
   67800    236.12318   -219.93251    263624.46   -25638.065    1910.9211   -27548.986   -440.63402    471.00436    78.603205    18.399603     27.10814 
   68000    235.35483   -343.11363    263624.46   -25699.081    1904.7029   -27603.784   -1037.9071     472.9616    78.602845    18.400347    27.115321 
   68200     237.8091   -264.29433    263624.46    -25694.14    1924.5651   -27618.705   -639.22382    474.49906     78.60216    18.401683    27.121359 
   68400    243.52532   -309.19602    263624.46   -25602.043    1970.8259   -27572.869   -881.04085    476.48777    78.601781    18.402269    27.118823 
   68600    236.66291   -287.20466    263624.46   -25631.194    1915.2891   -27546.483   -792.33718    476.59491    78.601495     18.40341    27.130396 
   68800    238.61052   -212.60623    263624.46   -25628.868    1931.0509   -27559.919   -398.11168    478.26129    78.600746    18.402818    27.136521 
   69000    240.14964   -244.97864    263624.46    -25655.59    1943.5069   -27599.097   -576.39781    478.20268    78.599039    18.399634    27.129832 
   69200    239.56942   -334.94859    263624.46   -25692.684    1938.8112   -27631.496   -946.78664    481.10313    78.599663    18.396762     27.12836 
   69400    237.65658   -487.19246    263624.46   -25798.339    1923.3307    -27721.67   -1608.3064    484.84359    78.599125    18.395529    27.137867 
   69600    250.85522   -245.19549    263624.46   -25603.244     2030.146    -27633.39   -560.61429    487.15819    78.597482     18.39371    27.136649 
   69800    239.12642    -508.4462    263624.46   -25740.332    1935.2261   -27675.558   -1748.6994     488.0561    78.597536    18.393904    27.128672 
   70000    240.31059   -284.00481    263624.46    -25702.39    1944.8094     -27647.2    -760.1256    486.41368    78.597198    18.394605    27.143647 
   70200    241.03377   -189.41277    263624.46   -25737.078     1950.662    -27687.74   -345.40144    485.90116    78.598052    18.394956    27.158004 
   70400    241.96473   -221.80723    263624.46   -25700.103    1958.1962     -27658.3   -493.56349    487.55205    78.599366    18.395401    27.163822 
   70600     239.9944   -281.34679    263624.46   -25774.164    1942.2505   -27716.415    -762.7044    490.79945    78.600792    18.395156    27.180277 
   70800    239.19367    -153.9213    263624.46   -25769.622    1935.7703   -27705.392   -162.14691    490.76744    78.601131    18.394148    27.184151 
   71000    237.96748   -176.94665    263624.46   -25777.258    1925.8469   -27703.105    -244.0714    492.12097     78.60172    18.392904    27.162836 
   71200    239.51017   -413.36283    263624.46   -25762.672    1938.3317   -27701.003   -1315.1681    494.63726    78.601467    18.393585    27.148683 
   71400    240.09824   -310.68479    263624.46   -25793.575    1943.0909   -27736.666   -894.20236    497.27524    78.599598    18.392224    27.137296 
   71600    239.52198   -274.84932    263624.46   -25736.722    1938.4273   -27675.149   -693.61105    499.63796    78.597731    18.392339    27.146676 
   71800    233.93071   -439.00216    263624.46   -25837.822    1893.1777   -27730.999   -1452.6507    501.04513    78.596331    18.391651    27.142022 
   72000    238.26994   -243.25673    263624.46   -25785.451    1928.2946   -27713.746   -574.10213    503.38535     78.59436    18.391371    27.127311 
   72200    250.29455   -562.67093    263624.46   -25597.945    2025.6086   -27623.554   -1983.6508    505.40354    78.594359    18.391061     27.12898 
   72400     239.8841   -228.63371    263624.46   -25755.025    1941.3578   -27696.383    -486.7361    504.68682    78.595091    18.390157    27.128688 
   72600    243.75675   -155.68503    263624.46   -25659.881    1972.6988    -27632.58   -162.65008     504.8204    78.593362    18.390245    27.122481 
   72800    244.62971   -314.86556    263624.46   -25719.145    1979.7636   -27698.908    -909.1339     505.4925     78.59352    18.388637    27.127973 
   73000     244.1299   -380.21058    263624.46   -25751.953    1975.7187   -27727.671   -1225.3635    506.55565    78.593302    18.388041    27.144528 
   73200    248.60709   -199.51187    263624.46   -25648.573    2011.9521   -27660.525   -374.55828    508.29219    78.593451    18.387465      27.1494 
   73400    246.03059   -199.31147    263624.46   -25633.922    1991.1008   -27625.023   -395.80546    511.42868     78.59442    18.387334    27.147349 
   73600    243.71293    -171.7862    263624.46   -25612.952    1972.3442   -27585.296   -256.71643    510.94826    78.594563    18.385193    27.148447 
   73800    235.74383   -264.20168    263624.46   -25798.684     1907.851   -27706.535   -675.34299    511.21711    78.593986    18.383146    27.152704 
   74000    233.41743   -212.14527    263624.46   -25817.421    1889.0237   -27706.445   -446.97677     512.5909    78.594624    18.381307    27.169768 
   74200    236.05807   -295.46256    263624.46   -25754.591    1910.3942   -27664.985   -820.29977    515.95837    78.595079    18.380933    27.170969 
   74400    239.43866   -245.48741    263624.46    -25675.89     1937.753   -27613.643   -586.91015    515.87871    78.594568    18.381181    27.167778 
   74600    234.36644   -413.51787    263624.46   -25757.739     1896.704   -27654.443   -1332.4411    516.90137    78.592785    18.381498    27.192886 
   74800    244.89608   -265.38248    263624.46   -25732.835    1981.9194   -27714.755   -614.35092    517.43412    78.592976    18.382016    27.197265 
   75000    236.53176   -191.08554    263624.46   -25733.191    1914.2277   -27647.418   -347.23707    522.04678    78.592917    18.380865    27.211465 
   75200    245.01468   -322.47686    263624.46   -25682.194    1982.8791   -27665.074   -943.67566    524.58378    78.593795    18.384784    27.203081 
   75400    239.37374   -353.36307    263624.46   -25733.428    1937.2276   -27670.656   -1100.3365    527.65024    78.594897    18.385449    27.214352 
   75600    244.03732   -488.06749    263624.46   -25698.845    1974.9695   -27673.815   -1671.7159    527.38756    78.595687    18.388131    27.214773 
   75800    242.27821   -111.42522    263624.46   -25627.888    1960.7332   -27588.622    16.432357    526.90646    78.596333    18.387898    27.198897 
   76000    249.17875   -356.55385    263624.46   -25648.629    2016.5785   -27665.208   -1072.3174    527.94332    78.596515    18.388006     27.20157 
   76200    235.42427   -210.63136    263624.46   -25800.673    1905.2649   -27705.938   -380.92318    526.65729     78.59597    18.390023    27.211441 
   76400    241.39718   -293.16069    263624.46    -25791.84    1953.6031   -27745.443   -768.85868     525.7805    78.595206    18.389017     27.20973 
   76600     241.1052   -224.09087    263624.46   -25755.409    1951.2401   -27706.649   -487.16145    526.48347    78.595611    18.391213    27.203398 
   76800    237.33089   -217.50956    263624.46   -25799.207     1920.695   -27719.902   -466.51328     527.5066    78.595122    18.390992    27.207179 
   77000    247.65844    -229.0019    263624.46   -25696.692    2004.2748   -27700.967   -518.59903      529.797    78.595831      18.3908    27.207036 
   77200    236.79599   -259.89701    263624.46   -25761.871    1916.3661   -27678.237   -618.15871     530.8516    78.595174    18.393019    27.206491 
   77400    236.46737   -296.69534    263624.46   -25759.835    1913.7066   -27673.542   -836.25118    531.25008    78.595379    18.392711    27.219121 
   77600    231.19249   -276.69533    263624.46   -25787.601    1871.0175   -27658.619   -749.45704    531.46134    78.596249    18.393352     27.21346 
   77800    237.98459   -341.82901    263624.46   -25751.384    1925.9853    -27677.37   -1010.4261    535.60492    78.596454    18.391852    27.230196 
   78000    244.00427   -218.79482    263624.46   -25771.542     1974.702   -27746.244   -446.70969    540.01724    78.597609    18.390699    27.214441 
   78200    234.18738   -272.36608    263624.46   -25790.758    1895.2548   -27686.013   -716.83161    539.52834    78.598816    18.391628    27.212535 
   78400    233.78133   -434.79883    263624.46   -25755.741    1891.9687    -27647.71   -1440.4752      540.725    78.599489    18.389427    27.206565 
   78600    242.13927   -197.10335    263624.46   -25729.591    1959.6087     -27689.2   -329.29615    540.61998    78.599144    18.391002    27.209053 
   78800    234.95057   -243.67516    263624.46   -25716.158    1901.4313   -27617.589   -568.82562    543.41693    78.600658    18.391006    27.208149 
   79000    237.14549   -366.83247    263624.46   -25688.633    1919.1945   -27607.828   -1113.5685    547.56882    78.599985    18.391282    27.228991 
   79200    240.97432   -302.92026    263624.46   -25662.094    1950.1809   -27612.275   -845.54224    552.56919    78.600822    18.391001    27.223492 
   79400    237.27962   -338.99101    263624.46   -25636.738    1920.2801   -27557.018   -1003.7655    552.93206    78.602306    18.389027    27.226948 
   79600    236.60078   -372.25994    263624.46   -25747.324    1914.7863   -27662.111   -1118.9372    557.44379    78.604484    18.390441    27.248103 
   79800      240.623   -226.24534    263624.46   -25751.815    1947.3377   -27699.153   -519.66712    558.58907    78.603485     18.39448    27.230115 
   80000    239.85272   -278.49265    263624.46   -25788.784    1941.1039   -27729.888   -744.07029    560.69352    78.604985     18.39608    27.239598 
   80200     236.8128   -384.17581    263624.46   -25835.134    1916.5021   -27751.636     -1205.97    560.45175    78.606607    18.396178    27.242981 
   80400    235.84851   -206.49586    263624.46   -25838.409    1908.6982   -27747.108   -416.23917    558.53756    78.606986    18.394863    27.244187 
   80600    241.33309   -321.05471    263624.46   -25822.962    1953.0844   -27776.046     -944.014    558.57296    78.605681    18.396292    27.256425 
   80800    238.07042   -143.46314    263624.46   -25832.235    1926.6799   -27758.915   -123.25345    557.47708    78.606215     18.39578    27.239741 
   81000    241.03368   -282.14445    263624.46    -25812.83    1950.6613   -27763.492   -759.43414    559.79427    78.606493    18.396112     27.24488 
   81200    243.25386   -315.04518    263624.46    -25823.55     1968.629   -27792.179   -877.98775    562.40605     78.60871    18.395506    27.259068 
   81400    234.20169    -284.9021    263624.46   -25789.235    1895.3707   -27684.606   -758.59154    562.10018    78.609663    18.392436    27.256997 
   81600    234.66967   -173.55972    263624.46   -25786.921     1899.158   -27686.079    -268.5775    563.47325    78.610001    18.393028    27.248946 
   81800    231.47095   -410.19188    263624.46   -25858.231    1873.2711   -27731.502   -1288.5316    567.11075    78.609137    18.392344    27.253819 
   82000    235.79939     -299.896    263624.46   -25759.779    1908.3007    -27668.08   -808.98135    567.18866    78.611397    18.393472    27.280161 
   82200    239.75351   -287.97433    263624.46   -25662.541     1940.301   -27602.842   -789.09041    567.35379    78.610999    18.393655    27.255674 
   82400    242.37698   -328.52167    263624.46   -25691.206    1961.5325   -27652.738   -937.77825    566.62841    78.611718    18.392352    27.263387 
   82600     246.9673   -139.22656    263624.46   -25654.254    1998.6815   -27652.935   -98.750274     568.4799    78.611349    18.391155     27.27455 
   82800    235.58021   -293.16907    263624.46   -25750.257    1906.5269   -27656.784   -762.31998    567.29969    78.610899    18.392307    27.269091 
   83000    238.88063   -198.82476    263624.46   -25657.602    1933.2369   -27590.839   -350.63502    567.68719    78.611034    18.392699    27.285212 
   83200    237.08673   -234.46406    263624.46   -25668.852    1918.7191   -27587.571   -507.06536    569.70884    78.610535    18.393652    27.295219 
   83400    234.98048   -239.96445    263624.46   -25712.688    1901.6734   -27614.362   -570.23895    571.59371    78.613275    18.395574    27.300899 
   83600    236.95662   -214.38519    263624.46   -25801.549    1917.6661   -27719.215    -429.7211    573.10826     78.61375    18.396059    27.321039 
   83800    236.49574   -367.01498    263624.46   -25748.652    1913.9362   -27662.588   -1109.5941    575.74665    78.613383    18.394559    27.325496 
   84000    239.41421   -257.89759    263624.46   -25707.183    1937.5551   -27644.738   -644.27327    577.17591    78.612376    18.394363    27.340648 
   84200    242.98693   -340.85448    263624.46   -25729.721    1966.4687    -27696.19   -992.43699    579.17362    78.613327    18.393157    27.343812 
   84400     237.5832   -341.13837    263624.46   -25775.801    1922.7369   -27698.538   -1054.0829    578.08652    78.613124    18.393563    27.341614 
   84600    235.45363    -129.9822    263624.46   -25682.892    1905.5025   -27588.394   -62.864882    577.69123     78.61343    18.392625    27.344116 
   84800    242.48416   -188.46558    263624.46   -25684.704    1962.3999   -27647.104   -326.73328    581.53988    78.615164    18.393722    27.355947 
   85000    237.21202   -233.27633    263624.46   -25662.125     1919.733   -27581.858   -464.12587    580.81606    78.614719    18.394471    27.351467 
   85200    237.05461   -297.89057    263624.46   -25690.034     1918.459   -27608.493   -840.74458    581.06625    78.613182    18.395247    27.359063 
   85400    243.83384   -108.09935    263624.46   -25743.257    1973.3227    -27716.58    75.184818    580.57255     78.61267    18.397104    27.355409 
   85600    239.00005   -370.13857    263624.46   -25729.332    1934.2034   -27663.536   -1097.4107    583.64942    78.612666    18.395487    27.352857 
   85800    236.92841   -247.85104    263624.46   -25711.225    1917.4378   -27628.663   -600.63907    583.36501    78.612266    18.394918     27.34129 
   86000    242.47352   -364.85045    263624.46    -25740.01    1962.3138   -27702.324   -1067.5388    584.04552    78.611662    18.397489    27.330227 
   86200     236.0716   -449.27041    263624.46   -25699.536    1910.5037    -27610.04   -1459.4102    586.21391    78.610704    18.398654    27.358332 
   86400    238.83554   -302.52216    263624.46   -25771.814     1932.872   -27704.686   -814.68531    587.28723    78.611642     18.39803     27.35982 
   86600    238.55469   -324.10117    263624.46   -25689.968    1930.5991   -27620.567   -878.74287    586.31602    78.612744     18.39665    27.355682 
   86800     239.4143   -323.16464    263624.46   -25793.397    1937.5558   -27730.952   -917.54977    586.74304    78.613874    18.396217    27.368049 
   87000     243.2164   -201.15392    263624.46   -25709.526    1968.3258   -27677.852   -374.28483    588.48612    78.614606    18.396356     27.36997 
   87200    241.64522   -379.17309    263624.46   -25716.576    1955.6104   -27672.186   -1141.7089    591.42661    78.615069    18.394909    27.365822 
   87400    237.97112   -425.49045    263624.46   -25810.487    1925.8763   -27736.363   -1378.0458    593.71216    78.614519    18.394567    27.372529 
   87600    242.09988   -295.25307    263624.46   -25753.889      1959.29   -27713.179   -787.23219    595.38909    78.614943    18.394518    27.375728 
   87800    232.66004   -351.14842    263624.46   -25755.754    1882.8943   -27638.649   -1029.7959    598.62594    78.615848    18.395176    27.351702 
   88000    235.45971   -146.54041    263624.46   -25755.757    1905.5517   -27661.309   -114.77768    598.80997    78.615886    18.394557    27.346191 
   88200    237.63235   -237.11573    263624.46   -25822.866    1923.1347       -27746   -532.84409    601.50592    78.613187    18.391506    27.341684 
   88400    240.54044   -263.55438    263624.46   -25777.008    1946.6695   -27723.678   -642.12405    603.83052    78.610801    18.393714    27.351775 
   88600    236.08456   -324.14282    263624.46   -25793.654    1910.6086   -27704.262   -920.70847    602.77634    78.611309    18.391936    27.355163 
   88800    239.87819   -251.97574    263624.46   -25766.799      1941.31   -27708.109   -602.46302    599.88825    78.611274    18.390524    27.363383 
   89000    240.74249   -223.18304    263624.46   -25716.759    1948.3047   -27665.064   -471.19446    603.76879    78.611066    18.390683    27.363028 
   89200     242.6371   -119.32362    263624.46    -25736.12    1963.6376   -27699.757   -17.043605    606.23154    78.610709    18.393619    27.385538 
   89400    241.79186   -341.39877    263624.46   -25722.635    1956.7972   -27679.432   -1018.1359    605.18057    78.608808    18.395717    27.376378 
   89600    236.68632    -179.5563    263624.46   -25831.882    1915.4785   -27747.361   -264.08304     605.9482    78.608458    18.397849    27.371251 
   89800    237.79953   -368.90625    263624.46   -25696.549    1924.4876   -27621.037   -1107.7876    608.55782     78.60757    18.400403    27.376173 
   90000    239.66574   -252.70306    263624.46   -25693.936    1939.5907   -27633.527   -616.81341    608.02713    78.607443    18.398687    27.394787 
   90200    238.99082    -417.0533    263624.46   -25759.918    1934.1287   -27694.047   -1356.1269    609.39558    78.607341    18.397157    27.418975 
   90400    237.97452   -158.60665    263624.46   -25744.363    1925.9038   -27670.267   -156.10019    607.54311    78.608321    18.396771    27.442733 
   90600    242.37392   -340.89059    263624.46   -25706.334    1961.5077   -27667.842   -1032.1238     609.2313    78.607848    18.396578    27.455709 
   90800    232.85162   -187.59998    263624.46    -25712.81    1884.4447   -27597.254   -314.81786    610.19629    78.608025    18.393924    27.454812 
   91000    238.83501   -299.91349    263624.46   -25750.636    1932.8676   -27683.504   -804.34746    613.18472    78.607685     18.39488    27.451203 
   91200    237.86453   -269.60498    263624.46   -25865.344    1925.0137   -27790.357    -675.0701     615.0858    78.606402    18.394751     27.43882 
   91400     236.5642   -291.09896    263624.46   -25750.862    1914.4902   -27665.352    -780.4845    618.68905     78.60538    18.396174    27.453872 
   91600    238.59252    -235.3602    263624.46    -25628.44    1930.9052   -27559.346   -541.87133    619.89496    78.605489    18.397519    27.446243 
   91800    242.36983   -207.14583    263624.46   -25656.207    1961.4747   -27617.682   -383.90859    617.74665    78.603635      18.3975    27.436336 
   92000    237.68001   -428.64638    263624.46   -25674.429    1923.5204    -27597.95   -1399.9029    621.68094    78.602338    18.397864    27.445464 
   92200    244.61522   -201.49075    263624.46   -25756.674    1979.6463    -27736.32   -376.77463    622.26861    78.600967    18.398148    27.446015 
   92400    241.16165   -313.51002    263624.46   -25735.551     1951.697   -27687.248   -885.59106    620.20884    78.599811    18.397966    27.437389 
   92600    241.83073   -165.26211    263624.46   -25666.301    1957.1117   -27623.413   -237.11847    617.31827    78.599648    18.397458    27.440575 
   92800    239.19636   -365.27149    263624.46   -25759.625    1935.7921   -27695.417   -1081.4485    619.36188     78.59876    18.398055    27.454388 
   93000    243.18103   -264.77738    263624.46   -25825.877    1968.0396   -27793.917   -694.61281    621.60172    78.600269    18.397087    27.471047 
   93200    235.84837   -398.67911    263624.46   -25767.836    1908.6971   -27676.533   -1288.2017    624.28168    78.600514    18.396463      27.4702 
   93400    238.54591   -150.06442    263624.46   -25828.755     1930.528   -27759.283   -191.53099    626.57095    78.599178    18.395269    27.456062 
   93600    238.55101   -228.90552    263624.46   -25801.593    1930.5693   -27732.162   -504.47662    626.56875     78.59935    18.395677     27.47138 
   93800    237.49894    -318.0194    263624.46   -25828.525     1922.055    -27750.58   -886.40779    627.22256    78.600066    18.395317    27.477968 
   94000    241.08255   -300.27638    263624.46   -25853.592    1951.0568   -27804.648   -815.55906    624.81448    78.601203    18.394748    27.484861 
   94200    243.27138   -265.52431    263624.46   -25755.272    1968.7708   -27724.043   -694.42848    626.16232    78.602234    18.396061    27.502784 
   94400    234.55632    -405.7745    263624.46   -25794.862    1898.2407   -27693.102   -1349.5412    627.52571    78.601625     18.39704    27.498781 
   94600    241.86016   -361.82095    263624.46   -25808.847    1957.3499   -27766.197    -1108.601    627.55295    78.599729    18.397491    27.495574 
   94800    233.38767   -433.06784    263624.46   -25837.758    1888.7829    -27726.54   -1437.9588     629.1427    78.600658    18.396622    27.482023 
   95000    232.81118   -267.92618    263624.46   -25833.969    1884.1174   -27718.087   -712.72208    630.15716    78.600658    18.397051    27.488131 
   95200    240.93375   -316.39799    263624.46    -25814.37    1949.8526   -27764.222   -913.67297    629.93058    78.601547    18.396814    27.501723 
   95400    240.93852   -192.09441    263624.46   -25827.578    1949.8912   -27777.469   -342.98049     634.2099    78.602438    18.394224    27.506598 
   95600    241.10902   -369.37176    263624.46   -25795.869     1951.271    -27747.14   -1130.9118    636.79665    78.600929     18.39284    27.497035 
   95800    235.57453   -282.59091    263624.46    -25802.38    1906.4809   -27708.861   -778.74246    637.88288    78.601284    18.389719    27.515936 
   96000    240.20792   -292.28238    263624.46   -25783.727    1943.9785   -27727.706   -819.73686    638.61646    78.601478    18.387518    27.510541 
   96200    245.50889   -227.78414    263624.46   -25724.763    1986.8787   -27711.642   -510.86178    637.01469    78.602671     18.38741    27.512005 
   96400     241.7333   -257.18767    263624.46    -25773.51    1956.3233   -27729.833   -629.91834    638.93332    78.603028    18.387381    27.512249 
   96600    238.93315   -453.84917    263624.46   -25818.771    1933.6619   -27752.433   -1542.9783    640.47108    78.604096    18.387272    27.505619 
   96800    238.88714   -230.43712    263624.46   -25788.251    1933.2896   -27721.541   -586.40589     638.6596    78.603505    18.386281    27.512011 
   97000    234.39528   -390.97412    263624.46   -25831.246    1896.9374   -27728.183   -1266.0322    640.32287    78.604481    18.385775    27.512496 
   97200    239.61857   -150.47258    263624.46   -25808.536    1939.2089   -27747.745   -151.04053    637.68502    78.605645     18.38315    27.509325 
   97400     242.4324   -312.32537    263624.46   -25768.117     1961.981   -27730.098    -879.6203    638.38487     78.60591    18.382291    27.528906 
   97600    242.73308   -2.2498683    263624.46   -25689.596    1964.4144    -27654.01    471.48668    637.51909    78.606215    18.382443     27.51584 
   97800    239.97936   -108.59619    263624.46   -25699.353    1942.1288   -27641.482    17.435415    640.43821    78.605588    18.383109    27.519551 
   98000    235.01061   -292.93853    263624.46   -25734.369    1901.9172   -27636.286   -835.21923    640.93633    78.605795    18.382091    27.532593 
   98200     237.2289   -296.84536    263624.46   -25758.926    1919.8696   -27678.796   -835.08058    643.15476    78.607175    18.382587    27.528301 
   98400    239.34459    -247.7065    263624.46   -25737.817    1936.9917   -27674.808   -582.37367    641.65139    78.607822    18.382892    27.540492 
   98600    239.33095   -149.34768    263624.46   -25729.577    1936.8813   -27666.458   -161.05591    642.16307    78.608682      18.3831    27.530113 
   98800    239.57221   -230.17349    263624.46   -25646.288    1938.8338   -27585.122   -550.64835    644.12802      78.6088    18.383371    27.527694 
   99000    233.84421   -535.41132    263624.46   -25686.257    1892.4776   -27578.734   -1891.0942    648.58789    78.607193    18.381946    27.513014 
   99200    241.12343   -166.15018    263624.46   -25670.984    1951.3876   -27622.372   -227.69827    650.96787    78.608177    18.380632    27.513124 
   99400    234.69627   -199.35692    263624.46   -25698.856    1899.3733   -27598.229   -357.58294    652.87388     78.60918     18.38024    27.526862 
   99600    243.12004   -267.90874    263624.46   -25653.192     1967.546   -27620.738    -709.8715    656.99242     78.60966    18.380559    27.513648 
   99800    238.61117   -105.64487    263624.46   -25682.553    1931.0562   -27613.609    43.984834    660.04771     78.60923    18.378787    27.506519 
  100000    239.72729   -423.95231    263624.46    -25626.57    1940.0888   -27566.659   -1375.6567    662.59632    78.608387    18.379977    27.498671 
  100200     237.7062   -360.63365    263624.46   -25737.008    1923.7323    -27660.74   -1125.3545    662.89819    78.607543    18.381646    27.491901 
  100400    239.33554   -382.13689    263624.46   -25663.349    1936.9184   -27600.267   -1214.3616    666.04119    78.606447    18.382951     27.50535 
  100600    239.82271   -221.77861    263624.46   -25712.233     1940.861   -27653.094   -485.29031    667.03941    78.606973    18.380158    27.510612 
  100800    240.89037   -322.08285    263624.46    -25757.73    1949.5015   -27707.232     -950.487    666.30031    78.607412    18.377737     27.50195 
[...]
 5176000    219.86922   -888.28321    263624.46   -28376.015    1779.3795   -30155.394    -3111.425    4933.9387    78.604874    17.455245    29.861915 
 5176200    228.61257   -1005.6549    263624.46   -28329.144    1850.1385   -30179.283   -3634.7002    4945.8281    78.606352    17.454495    29.866922 
 5176400    224.59161   -942.02186    263624.46   -28340.523    1817.5972    -30158.12   -3340.4257    4942.3588    78.607299     17.45423     29.87303 
 5176600    231.40427   -987.62243    263624.46   -28270.436    1872.7315   -30143.167   -3528.0055    4937.8949    78.607047     17.45449    29.871383 
 5176800    227.21186   -923.89698    263624.46   -28304.566    1838.8027   -30143.369    -3250.278    4943.6179    78.606279    17.455048    29.871316 
 5177000    225.30301   -1027.8485    263624.46   -28310.578    1823.3546   -30133.932   -3702.6374    4946.5792    78.606574    17.455857    29.872236 
 5177200    226.60892   -871.82231    263624.46   -28269.643    1833.9232   -30103.566   -3000.2983    4935.0745    78.605705    17.455596    29.865685 
 5177400    229.72943   -931.80948    263624.46   -28238.315    1859.1772   -30097.492   -3279.6307    4940.8184    78.607198    17.455314    29.867082 
 5177600    226.96879   -895.74198    263624.46    -28235.23    1836.8356   -30072.065   -3138.1242    4935.5511     78.60806    17.454799    29.869648 
 5177800    223.77136   -978.83525    263624.46   -28298.697    1810.9591   -30109.656   -3498.8176    4938.9645    78.606592    17.454052    29.859449 
 5178000    229.64827   -894.21645    263624.46   -28332.258    1858.5203   -30190.779   -3111.8776    4940.4525    78.605883    17.453015    29.866737 
 5178200    230.19708   -1017.0745    263624.46   -28299.584    1862.9618   -30162.545   -3691.3138    4942.0298    78.606837    17.451931    29.868953 
 5178400    227.28103   -913.16986    263624.46    -28289.52    1839.3625   -30128.882   -3187.1887    4934.7491    78.606748    17.451854    29.865735 
 5178600     226.0109   -1033.0832    263624.46   -28302.962    1829.0834   -30132.045   -3786.1135    4940.8106    78.607868    17.450651    29.870449 
 5178800    226.13963   -894.44453    263624.46   -28270.333    1830.1253   -30100.458   -3157.0939    4938.9934    78.607572    17.450306    29.875483 
 5179000    224.49466   -917.86057    263624.46   -28334.018    1816.8127    -30150.83   -3255.8801    4944.5605    78.607974    17.450552    29.871964 
 5179200    229.14285   -956.52084    263624.46    -28355.01      1854.43    -30209.44   -3428.1853    4936.0007    78.608171    17.450889    29.875872 
 5179400    231.07102   -923.64587    263624.46   -28238.477    1870.0345   -30108.511   -3255.8845    4936.0265    78.608755    17.449571    29.871211 
 5179600    225.23947    -903.2006    263624.46   -28328.782    1822.8404   -30151.623   -3153.0636    4943.0236    78.608974    17.448349    29.871846 
 5179800    218.92126   -986.93116    263624.46   -28355.291    1771.7077   -30126.999   -3541.5734    4941.3153    78.610236    17.448346    29.875548 
 5180000    224.90489   -914.43403    263624.46   -28435.523    1820.1326   -30255.656   -3213.1565    4935.9838    78.610995    17.448417    29.871113 
 5180200    224.34556   -896.70826    263624.46   -28394.485     1815.606   -30210.091   -3174.7523    4940.5247    78.610582    17.448191    29.868337 
 5180400    231.83084   -976.25766    263624.46   -28288.227    1876.1836   -30164.411   -3536.1429    4946.5973    78.610588      17.4501    29.876008 
 5180600     226.1646   -899.08214    263624.46   -28312.688    1830.3273   -30143.015   -3174.7423    4942.2511    78.611272    17.450374     29.87721 
 5180800    225.07543   -858.11197    263624.46   -28375.505    1821.5128   -30197.018   -3001.5548    4936.4409    78.611774    17.449978     29.87185 
 5181000    225.27091   -821.95023    263624.46    -28291.95    1823.0948   -30115.045    -2813.263    4942.1082    78.610955    17.449862     29.87831 
 5181200    226.81641   -982.43773    263624.46   -28369.279    1835.6023   -30204.882   -3530.2758    4945.7381    78.612229    17.448834    29.872515 
 5181400    224.16543   -895.86105    263624.46   -28317.747    1814.1482   -30131.895   -3138.2415    4937.5392    78.611989    17.448346    29.872506 
 5181600    224.39411   -853.18981    263624.46   -28353.625    1815.9989   -30169.624   -2917.9311    4937.2849    78.612167    17.446393    29.871465 
 5181800    226.25316   -912.14373    263624.46   -28290.233    1831.0441   -30121.277   -3215.9592    4937.7616    78.612449    17.447024    29.871544 
 5182000     226.7837   -914.23596    263624.46   -28289.731    1835.3377   -30125.069    -3220.692    4942.7552    78.613271     17.44598    29.872857 
 5182200    225.34505   -999.70938    263624.46   -28263.839    1823.6948   -30087.534   -3623.3915    4941.7356    78.615404    17.444882    29.873595 
 5182400    223.46644     -856.847    263624.46   -28349.983    1808.4914   -30158.474   -2984.7991    4938.7178    78.614118    17.443301    29.866824 
 5182600     225.0583   -911.10797    263624.46   -28331.487    1821.3741   -30152.861   -3240.9257    4941.9272    78.613435    17.444114    29.870241 
 5182800    228.08982   -925.33141    263624.46   -28308.121     1845.908   -30154.029   -3319.6715     4943.921    78.614985    17.443752    29.869786 
 5183000    233.52849   -842.09482    263624.46    -28258.31    1889.9225   -30148.233   -2919.6544    4940.5159    78.614551    17.444419    29.871771 
 5183200    229.98875   -896.49657    263624.46   -28302.358    1861.2758   -30163.634   -3170.6878    4939.6333    78.613472    17.443722    29.875488 
 5183400    223.81028   -831.10676    263624.46   -28399.483    1811.2741   -30210.757   -2840.9787     4944.197    78.615061    17.443826    29.871523 
 5183600    226.20883   -909.46953    263624.46   -28372.297    1830.6853   -30202.982   -3221.5705    4942.1105    78.615674    17.443492    29.884102 
 5183800    225.15927   -793.01731    263624.46   -28349.714    1822.1913   -30171.905   -2682.0721     4935.537    78.616297    17.444142     29.87021 
 5184000    227.92442   -847.28103    263624.46   -28310.608    1844.5694   -30155.178   -2911.9888     4938.024    78.615744    17.442441    29.868043 
 5184200    227.38721   -926.31784    263624.46    -28311.27    1840.2218   -30151.492   -3267.3213    4943.8097     78.61641    17.441715    29.870503 
 5184400    222.52321   -948.87286    263624.46   -28318.642    1800.8579     -30119.5   -3363.2189     4940.282    78.616598     17.44205    29.868498 
 5184600    229.38588   -848.20836    263624.46   -28321.296    1856.3968   -30177.693   -2905.1259    4938.6721    78.617483    17.443069    29.866355 
 5184800     224.1335   -863.72101    263624.46   -28323.085    1813.8898   -30136.975   -3036.1121    4944.4208    78.617753    17.441944    29.867987 
 5185000     225.1435   -935.12596    263624.46   -28313.396    1822.0637   -30135.459   -3359.0394    4945.2318    78.618823    17.442182    29.863898 
 5185200     228.4481   -921.50131    263624.46   -28340.793    1848.8075     -30189.6   -3301.0304    4941.5341    78.619423    17.443274    29.868705 
 5185400     223.6235   -910.95951    263624.46   -28311.953    1809.7624   -30121.715   -3221.9564    4940.2429    78.618764    17.443428    29.872528 
 5185600    225.63369   -1039.0793    263624.46    -28328.75    1826.0307    -30154.78   -3822.7582    4945.6041    78.619242    17.442124    29.876417 
 5185800    228.38878   -892.00264    263624.46   -28297.782    1848.3274   -30146.109   -3083.7641    4937.5999    78.620351    17.441905    29.866832 
 5186000    228.05536   -891.80637    263624.46   -28254.183    1845.6291   -30099.812   -3167.2342    4936.6696    78.621024    17.440753    29.869347 
 5186200    227.04342    -846.0667    263624.46   -28298.982    1837.4395   -30136.421   -2950.6228    4938.7229    78.622354    17.438126     29.86851 
 5186400    228.49773   -931.47752    263624.46   -28308.792    1849.2091   -30158.001   -3353.4127    4943.6523    78.622611    17.436251     29.86124 
 5186600    220.28227   -955.70081    263624.46   -28327.021    1782.7222   -30109.743    -3399.775    4942.4151    78.622716    17.436889    29.876435 
 5186800     234.0091   -920.27494    263624.46   -28240.462    1893.8121   -30134.274   -3220.7798    4940.0403    78.623412    17.436837    29.864631 
 5187000    232.06163   -909.00677    263624.46    -28246.19    1878.0514   -30124.241   -3185.9049    4943.4187    78.624207    17.437227    29.861777 
 5187200    220.91864    -999.4136    263624.46   -28383.048    1787.8723    -30170.92   -3630.5098    4944.2852    78.625025    17.437425    29.870355 
 5187400    217.67569   -889.74914    263624.46   -28378.954    1761.6274   -30140.582   -3155.3749    4938.6145    78.625591    17.436577    29.865418 
 5187600    228.81891   -932.81029    263624.46   -28288.877    1851.8084   -30140.685   -3294.3993    4934.1712    78.625862    17.436857    29.860274 
 5187800    226.73934    -923.7541    263624.46   -28325.997    1834.9787   -30160.976   -3292.6119    4942.5167    78.625913    17.438242    29.860228 
 5188000    228.87531    -886.5896    263624.46    -28237.07    1852.2648   -30089.335   -3099.2454     4944.755    78.626065    17.438501    29.865556 
 5188200    227.84015   -803.51803    263624.46   -28257.084    1843.8874   -30100.971   -2706.2294    4936.0696    78.626469    17.437925    29.866469 
 5188400    226.98597   -893.33539    263624.46   -28310.604    1836.9746   -30147.578   -3134.8429    4936.9463    78.625588    17.439085    29.870516 
 5188600    226.85256   -915.89813    263624.46   -28362.252    1835.8949   -30198.147   -3270.5355    4943.1115    78.626266     17.43704    29.868054 
 5188800     224.6441    -925.1776    263624.46   -28331.965    1818.0221   -30149.987   -3315.1685    4944.8725    78.627474     17.43831    29.870611 
 5189000    226.16545   -880.34779    263624.46   -28299.017    1830.3342   -30129.351   -3096.4113    4936.3295    78.627609    17.437812    29.871267 
 5189200    222.12664   -913.18744    263624.46   -28402.826    1797.6485   -30200.474   -3206.6304    4939.3055    78.628375    17.438617    29.865174 
 5189400    223.93198   -880.85787    263624.46   -28337.389     1812.259   -30149.648   -3081.2266    4942.1067    78.628008    17.438619    29.874776 
 5189600     226.4727   -794.21335    263624.46   -28292.062    1832.8207   -30124.882   -2700.4175     4940.702    78.629717    17.439776    29.868738 
 5189800    220.59344   -876.10887    263624.46    -28339.23    1785.2405    -30124.47   -3093.5658    4939.1149    78.630904    17.440411    29.865139 
 5190000    224.35498    -830.1386    263624.46   -28337.283    1815.6823   -30152.965   -2878.1449    4940.8954    78.630403    17.440355    29.869131 
 5190200    224.37657   -867.92187    263624.46   -28363.293     1815.857    -30179.15   -3010.2565    4941.9737    78.631554    17.440747    29.869382 
 5190400    230.88125   -974.30096    263624.46   -28197.434    1868.4987   -30065.933   -3490.6797    4942.2954     78.63102     17.44013       29.875 
 5190600    226.73436    -813.9196    263624.46   -28312.646    1834.9383   -30147.584   -2786.9525    4933.8278    78.631296    17.440985    29.871726 
 5190800    228.08712   -960.95645    263624.46   -28302.755    1845.8861   -30148.641   -3408.6835    4940.5599    78.630657    17.442094    29.863465 
 5191000    222.33428    -934.0857    263624.46   -28338.982     1799.329   -30138.311   -3316.5686    4947.9578    78.630845    17.441639    29.873086 
 5191200    226.07965    -870.0428    263624.46   -28308.565    1829.6398   -30138.205     -3055.44    4939.8267    78.630975    17.440379    29.868355 
 5191400    228.68595   -791.39834    263624.46   -28318.927    1850.7324   -30169.659   -2630.4161     4930.556    78.630176    17.439951    29.865434 
 5191600    226.64674   -861.13163    263624.46    -28343.87    1834.2292   -30178.099   -2974.4387    4940.3364    78.628195    17.440088    29.870166 
 5191800    224.98085   -841.24736    263624.46   -28234.317    1820.7474   -30055.065   -2932.3697    4942.4235    78.630681    17.439109    29.864253 
 5192000    231.42458   -848.71308    263624.46   -28232.301    1872.8958   -30105.196   -2876.5512     4935.159    78.628372    17.438462    29.870874 
 5192200    222.50102   -868.21119    263624.46    -28301.62    1800.6783   -30102.298   -2993.1948    4935.7038      78.6263    17.438958    29.872566 
 5192400    229.27099   -877.47347    263624.46   -28293.529     1855.467   -30148.996    -3084.314    4946.0559     78.62682     17.43868    29.873935 
 5192600    225.84244   -901.20924    263624.46   -28347.448    1827.7201   -30175.168   -3154.9497    4942.9568    78.626601    17.439642    29.873141 
 5192800    231.60503   -908.52283    263624.46   -28288.893    1874.3562   -30163.249   -3231.4518    4938.6146    78.626277     17.43942    29.869518 
 5193000    221.35743    -896.9223    263624.46   -28335.473    1791.4234   -30126.896   -3196.3973    4941.3408     78.62645    17.439532    29.869394 
 5193200    229.96572    -876.1345    263624.46   -28287.232    1861.0894   -30148.321   -3108.8591    4942.8317    78.626519    17.440046    29.871462 
 5193400    220.57406   -889.11994    263624.46   -28345.693    1785.0837   -30130.777   -3139.5488    4939.0037    78.627504    17.440604     29.86906 
 5193600    229.07666   -886.24974    263624.46    -28246.26    1853.8944   -30100.155    -3125.741    4936.7232    78.627185    17.439695    29.870491 
 5193800    228.96848   -897.15179    263624.46   -28344.005    1853.0188   -30197.024   -3170.5273     4940.753    78.627351    17.439206    29.864815 
 5194000    222.63474   -964.32049    263624.46   -28420.378    1801.7605   -30222.138   -3502.5137    4943.8849    78.626977    17.440817      29.8789 
 5194200    220.06354   -953.74828    263624.46   -28355.961    1780.9521   -30136.914   -3390.0768    4938.1924    78.627329    17.442249    29.866851 
 5194400     227.7304   -1012.7546    263624.46   -28289.574    1842.9992   -30132.573   -3682.2589    4942.8306    78.628482    17.442726    29.864537 
 5194600    230.24681   -915.96065    263624.46   -28274.127    1863.3642   -30137.491   -3185.7577    4949.5686    78.627719    17.444445    29.874996 
 5194800    227.90172   -977.46735    263624.46   -28284.207    1844.3857   -30128.593   -3553.0074    4946.8065    78.628919    17.445922    29.872083 
 5195000    226.30923   -810.71032    263624.46   -28295.994    1831.4978   -30127.492   -2796.8199    4937.6566    78.629982    17.446185     29.86474 
 5195200    226.84918   -988.04288    263624.46   -28272.334    1835.8676   -30108.201   -3559.0299    4943.0831    78.630339    17.445492    29.868404 
 5195400    230.07616    -933.9517    263624.46   -28253.183    1861.9832   -30115.166   -3336.7573    4943.1246     78.63134    17.446164    29.868675 
 5195600    224.45027    -958.2202    263624.46   -28347.176    1816.4534   -30163.629   -3444.2745    4934.2195    78.631289    17.445446    29.872062 
 5195800      230.562   -970.01672    263624.46   -28198.289     1865.915   -30064.204   -3470.9559    4939.2343    78.629079    17.444713    29.865318 
 5196000    224.70746   -932.41255    263624.46   -28279.878    1818.5349   -30098.413   -3329.7738    4944.8363    78.630403    17.444411    29.871134 
 5196200    227.54215   -902.23187    263624.46   -28288.493    1841.4757   -30129.968   -3171.5357    4940.7981    78.630588    17.444075    29.872354 
 5196400    227.68501   -947.79489    263624.46   -28273.319    1842.6318   -30115.951   -3400.9706    4939.3802    78.629691    17.442818    29.869534 
 5196600    230.45977   -917.06911    263624.46   -28323.309    1865.0877   -30188.397   -3247.6585    4944.3883    78.630228    17.441656    29.863419 
 5196800    226.77229   -973.29503    263624.46   -28289.953    1835.2453   -30125.199   -3464.4583    4944.5997    78.630427    17.442069    29.869056 
 5197000    224.34408   -889.96174    263624.46   -28248.892     1815.594   -30064.486   -3155.6534    4938.9783    78.630486    17.440228    29.872332 
 5197200    231.58272   -979.31936    263624.46    -28303.94    1874.1756   -30178.115   -3574.1264    4944.8572    78.628617     17.44045    29.870872 
 5197400    230.64113   -883.60095    263624.46   -28276.357    1866.5554   -30142.913   -3110.7954    4944.1288     78.62969    17.441262      29.8727 
 5197600    226.59143   -860.74371    263624.46   -28333.106    1833.7816   -30166.887   -2997.5163    4937.5588    78.629893    17.440142    29.871566 
 5197800    224.52572   -938.09399    263624.46   -28400.107     1817.064   -30217.171   -3363.9136    4944.4638    78.629235     17.44083    29.865027 
 5198000    229.84882   -937.92744    263624.46   -28276.443    1860.1433   -30136.586   -3352.4945    4947.2716    78.630591    17.440417    29.868804 
 5198200    230.25358   -878.12704    263624.46   -28271.407    1863.4191   -30134.826   -3060.1515    4936.2253    78.631661     17.44154    29.873086 
 5198400    223.12564   -928.79607    263624.46   -28355.153    1805.7333   -30160.887   -3302.0138    4937.3481    78.630902    17.443192    29.865078 
 5198600    226.59981   -921.16485    263624.46   -28388.058    1833.8494   -30221.908   -3325.5778    4947.9081    78.630908    17.442357    29.869085 
 5198800    230.21228   -883.20558    263624.46   -28318.924    1863.0848   -30182.009   -3090.7089    4941.6634    78.629923    17.440486     29.86964 
 5199000    228.08706   -950.56492    263624.46   -28247.392    1845.8856   -30093.278   -3408.6024    4935.3735    78.628914    17.438796    29.867469 
 5199200    223.91535   -979.28834    263624.46   -28302.227    1812.1244   -30114.352   -3552.4658    4938.1717    78.628186    17.438902    29.867322 
 5199400    223.44323   -965.40633    263624.46   -28322.871    1808.3036   -30131.174   -3496.3259    4945.2712     78.62916    17.438824    29.868201 
 5199600     226.3247    -952.5358    263624.46   -28302.298     1831.623   -30133.921    -3416.035    4937.3524    78.628561    17.437256    29.866405 
 5199800    228.62301     -991.338    263624.46   -28295.622     1850.223   -30145.845   -3595.0602    4938.3737    78.626931     17.43692    29.863046 
 5200000    222.13937   -938.78019    263624.46   -28297.634    1797.7515   -30095.385   -3385.3964    4946.0778    78.627237    17.435582    29.864919 
Loop time of 17221.3 on 80 procs for 5200000 steps with 9436 atoms

Performance: 260.886 ns/day, 0.092 hours/ns, 301.952 timesteps/s
98.2% CPU use with 80 MPI tasks x no OpenMP threads

MPI task timing breakdown:
Section |  min time  |  avg time  |  max time  |%varavg| %total
---------------------------------------------------------------
Pair    | 0.28767    | 4646       | 13289      |6901.8 | 26.98
Neigh   | 0.45544    | 238.95     | 841.49     |1968.3 |  1.39
Comm    | 19.864     | 5846.2     | 15571      |6094.3 | 33.95
Output  | 174        | 174.11     | 176.07     |   1.7 |  1.01
Modify  | 249.62     | 6243.7     | 16963      |7126.1 | 36.26
Other   |            | 72.43      |            |       |  0.42

Nlocal:        117.950 ave         373 max           0 min
Histogram: 31 13 16 0 0 0 0 0 3 17
Nghost:        746.362 ave        1196 max           0 min
Histogram: 12 2 2 2 2 2 12 24 7 15
Neighs:         0.00000 ave           0 max           0 min
Histogram: 80 0 0 0 0 0 0 0 0 0
FullNghs:      11812.1 ave       45121 max           0 min
Histogram: 53 7 0 0 0 0 0 0 6 14

Total # of neighbors = 944972
Ave neighs/atom = 100.14540
Neighbor list builds = 557528
Dangerous builds = 0
write_data 		${DIR}/data.${NAME}_run
write_data 		run_10/data.${NAME}_run
write_data 		run_10/data.ibeam_cooling_10_run
System init for write_data ...
Total wall time: 4:47:35
