

### IMPORT ATOMS ###
read_data ../Box_Setup/data.Ibeam_240K
  orthogonal box = (0 0 0) to (157.504 42.9242 26.8557)
  8 by 4 by 2 MPI processor grid
  reading atoms ...
  9253 atoms
  reading velocities ...
  9253 velocities
group water type 2
1381 atoms in group water
group graphite type 1
7872 atoms in group graphite


# Define potential
#
pair_style          sw
pair_coeff * * MLC_e.sw C mW

# Add velocity/set timestep
#

fix		1 graphite setforce 0.0 0.0 0.0
velocity 	graphite set 0.0 0.0 0.0
velocity            water create ${START_TEMP} ${SEED} rot yes dist gaussian
velocity            water create 240 ${SEED} rot yes dist gaussian
velocity            water create 240 23749 rot yes dist gaussian
timestep            5.0

# Define output
#
compute 1 water msd
compute 2 water temp


thermo	            100
thermo_style custom step c_2 press vol etotal ke pe c_1[4] density

# Neighbor lists
#
neigh_modify        delay 0 every 1 check yes


# Set fixes
#
fix                 2 water momentum 10 linear 1 1 1 rescale
fix                 3 all nve
fix                 4 water temp/csvr ${START_TEMP} ${START_TEMP} 500.0 928347
fix                 4 water temp/csvr 240 ${START_TEMP} 500.0 928347
fix                 4 water temp/csvr 240 240 500.0 928347

# Run 0.05 ns equilibration
#
dump                1 all custom 100 ${DIR}/eq.${NAME}.dump id type x y z vx vy vz
dump                1 all custom 100 run_8/eq.${NAME}.dump id type x y z vx vy vz
dump                1 all custom 100 run_8/eq.ibeam_cooling_8.dump id type x y z vx vy vz
run                 10000
Neighbor list info ...
  update every 1 steps, delay 0 steps, check yes
  max neighbors/atom: 2000, page size: 100000
  master list distance cutoff = 6.67472
  ghost atom cutoff = 6.67472
  binsize = 3.33736, bins = 48 13 9
  1 neighbor lists, perpetual/occasional/extra = 1 0 0
  (1) pair sw, perpetual
      attributes: full, newton on
      pair build: full/bin/atomonly
      stencil: full/bin/3d
      bin: standard
Per MPI rank memory allocation (min/avg/max) = 3.396 | 4.325 | 4.765 Mbytes
Step c_2 Press Volume TotEng KinEng PotEng c_1[4] Density 
       0          240   -344.39513    181563.75    -13284.54    987.24429   -14271.784            0    1.0922001 
     100    241.23725   -262.92887    181563.75   -13248.355    992.33372   -14240.689   0.90536085    1.0922001 
     200    236.57906   -326.34855    181563.75   -13289.504     973.1722   -14262.676    1.3672919    1.0922001 
     300    244.15434   -293.60219    181563.75    -13279.89    1004.3332   -14284.224    1.7315065    1.0922001 
     400    239.95358   -454.99169    181563.75   -13296.525    987.05334   -14283.579    2.1071936    1.0922001 
     500    243.01941   -322.93359    181563.75   -13311.397    999.66468   -14311.061     2.686361    1.0922001 
     600    230.36898   -485.44821    181563.75   -13387.813     947.6269    -14335.44     2.992729    1.0922001 
     700    237.18259   -403.92491    181563.75   -13365.764    975.65483   -14341.419    3.2359626    1.0922001 
     800    238.56625      -345.52    181563.75   -13406.819    981.34653   -14388.166    3.5530116    1.0922001 
     900    237.08669   -212.53197    181563.75   -13369.115    975.26035   -14344.375    3.8793524    1.0922001 
    1000    230.18463   -312.66048    181563.75   -13321.843     946.8686   -14268.712    4.2882423    1.0922001 
    1100     239.0883   -357.36762    181563.75   -13335.109    983.49398   -14318.603    4.6414464    1.0922001 
    1200    234.21998   -407.43579    181563.75   -13372.941    963.46806    -14336.41    5.0040255    1.0922001 
    1300     239.6461   -329.24869    181563.75   -13345.664     985.7885   -14331.452     5.339103    1.0922001 
    1400     248.9303   -338.48867    181563.75   -13292.613    1023.9792   -14316.592    5.4797399    1.0922001 
    1500    237.25531   -367.45253    181563.75   -13308.544    975.95396   -14284.498    5.8539423    1.0922001 
    1600    237.91883   -250.61676    181563.75   -13294.915    978.68337   -14273.599    6.2347294    1.0922001 
    1700    242.98578   -291.72892    181563.75   -13320.209    999.52636   -14319.736    6.4317914    1.0922001 
    1800    247.57687   -345.00334    181563.75   -13329.203    1018.4119   -14347.615    6.8375441    1.0922001 
    1900    248.57135    -227.7103    181563.75   -13268.703    1022.5027   -14291.205    7.0475221    1.0922001 
    2000    244.34048   -302.78488    181563.75   -13240.538    1005.0989   -14245.637    7.3133893    1.0922001 
    2100     251.1736   -253.55093    181563.75    -13262.01    1033.2071   -14295.217    7.6248051    1.0922001 
    2200    257.71509     -325.596    181563.75   -13269.145    1060.1156    -14329.26     7.781069    1.0922001 
    2300    239.28937   -233.11867    181563.75   -13313.761    984.32111   -14298.082    8.0601253    1.0922001 
    2400    252.38738   -377.93556    181563.75   -13314.411       1038.2   -14352.611    8.2996963    1.0922001 
    2500    243.91471   -361.86619    181563.75   -13303.546    1003.3475   -14306.894    8.8088092    1.0922001 
    2600    243.64943    -200.9143    181563.75   -13335.159    1002.2563   -14337.415    9.2165563    1.0922001 
    2700     243.8744   -214.39744    181563.75   -13319.072    1003.1817   -14322.254    9.6899577    1.0922001 
    2800    234.01289   -293.23222    181563.75    -13315.92    962.61619   -14278.536    9.9397919    1.0922001 
    2900    242.77382    -410.1576    181563.75   -13360.674    998.65443   -14359.329    10.106786    1.0922001 
    3000    247.01358   -205.51639    181563.75   -13381.363    1016.0948   -14397.458    10.307608    1.0922001 
    3100    243.22999   -286.08561    181563.75   -13378.752    1000.5309   -14379.283    10.586328    1.0922001 
    3200    231.00717   -231.27467    181563.75   -13387.978    950.25214    -14338.23    10.757139    1.0922001 
    3300    244.34941   -528.55474    181563.75   -13353.038    1005.1357   -14358.173    11.223143    1.0922001 
    3400    238.83131   -358.80616    181563.75   -13371.824    982.43686   -14354.261    11.563793    1.0922001 
    3500     237.5311   -347.95278    181563.75   -13366.257    977.08841   -14343.345    11.842307    1.0922001 
    3600    242.49259   -336.55338    181563.75   -13354.807    997.49762   -14352.304    12.148677    1.0922001 
    3700    235.34533   -353.62142    181563.75   -13386.263    968.09721    -14354.36    12.526064    1.0922001 
    3800    232.20207   -320.58703    181563.75   -13370.804    955.16735   -14325.971    12.934404    1.0922001 
    3900    237.68908   -386.74931    181563.75   -13383.768     977.7383   -14361.507     13.29442    1.0922001 
    4000    233.04932   -448.50486    181563.75   -13393.696    958.65253   -14352.348    13.550906    1.0922001 
    4100    244.20296   -409.98062    181563.75    -13362.07    1004.5333   -14366.603    13.694631    1.0922001 
    4200    238.64867   -267.45766    181563.75    -13333.48    981.68556   -14315.165    14.008228    1.0922001 
    4300     235.8874   -236.12769    181563.75   -13269.409    970.32704   -14239.737     14.42364    1.0922001 
    4400    243.76696    -528.8872    181563.75    -13276.15    1002.7397    -14278.89    15.134022    1.0922001 
    4500    235.17486   -447.57246    181563.75   -13318.426    967.39598   -14285.822     15.53785    1.0922001 
    4600    242.07178   -318.72796    181563.75    -13335.35    995.76659   -14331.117    15.785987    1.0922001 
    4700    243.55148   -440.88844    181563.75   -13338.842    1001.8534   -14340.695    16.051089    1.0922001 
    4800    247.23286    -320.2455    181563.75   -13319.381    1016.9968   -14336.378    16.366426    1.0922001 
    4900     238.5096   -338.02234    181563.75   -13349.122    981.11348   -14330.236    16.641885    1.0922001 
    5000    241.16744   -440.49427    181563.75   -13365.925    992.04658   -14357.971    16.682489    1.0922001 
    5100    241.09999   -275.59951    181563.75   -13379.466     991.7691   -14371.235    17.121463    1.0922001 
    5200    237.00789   -297.85734    181563.75   -13371.079    974.93619   -14346.015    17.297787    1.0922001 
    5300    233.00099   -429.45206    181563.75   -13413.868    958.45376   -14372.322    17.163687    1.0922001 
    5400    240.35008   -417.21409    181563.75   -13381.193    988.68436   -14369.877    17.666032    1.0922001 
    5500    236.50943   -363.96679    181563.75   -13399.111    972.88576   -14371.996    18.088519    1.0922001 
    5600    235.69676   -321.28639    181563.75   -13404.891    969.54284   -14374.434    18.797327    1.0922001 
    5700    238.50361   -291.44075    181563.75   -13355.287    981.08885   -14336.376    19.034985    1.0922001 
    5800    247.12161   -355.18423    181563.75   -13291.869    1016.5391   -14308.408    19.174209    1.0922001 
    5900    242.63071   -331.00886    181563.75   -13329.923    998.06578   -14327.989     19.28398    1.0922001 
    6000    229.09652   -193.17449    181563.75   -13380.345    942.39262   -14322.737    19.116494    1.0922001 
    6100    235.05271   -182.63507    181563.75   -13364.735    966.89354   -14331.628    19.187422    1.0922001 
    6200    235.20645   -523.01817    181563.75   -13336.361    967.52594   -14303.887    19.803994    1.0922001 
    6300    244.35983   -399.87137    181563.75   -13303.449    1005.1785   -14308.628    20.047398    1.0922001 
    6400    237.62664   -316.12532    181563.75   -13299.667    977.48144   -14277.148    20.138073    1.0922001 
    6500    248.56137   -208.12159    181563.75   -13313.151    1022.4616   -14335.612    20.339145    1.0922001 
    6600    236.04132    -312.4817    181563.75   -13371.975     970.9602   -14342.936    20.885061    1.0922001 
    6700    235.91251   -307.97371    181563.75   -13396.868    970.43035   -14367.298    20.937032    1.0922001 
    6800    239.17708   -468.63948    181563.75   -13384.057    983.85921   -14367.916    21.459115    1.0922001 
    6900    229.21526   -382.76121    181563.75   -13415.284    942.88105   -14358.165    21.874492    1.0922001 
    7000    228.69706   -252.85971    181563.75   -13414.379    940.74944   -14355.128    22.004978    1.0922001 
    7100    240.61229   -325.16505    181563.75   -13347.835    989.76297   -14337.598    22.087644    1.0922001 
    7200    247.86839   -260.85663    181563.75   -13355.517     1019.611   -14375.128    22.163365    1.0922001 
    7300    229.79328   -357.02162    181563.75   -13423.212    945.25876   -14368.471    22.366482    1.0922001 
    7400    231.05324   -324.86581    181563.75   -13433.726    950.44163   -14384.168    22.613165    1.0922001 
    7500    233.55914   -424.21226    181563.75   -13447.221    960.74968    -14407.97     23.07794    1.0922001 
    7600    231.17528   -550.14352    181563.75   -13459.056    950.94365       -14410     23.46831    1.0922001 
    7700    224.00223   -480.89357    181563.75   -13429.333    921.43717    -14350.77    23.749083    1.0922001 
    7800     239.4726   -465.90782    181563.75    -13373.84    985.07482   -14358.915    23.863905    1.0922001 
    7900    241.36816   -467.08682    181563.75   -13370.188    992.87222    -14363.06    23.928998    1.0922001 
    8000    239.28472   -354.67223    181563.75   -13365.479    984.30198   -14349.781    24.549279    1.0922001 
    8100    238.66937   -312.77598    181563.75   -13368.441    981.77071   -14350.212    25.230209    1.0922001 
    8200    235.50405   -372.45143    181563.75   -13401.283     968.7501   -14370.033     25.64446    1.0922001 
    8300    231.61073   -531.58326    181563.75   -13407.301    952.73488   -14360.035    26.038262    1.0922001 
    8400    231.82862   -446.12254    181563.75   -13393.142    953.63115   -14346.773    26.217553    1.0922001 
    8500    239.77637   -365.19049    181563.75   -13373.546    986.32438    -14359.87     26.54079    1.0922001 
    8600    242.13921   -324.58219    181563.75   -13341.906    996.04396    -14337.95    26.741176    1.0922001 
    8700    226.07333   -300.10439    181563.75   -13401.465    929.95667   -14331.421    27.042038    1.0922001 
    8800    238.14648   -255.05961    181563.75   -13352.885    979.61981   -14332.504    27.260314    1.0922001 
    8900    235.75304   -257.10871    181563.75   -13376.559    969.77435   -14346.333    27.225964    1.0922001 
    9000     236.1305   -413.09986    181563.75   -13340.873    971.32703     -14312.2    27.433704    1.0922001 
    9100      243.675   -418.81935    181563.75   -13338.071    1002.3614   -14340.433    27.482115    1.0922001 
    9200    234.66742   -217.07443    181563.75    -13363.53    965.30861   -14328.839    28.002727    1.0922001 
    9300    238.89923   -309.84187    181563.75   -13374.321    982.71624   -14357.038    28.135648    1.0922001 
    9400    235.84567   -319.66449    181563.75   -13396.259    970.15539   -14366.415    28.530561    1.0922001 
    9500    233.68445   -336.58261    181563.75   -13375.572    961.26516   -14336.837    28.554291    1.0922001 
    9600     232.3951   -376.56845    181563.75   -13438.071    955.96141   -14394.033    28.634835    1.0922001 
    9700     236.7269    -503.8269    181563.75    -13378.92    973.78034     -14352.7     29.32426    1.0922001 
    9800    239.86633   -269.12752    181563.75   -13410.451    986.69444   -14397.145     29.38455    1.0922001 
    9900    240.80862   -504.97174    181563.75   -13357.812    990.57055   -14348.382    29.577295    1.0922001 
   10000    246.61235   -283.06296    181563.75   -13309.847    1014.4443   -14324.291    30.079926    1.0922001 
Loop time of 11.4703 on 64 procs for 10000 steps with 9253 atoms

Performance: 376.624 ns/day, 0.064 hours/ns, 871.814 timesteps/s
100.0% CPU use with 64 MPI tasks x no OpenMP threads

MPI task timing breakdown:
Section |  min time  |  avg time  |  max time  |%varavg| %total
---------------------------------------------------------------
Pair    | 0.0010617  | 3.3071     | 9.264      | 168.5 | 28.83
Neigh   | 0.0079363  | 0.24042    | 0.5785     |  39.0 |  2.10
Comm    | 0.3264     | 2.9379     | 8.6266     | 146.1 | 25.61
Output  | 0.15792    | 0.15799    | 0.15878    |   0.0 |  1.38
Modify  | 0.26       | 4.7144     | 10.859     | 204.1 | 41.10
Other   |            | 0.1126     |            |       |  0.98

Nlocal:    144.578 ave 291 max 0 min
Histogram: 18 6 0 8 0 0 0 2 18 12
Nghost:    961.734 ave 1350 max 657 min
Histogram: 13 3 1 17 6 0 14 2 1 7
Neighs:    0 ave 0 max 0 min
Histogram: 64 0 0 0 0 0 0 0 0 0
FullNghs:  15598.9 ave 35654 max 0 min
Histogram: 24 8 0 0 0 0 0 15 12 5

Total # of neighbors = 998332
Ave neighs/atom = 107.893
Neighbor list builds = 553
Dangerous builds = 0
write_data 	    ${DIR}/data.${NAME}_eq
write_data 	    run_8/data.${NAME}_eq
write_data 	    run_8/data.ibeam_cooling_8_eq

undump              1
unfix               4



################################################
#######         Run Simulation         #########
################################################

reset_timestep      0
timestep	    10.0
log                 ${DIR}/log.run_${NAME}
log                 run_8/log.run_${NAME}
log                 run_8/log.run_ibeam_cooling_8
