
# Set production fixes - Nose/Hoover
#
fix                 4 water temp/csvr ${START_TEMP} ${END_TEMP} 500.0 928347
fix                 4 water temp/csvr 235 ${END_TEMP} 500.0 928347
fix                 4 water temp/csvr 235 225 500.0 928347


## divide "droplet" into core and surface
#region		core_reg cylinder z 135 135 44.6 20 INF units box
#region		surface_reg cylinder z 135 135 44.6 20 INF units box side out
#group		core dynamic all region core_reg
#group		surface dynamic all region surface_reg

## compute pressure core
#compute        peratom_core core stress/atom NULL
#compute        p_core core reduce sum c_peratom_core[1] c_peratom_core[2] c_peratom_core[3]
#variable       press_core equal -(c_p_core[1]+c_p_core[2]+c_p_core[3])/(3*1249982.5)


## compute pressure surface
#compute        peratom_surf surface stress/atom NULL
#compute        p_surf surface reduce sum c_peratom_surf[1] c_peratom_surf[2] #c_peratom_surf[3]
#variable       press_surf equal -(c_p_surf[1]+c_p_surf[2]+c_p_surf[3])/(3*42395)

## compute total pressure of drop
compute        peratom water stress/atom NULL
compute        p water reduce sum c_peratom[1] c_peratom[2] c_peratom[3]
variable       press equal -(c_p[1]+c_p[2]+c_p[3])/(3*50402)


# compute order parameter
compute        3 all orientorder/atom nnn NULL cutoff 3.5

# compute center of mass of bridge
compute 	4 water com

# Run simulation
thermo_style        custom step c_2 press vol etotal ke pe v_press c_1[4] c_4[*]
thermo              200
dump		     1 water custom 400 ${DIR}/prod.${NAME}.dump id type x y z vx vy vz c_3[*] c_peratom[*]
dump		     1 water custom 400 run_2/prod.${NAME}.dump id type x y z vx vy vz c_3[*] c_peratom[*]
dump		     1 water custom 400 run_2/prod.ibeam_cooling_2.dump id type x y z vx vy vz c_3[*] c_peratom[*]
run                 ${STEPS}
run                 4000000
Neighbor list info ...
  update every 1 steps, delay 0 steps, check yes
  max neighbors/atom: 2000, page size: 100000
  master list distance cutoff = 6.6747184
  ghost atom cutoff = 6.6747184
  binsize = 3.3373592, bins = 24 25 11
  2 neighbor lists, perpetual/occasional/extra = 1 1 0
  (1) pair sw, perpetual
      attributes: full, newton on
      pair build: full/bin/atomonly
      stencil: full/bin/3d
      bin: standard
  (2) compute orientorder/atom, occasional, copy from (1)
      attributes: full, newton on
      pair build: copy
      stencil: none
      bin: none
Per MPI rank memory allocation (min/avg/max) = 6.133 | 6.755 | 7.258 Mbytes
Step c_2 Press Volume TotEng KinEng PotEng v_press c_1[4] c_4[1] c_4[2] c_4[3] 
       0     239.5744    -300.2871    216156.16    -20236.27    1517.5173   -21753.787   -606.47089    30.254449    39.419325    39.240341    23.745852 
     200    234.46515   -367.96277    216156.16   -20252.454    1485.1541   -21737.608     -930.955    31.167049    39.416817    39.239485    23.720669 
     400     228.8669   -247.53622    216156.16   -20230.535    1449.6936   -21680.229   -411.33286    32.030174    39.417808    39.241105    23.733374 
     600    235.05346   -280.47879    216156.16   -20124.544    1488.8807   -21613.424   -520.66428    33.260991    39.419051    39.241555    23.740315 
     800    238.66418   -427.71561    216156.16   -20116.488    1511.7518    -21628.24   -1209.9267    34.377014    39.420635    39.241787    23.719642 
    1000    233.27696   -322.68228    216156.16   -20220.606    1477.6279   -21698.234   -726.69148    35.518906    39.422683    39.243251    23.714957 
    1200    231.78554   -287.87046    216156.16   -20181.398    1468.1809   -21649.579   -552.91516    36.588143    39.422483    39.244488     23.72338 
    1400    232.13753   -319.90765    216156.16    -20185.54    1470.4105   -21655.951    -674.0451    38.431038    39.423885    39.242555      23.6862 
    1600     238.2304   -444.80381    216156.16   -20207.262    1509.0041   -21716.266   -1202.7199    39.961173    39.426506    39.239827    23.677722 
    1800    243.22035   -426.77618    216156.16   -20196.902    1540.6115   -21737.514   -1145.2488    40.090982     39.42722    39.239291    23.663081 
    2000    248.61755   -461.83199    216156.16   -20143.175    1574.7986   -21717.974   -1352.3061     40.51178    39.425496    39.239041    23.667865 
    2200    237.83507   -424.59372    216156.16   -20217.062       1506.5   -21723.562   -1133.0966    41.322753    39.426171    39.237895    23.672046 
    2400    235.37823   -327.48512    216156.16   -20218.561    1490.9378   -21709.499   -744.89671    41.709066    39.424876    39.236992    23.674422 
    2600    235.35108   -329.26859    216156.16   -20248.583    1490.7659   -21739.349   -737.44152    43.863253    39.422725    39.236932    23.685163 
    2800    243.59401    -321.7739    216156.16   -20140.279    1542.9784   -21683.258   -719.06677     44.99313    39.423554    39.236951    23.688649 
    3000    239.60528   -387.18285    216156.16   -20112.362    1517.7129   -21630.075   -1038.4893    46.136835    39.425014    39.235509    23.683751 
    3200    232.57122   -321.12108    216156.16   -20181.334    1473.1576   -21654.492   -712.48573    48.621442     39.42577    39.235436    23.668544 
    3400    231.80998   -546.17207    216156.16   -20161.408    1468.3357   -21629.744    -1713.047    50.547605    39.425408    39.232233    23.677381 
    3600    228.88841   -301.08159    216156.16   -20165.956    1449.8299   -21615.786   -633.36697     50.64859    39.427343    39.230939    23.690757 
    3800    237.30379   -134.25891    216156.16   -20136.056    1503.1347   -21639.191    80.094523    52.579657    39.427441    39.231001    23.679144 
    4000    241.22277   -373.21944    216156.16   -20198.793    1527.9584   -21726.752   -907.13876    53.458837    39.426738    39.230866    23.678593 
    4200    235.13383   -350.67893    216156.16   -20185.998    1489.3897   -21675.388     -867.073    54.825515     39.42154     39.23175     23.68326 
    4400    232.55379   -404.26983    216156.16   -20200.484    1473.0472   -21673.531   -1098.1448    56.621237     39.41944    39.232186    23.686728 
    4600    231.58348   -323.50366    216156.16   -20296.101     1466.901   -21763.002   -717.34504    58.068795    39.416208    39.232527    23.698482 
    4800    235.62657   -406.68632    216156.16   -20196.961    1492.5108   -21689.472   -1083.4589    58.182531    39.415077    39.233818    23.715214 
    5000    234.32264   -416.11478    216156.16    -20207.05    1484.2515   -21691.302   -1118.0789    58.887896    39.413377    39.232699    23.742219 
    5200    233.86029    -380.9266    216156.16   -20186.233    1481.3229   -21667.556   -921.77766    59.776105     39.41327    39.235166    23.785934 
    5400    236.85214   -243.20263    216156.16   -20205.295    1500.2739   -21705.569   -416.20706    60.620801    39.413819    39.234958    23.814408 
    5600    232.81172   -503.87431    216156.16   -20234.667     1474.681   -21709.348   -1494.6631    61.490991     39.41572    39.237832    23.809656 
    5800    230.25838   -348.19817    216156.16   -20177.523    1458.5075    -21636.03    -829.8216    62.854969    39.417932    39.238462    23.819953 
    6000    231.03125   -393.99663    216156.16   -20202.177    1463.4031    -21665.58   -1022.4636    63.566874    39.418577    39.239441    23.829359 
    6200    236.92956   -473.89726    216156.16   -20252.517    1500.7643   -21753.281   -1341.1761    64.011958      39.4208    39.241386    23.828699 
    6400    235.57607   -345.17652    216156.16    -20247.41    1492.1909   -21739.601   -811.14873    65.282859     39.42309    39.244828    23.836728 
    6600    230.62716   -329.29146    216156.16   -20279.131    1460.8435   -21739.974    -763.1885    65.378959    39.423373     39.24518    23.846034 
    6800    234.39965   -412.70443    216156.16   -20265.858    1484.7392   -21750.597   -1072.0208    66.542325     39.42453    39.243503    23.843765 
    7000    236.77099   -365.74503    216156.16   -20206.551    1499.7599   -21706.311   -925.49906     67.95857    39.423952    39.245057     23.83761 
    7200    224.72206   -352.26616    216156.16   -20271.217    1423.4392   -21694.656   -850.45723    69.069252    39.424552    39.248012    23.832378 
    7400    229.59507   -389.49076    216156.16   -20245.892     1454.306   -21700.198    -1014.944    69.610186    39.423894    39.248775    23.826719 
    7600    242.67294   -429.94782    216156.16   -20117.006    1537.1441    -21654.15   -1204.5769    70.778107    39.425072    39.249504    23.802924 
    7800      232.352     -423.792    216156.16   -20257.704     1471.769   -21729.473   -1156.3208    72.540718     39.42521     39.24737    23.800589 
    8000    239.37452   -322.59143    216156.16   -20138.294    1516.2512   -21654.545   -715.59038    73.049314    39.425364    39.247566    23.787777 
    8200    238.41771   -418.70935    216156.16    -20142.25    1510.1906   -21652.441   -1094.6547    74.339539     39.42623    39.248695    23.785975 
    8400    237.88022   -296.35882    216156.16   -20082.647    1506.7859   -21589.433   -636.72655     76.34559    39.427369    39.248061    23.808174 
    8600    233.59298   -564.48037    216156.16   -20148.302    1479.6296   -21627.931   -1707.4175    77.659958    39.429912    39.248697    23.789311 
    8800    237.68054   -600.58038    216156.16   -20149.666    1505.5211   -21655.187   -1913.2232    78.974855    39.429788     39.24886    23.780827 
    9000    233.26013   -447.16516    216156.16   -20144.731    1477.5213   -21622.253   -1238.1733    79.435721    39.428664    39.250452    23.776212 
    9200    243.84357   -281.14815    216156.16   -20113.692    1544.5591   -21658.251   -514.09893    79.619581    39.427873    39.251719    23.789546 
    9400    235.10876   -395.15089    216156.16   -20147.271    1489.2309   -21636.502   -1054.9553    81.208735    39.424117    39.252037    23.813314 
    9600    234.91423   -332.95585    216156.16   -20169.235    1487.9987   -21657.233   -764.47948    82.672916    39.425371    39.252176    23.801294 
    9800    235.25539    -419.0732    216156.16   -20096.164    1490.1597   -21586.324   -1100.7605    82.985042    39.424307    39.252702    23.812044 
   10000    235.17729   -602.51699    216156.16   -20143.849     1489.665   -21633.514    -1902.355    85.373382    39.420026    39.253154    23.830761 
   10200    243.70512   -535.37479    216156.16   -20071.604    1543.6821   -21615.286    -1568.637    85.856313    39.418073     39.25146    23.856051 
   10400    244.96745   -309.08224    216156.16   -20109.663    1551.6781   -21661.341   -687.89111    86.507158    39.418159    39.252717    23.844522 
   10600    235.39582   -465.43782    216156.16   -20189.322    1491.0492   -21680.371   -1324.4034    87.909419    39.416322    39.251671    23.839207 
   10800    230.47844   -397.80943    216156.16   -20279.678    1459.9014   -21739.579   -1019.7363    89.134766    39.415559     39.25039    23.830549 
   11000    229.39686   -350.84007    216156.16   -20225.605    1453.0505   -21678.656     -811.704    89.437008    39.413266    39.248206    23.827251 
   11200    230.90861   -438.68043    216156.16   -20223.231    1462.6262   -21685.857   -1232.7776     91.32421    39.412509    39.247024    23.812808 
   11400     235.2867   -432.60792    216156.16   -20203.435    1490.3581   -21693.793   -1226.6417     92.10049     39.41243    39.250442    23.802389 
   11600    244.83903   -255.77577    216156.16   -20091.706    1550.8646    -21642.57   -514.30739    94.119166    39.412835    39.252118    23.813179 
   11800    240.31312   -303.44338    216156.16   -20129.014    1522.1965   -21651.211   -678.47014    95.554022    39.412812    39.253081    23.802798 
   12000    236.58279   -399.82771    216156.16   -20131.745    1498.5678   -21630.312    -1017.644    97.238355    39.410816    39.254809    23.818947 
   12200      236.206    -449.0903    216156.16   -20127.548    1496.1811   -21623.729   -1285.5999    99.118954        39.41    39.257646    23.829749 
   12400    239.33187   -329.24434    216156.16   -20191.193    1515.9811   -21707.174   -792.99806    100.04163    39.409199    39.258083    23.852692 
   12600    238.82697   -320.14814    216156.16   -20119.446    1512.7829   -21632.229   -675.39035    101.26819    39.409888    39.261013    23.856008 
   12800    235.88194   -401.39555    216156.16   -20190.735    1494.1285   -21684.864   -1072.6754    103.19105    39.409609    39.260079    23.831603 
   13000    235.50589   -349.91462    216156.16    -20227.59    1491.7465   -21719.337   -816.03693    103.36935    39.407701    39.257785    23.831787 
   13200    234.44689   -332.95917    216156.16   -20223.393    1485.0385   -21708.432   -737.49363    104.01559    39.406912    39.257725    23.821674 
   13400    233.39375   -331.85668    216156.16   -20307.824    1478.3677   -21786.192   -756.26121     105.1974    39.408208    39.257697    23.813648 
   13600    236.76021   -289.60026    216156.16   -20204.801    1499.6916   -21704.492   -573.68396    104.40998    39.409749    39.257797    23.811539 
   13800    236.64223   -483.98284    216156.16   -20167.158    1498.9443   -21666.102   -1411.6357    106.09256    39.410064    39.258741    23.809467 
   14000     242.2427   -415.82935    216156.16   -20142.192    1534.4189   -21676.611   -1114.8926    108.43309    39.410854    39.257344    23.795893 
   14200    234.95508   -204.65451    216156.16    -20174.22    1488.2575   -21662.477   -202.53381    108.25129    39.410388    39.255806    23.797652 
   14400    240.27532    -332.9617    216156.16   -20231.713    1521.9571    -21753.67   -729.59897    108.71784    39.409103    39.255775    23.819322 
   14600    234.02436   -247.26697    216156.16   -20224.026    1482.3621   -21706.388    -406.2513    110.48734    39.409519    39.255612    23.829656 
   14800    235.11093   -507.61671    216156.16   -20203.805    1489.2447    -21693.05   -1524.7657    112.66559    39.409023    39.255576    23.835384 
   15000    234.04751   -205.40573    216156.16   -20229.883    1482.5087   -21712.392   -146.10961    113.09317    39.408961    39.251859    23.825737 
   15200     241.4196   -301.62924    216156.16   -20212.115    1529.2052    -21741.32   -631.04539    112.94279    39.410063    39.250879    23.826039 
   15400    232.05875   -510.80195    216156.16   -20295.265    1469.9115   -21765.177   -1506.4249    113.93123    39.409761    39.249365    23.823649 
   15600    239.70216   -206.85468    216156.16   -20118.813    1518.3266   -21637.139   -227.18702    115.20314     39.41055    39.249407    23.807693 
   15800    236.81316   -353.63985    216156.16   -20174.989     1500.027   -21675.016   -830.86583    116.58775    39.410217    39.250286    23.813654 
   16000    232.22474   -328.30562    216156.16   -20186.268    1470.9629   -21657.231   -724.43152    117.14883    39.410487    39.249709    23.822122 
   16200    236.67716   -178.37975    216156.16   -20158.154    1499.1656    -21657.32   -127.23558    119.43563    39.412729    39.251484     23.81417 
   16400    241.40633   -482.60643    216156.16   -20200.687    1529.1211   -21729.808   -1388.8782    121.02774    39.410982    39.252486     23.79317 
   16600    238.59399   -396.86916    216156.16   -20134.881    1511.3071   -21646.188   -1047.1818    122.67898     39.40974    39.253784    23.783526 
   16800    229.39872   -444.15358    216156.16   -20183.819    1453.0623   -21636.882   -1243.4503     123.9401    39.408957    39.256843    23.791632 
   17000    235.68632   -411.10874    216156.16   -20237.668    1492.8893   -21730.557   -1128.8417    125.58876    39.411281    39.256917    23.782802 
   17200    235.50162   -380.87075    216156.16   -20201.125    1491.7194   -21692.844   -940.60512     125.4558     39.40993    39.255366    23.788951 
   17400    227.74453   -395.04261    216156.16   -20247.707    1442.5843   -21690.292    -1027.663    126.06152    39.410567    39.254625    23.775839 
   17600    237.56633    -521.0629    216156.16   -20205.572    1504.7977   -21710.369   -1584.2888    127.39914    39.410256     39.25355    23.765874 
   17800    233.20896   -401.73729    216156.16   -20246.523    1477.1972    -21723.72   -1064.6276    127.76713    39.409317      39.2553    23.781685 
   18000    234.72763   -253.52588    216156.16   -20201.775    1486.8167   -21688.592   -415.25844    129.18262    39.410144    39.257104    23.791429 
   18200    230.73735   -289.99301    216156.16   -20180.076    1461.5414   -21641.617    -583.6478    131.38532    39.410851    39.257363    23.807055 
   18400    235.98555   -539.87581    216156.16   -20128.704    1494.7847   -21623.489   -1660.1456    132.29276    39.409651    39.257435    23.802601 
   18600    231.82174   -346.54056    216156.16   -20115.301    1468.4102   -21583.712    -810.5244    131.71466    39.407812    39.256072    23.810794 
   18800    228.94324    -456.6687    216156.16   -20155.326    1450.1772   -21605.504   -1285.8235    134.13177    39.406292    39.254098    23.808968 
   19000    238.70834   -317.67373    216156.16   -20101.707    1512.0314   -21613.738   -688.46491    133.83672    39.407681    39.253001    23.809482 
   19200    233.41426   -451.99598    216156.16   -20152.921    1478.4976   -21631.419   -1327.4189    135.84414    39.405995    39.251678    23.824759 
   19400    235.78052   -395.91396    216156.16   -20085.471     1493.486   -21578.957   -1010.0179    136.59452    39.405484    39.252826    23.820374 
   19600    233.91316   -369.24451    216156.16   -20081.096    1481.6577   -21562.754   -924.01527     139.1637    39.404507    39.251158    23.812562 
   19800    235.75048   -275.05694    216156.16   -20084.667    1493.2957   -21577.963   -530.05683    139.37259    39.402554    39.254138    23.814444 
   20000    232.55869   -546.06868    216156.16   -20108.661    1473.0782   -21581.739   -1670.9625    140.36949    39.398887    39.256044     23.80456 
   20200    229.34336    -440.2372    216156.16   -20174.331    1452.7116   -21627.042   -1162.1076    142.10523    39.397015    39.256089    23.797616 
   20400     243.4642   -476.16481    216156.16   -20091.586    1542.1562   -21633.742   -1376.9188    143.78935    39.394056    39.256153    23.784176 
   20600     232.1907   -272.62395    216156.16   -20155.457    1470.7473   -21626.204   -517.26915    144.31637    39.390962    39.257149    23.779181 
   20800    236.34858   -238.04576    216156.16   -20097.598    1497.0842   -21594.682   -297.51678     146.1975    39.391806     39.25869     23.80272 
   21000    236.16897   -337.82884    216156.16   -20124.462    1495.9466   -21620.409   -776.31287    148.48979    39.392179    39.259274    23.789579 
   21200    240.08518   -409.01205    216156.16   -20085.989    1520.7527   -21606.741   -1050.2287    150.66033    39.390835    39.256412    23.762421 
   21400    238.57305   -349.84596    216156.16   -20144.274    1511.1745   -21655.448   -780.01479    151.55999    39.389323     39.25896    23.772026 
   21600     243.8468   -364.52728    216156.16   -20070.774    1544.5796   -21615.353   -851.61401    152.02045    39.387194    39.263001    23.770883 
   21800    236.62747   -562.15389    216156.16   -20189.702    1498.8508   -21688.553   -1691.1986    153.06952    39.389543    39.262918    23.802266 
   22000    232.70217   -392.75956    216156.16   -20244.901    1473.9871   -21718.888   -947.52319    153.62512    39.390109    39.260442    23.789839 
   22200    231.35976   -297.61308    216156.16    -20277.08    1465.4839   -21742.564   -584.68397    155.83249    39.391122    39.261547    23.782732 
   22400    234.69854   -347.39673    216156.16   -20153.107    1486.6325    -21639.74   -805.42629    159.65928    39.393443    39.261856    23.792939 
   22600    233.85384   -451.09314    216156.16   -20144.545     1481.282   -21625.827   -1252.8149    161.61119    39.393241    39.260064    23.805002 
   22800    231.57036   -227.02275    216156.16   -20121.441    1466.8179   -21588.259   -279.89006    162.42248    39.393576    39.261275     23.79624 
   23000    233.12496   -386.57285    216156.16   -20204.878    1476.6651   -21681.543   -983.41503    162.46118    39.395087    39.261748     23.78048 
   23200    234.05307   -423.57525    216156.16   -20128.436     1482.544    -21610.98   -1177.7898    162.62028    39.396654    39.261578       23.784 
   23400    234.91902   -325.71044    216156.16   -20118.459    1488.0291   -21606.488   -735.47064    163.72208    39.398057    39.260575    23.771927 
   23600    239.52254   -278.72815    216156.16   -20066.025    1517.1888   -21583.214   -512.63126    163.23307    39.395652    39.260964    23.734601 
   23800    239.68212   -402.66772    216156.16    -20078.23    1518.1996   -21596.429   -1081.9027    163.93124    39.394902    39.261693     23.72928 
   24000    234.49611   -488.10645    216156.16    -20114.24    1485.3503    -21599.59   -1475.8801    163.24493    39.395266    39.261201    23.737517 
   24200    237.44815   -398.00783    216156.16   -20128.103    1504.0492   -21632.152    -1069.335    166.01827    39.394373    39.261176    23.745648 
   24400    243.27454   -316.04947    216156.16     -20182.7    1540.9548   -21723.654   -670.58325    166.43238    39.393707    39.260589    23.758144 
   24600    232.91472   -435.65022    216156.16   -20237.398    1475.3334   -21712.731   -1206.3326    167.98809     39.39153     39.25978    23.772975 
   24800    232.94353   -344.53395    216156.16   -20218.017    1475.5159   -21693.533   -802.27288    167.71702    39.391585    39.259564     23.78831 
   25000    230.04808   -400.56987    216156.16   -20225.567    1457.1754   -21682.743   -1020.3116    170.52107    39.389014    39.257389    23.800817 
   25200     225.8675    -362.4284    216156.16   -20310.161    1430.6947   -21740.856   -916.91651    171.79269    39.387228     39.25771    23.817953 
   25400    234.93676   -411.70263    216156.16   -20205.333    1488.1415   -21693.474   -1103.8181    172.75406    39.387554    39.257898    23.802497 
   25600    243.61324   -287.19528    216156.16   -20079.248    1543.1002   -21622.348   -550.14197    172.98176    39.385792    39.256402     23.80255 
   25800    243.56544   -344.59737    216156.16   -20141.826    1542.7974   -21684.624   -833.48156    171.72805    39.385614    39.256006    23.826929 
   26000    230.16415   -349.84405    216156.16   -20180.061    1457.9107   -21637.972   -855.69989    171.50648    39.385843    39.257819     23.82737 
   26200     235.2305   -334.87489    216156.16   -20205.316     1490.002   -21695.319   -763.69465    171.95755    39.385729    39.256495    23.809591 
   26400    232.21159   -470.70184    216156.16   -20223.348    1470.8796   -21694.228   -1352.7208    172.75993    39.385918    39.257057    23.808458 
   26600    247.86677   -294.59653    216156.16   -20146.005     1570.043   -21716.048   -571.36561    173.20748    39.385578    39.255341    23.802492 
   26800    236.53793   -225.46159    216156.16   -20160.937    1498.2836    -21659.22   -323.15762    174.17862    39.384194    39.257712    23.794661 
   27000    232.80715    -314.7358    216156.16   -20091.391     1474.652   -21566.043   -713.40619    174.86772    39.382568    39.258029     23.82249 
   27200    238.51218   -476.20436    216156.16   -20153.266     1510.789   -21664.055   -1399.9232     177.8131     39.38404    39.256546    23.814441 
   27400     234.6426    -450.0987    216156.16   -20105.318    1486.2781   -21591.596   -1241.7926    177.10899    39.385189    39.254743    23.828228 
   27600    234.13253   -498.60015    216156.16   -20216.842    1483.0472   -21699.889   -1521.9609    178.41722    39.384335    39.254465    23.831879 
   27800    236.85014   -393.43162    216156.16    -20104.95    1500.2612   -21605.211     -1046.71    178.08924    39.383367      39.2543    23.852732 
   28000    230.70342   -463.07829    216156.16   -20181.238    1461.3265   -21642.564   -1291.2313    177.75783    39.381489    39.253624    23.843283 
   28200     237.5955   -290.26609    216156.16   -20170.073    1504.9825   -21675.055   -595.44716    178.33054    39.380683    39.253622    23.837959 
   28400    236.05199   -436.91519    216156.16   -20178.175    1495.2055   -21673.381     -1186.46    179.62985    39.380393    39.250674    23.833151 
   28600    235.82529   -474.23802    216156.16   -20221.674    1493.7696   -21715.443   -1398.2915      180.443    39.378725    39.250121    23.849637 
   28800    229.34533    -449.0195    216156.16   -20231.887    1452.7241   -21684.611   -1270.2383    182.00687    39.377612    39.249489    23.859119 
   29000    231.38504   -455.65857    216156.16   -20178.017     1465.644   -21643.661   -1302.8841    181.87128    39.381505    39.248252    23.841648 
   29200    239.04942   -304.56157    216156.16   -20101.966    1514.1919   -21616.158   -639.77181    184.16052     39.38104    39.247043    23.844076 
   29400    229.95952    -285.9662    216156.16   -20142.727    1456.6145   -21599.341   -575.06758    186.79598    39.381528    39.246065    23.839648 
   29600    241.80247   -415.63066    216156.16   -20189.259    1531.6304   -21720.889   -1099.0018    190.11217    39.381471    39.247479    23.828866 
   29800    232.91513   -375.94696    216156.16   -20286.365     1475.336   -21761.701   -932.30271    189.31294    39.382103    39.248702    23.841057 
   30000    231.42072    -374.7246    216156.16   -20328.617    1465.8701   -21794.487   -891.30122    188.37583    39.379942    39.248666    23.834659 
   30200    233.20626   -231.66474    216156.16   -20274.439      1477.18   -21751.619   -353.82566    187.27635    39.378064    39.248646    23.848693 
   30400    237.92723   -380.12679    216156.16     -20264.6    1507.0838   -21771.683   -996.65626      187.238    39.376819    39.246552    23.854543 
   30600     231.5703   -266.95157    216156.16   -20275.124    1466.8175   -21741.941   -462.84431    187.25416    39.374537    39.247547    23.868836 
   30800    237.60298   -445.78194    216156.16   -20221.775    1505.0299   -21726.805   -1195.6137    188.60349    39.372853    39.248835     23.86493 
   31000    234.35524   -277.67812    216156.16   -20238.625     1484.458   -21723.083   -498.23136    188.96314    39.372822    39.248932    23.842585 
   31200     234.5957   -408.71255    216156.16   -20219.352    1485.9811   -21705.333   -1120.1615     189.2991    39.373819    39.250211    23.837813 
   31400     238.8959   -617.79486    216156.16   -20217.833    1513.2195   -21731.053   -1965.4831    189.65128     39.37462    39.251868    23.807515 
   31600     226.8087   -461.45477    216156.16   -20190.149    1436.6565   -21626.805   -1292.7044    190.79119    39.374081    39.252595    23.815595 
   31800      241.057   -499.21471    216156.16    -20102.55    1526.9084   -21629.458    -1436.091    191.37684    39.374028    39.252824    23.824756 
   32000    233.20946    -415.8879    216156.16   -20222.279    1477.2003   -21699.479    -1102.911    191.31531     39.37408    39.253051     23.80881 
   32200    233.27278    -395.5223    216156.16   -20233.033    1477.6014   -21710.635   -1028.2098    192.59695    39.375475    39.255628     23.79987 
   32400    230.48395   -334.30169    216156.16   -20261.218    1459.9364   -21721.154   -690.40563    193.92886    39.373296    39.257343    23.813433 
   32600    239.56135   -312.69627    216156.16   -20160.625    1517.4346    -21678.06   -740.22111    194.69217    39.371557    39.257231    23.813743 
   32800    239.36916   -354.42851    216156.16   -20159.764    1516.2173   -21675.981   -845.60299    195.41003     39.37043    39.257089    23.842911 
   33000    241.87055   -464.39316    216156.16   -20146.406    1532.0616   -21678.468   -1314.4915     195.5286    39.369481    39.256971    23.843974 
   33200    230.19908   -432.04523    216156.16   -20176.291    1458.1319   -21634.423   -1175.7649    197.42991    39.368392    39.254704    23.858892 
   33400    233.60054   -440.99625    216156.16    -20241.89    1479.6775   -21721.568   -1238.8194    198.79808    39.366501    39.253286    23.867174 
   33600    233.73869   -312.67689    216156.16     -20254.2    1480.5526   -21734.752   -651.15509    199.57308    39.366878    39.252326    23.881548 
   33800    238.43972   -294.82908    216156.16   -20117.087      1510.33   -21627.417   -583.71152    200.19773    39.365339    39.256771    23.860531 
   34000     235.7647   -364.46933    216156.16   -20239.174    1493.3858   -21732.559   -885.69284    201.64617    39.364995    39.257641    23.868573 
   34200    229.44028   -384.11257    216156.16   -20212.404    1453.3255    -21665.73   -975.28582    202.40006     39.36493    39.256958    23.845278 
   34400    229.80792   -420.71204    216156.16   -20257.291    1455.6543   -21712.945   -1085.9811    201.48025    39.364189    39.257047    23.839933 
   34600    238.65503   -350.23287    216156.16   -20122.111    1511.6938   -21633.805   -849.83693    202.60373    39.365677    39.258056    23.848792 
   34800    239.11373   -337.27882    216156.16   -20261.993    1514.5993   -21776.593   -770.37366    203.69221    39.366878    39.260457    23.827277 
   35000    227.26714   -370.96198    216156.16   -20289.849    1439.5604   -21729.409   -941.35155    204.71321    39.366903    39.261155    23.821942 
   35200    242.81219   -492.37323    216156.16   -20203.681    1538.0261   -21741.707   -1403.8387    205.21956    39.367171    39.260014    23.824427 
   35400    230.60666   -268.74287    216156.16   -20213.362    1460.7137   -21674.076   -511.04582    205.23775    39.366872    39.260025    23.836158 
   35600    234.24264   -365.69343    216156.16   -20190.885    1483.7448   -21674.629   -916.64297    205.69655    39.368354    39.257262    23.850995 
   35800    243.28579   -363.71376    216156.16   -20093.482    1541.0261   -21634.508   -912.55158    206.67475     39.37129     39.25495    23.863937 
   36000    228.94283   -181.85683    216156.16   -20220.969    1450.1746   -21671.144   -166.29302    206.67118    39.371571    39.254997    23.881837 
   36200    235.25501   -459.76304    216156.16   -20218.524    1490.1573   -21708.681   -1309.8624    208.54729    39.374136    39.255539    23.905887 
   36400    239.44325   -294.17839    216156.16   -20169.075    1516.6866   -21685.761   -569.58098    209.23843    39.373878    39.255657    23.897642 
   36600    238.99785   -298.93869    216156.16   -20169.651    1513.8653   -21683.517   -628.56142    210.06963    39.369339    39.255229    23.902783 
   36800    229.52854   -385.80251    216156.16   -20199.315    1453.8846     -21653.2   -943.86233    209.37468    39.370003    39.255785    23.894437 
   37000    234.39953   -276.43009    216156.16   -20220.557    1484.7385   -21705.295   -540.37168    209.57175    39.369171    39.255474    23.908374 
   37200    235.53807   -425.01875    216156.16   -20220.925    1491.9503   -21712.876    -1160.543    210.54828     39.36769    39.255074    23.894832 
   37400    232.07321   -254.51744    216156.16   -20206.602    1470.0031   -21676.605   -399.78472    210.77294    39.364884    39.255618    23.906048 
   37600    228.37978   -493.15555    216156.16   -20231.769    1446.6081   -21678.377   -1404.3779     211.6392    39.363771    39.256573    23.889546 
   37800    228.11993   -359.12419    216156.16   -20292.463    1444.9622   -21737.425   -861.07739    212.20543    39.362914    39.259365    23.876707 
   38000    238.75545    -468.4014    216156.16       -20184    1512.3299    -21696.33    -1347.167    213.96587    39.362779    39.258829     23.86461 
   38200    235.14566   -373.97835    216156.16   -20150.009    1489.4647   -21639.474   -913.59687    215.94876    39.366455    39.259301    23.871735 
   38400    233.79599   -364.79233    216156.16   -20101.297    1480.9156   -21582.213   -882.57073    215.31168    39.366737    39.258615    23.873341 
   38600    229.41317   -252.32135    216156.16   -20147.201    1453.1538   -21600.355   -387.29746    215.58559    39.366968    39.256396    23.870485 
   38800     230.6292   -333.97734    216156.16   -20125.818    1460.8564   -21586.674   -758.41149    216.41805    39.365945    39.255955    23.851263 
   39000    237.86908   -566.51378    216156.16   -20076.916    1506.7154   -21583.632   -1765.2851    219.05554    39.365869     39.25564    23.833722 
   39200     233.7402   -475.88018    216156.16   -20153.219    1480.5622   -21633.781   -1363.1906    221.48033    39.362763    39.255442    23.814289 
   39400     227.9448    -558.4033    216156.16   -20133.049    1443.8528   -21576.902   -1707.2836    223.18734    39.361711    39.255636    23.808988 
   39600    236.67143    -377.2552    216156.16   -20071.567    1499.1293   -21570.697    -963.5646    223.31586    39.361744    39.252289    23.805438 
   39800    230.77757   -403.36036    216156.16   -20142.491    1461.7962   -21604.287   -1063.3604    225.21057    39.360505     39.25114    23.837191 
   40000    240.25291   -478.57524    216156.16   -20114.729    1521.8151   -21636.544   -1377.6098    226.70638    39.359583     39.24811    23.847321 
   40200    242.21599   -183.35226    216156.16   -20130.508    1534.2497   -21664.757   -66.162468    228.07319    39.359205    39.247158    23.846283 
   40400    233.35476    -423.2236    216156.16   -20210.156    1478.1207   -21688.277   -1103.0596    228.38136    39.358511    39.246959    23.879224 
   40600    234.17161   -488.73001    216156.16   -20117.842    1483.2948   -21601.137   -1432.8604    229.47074     39.35893    39.245659    23.889589 
   40800    230.79402   -407.23608    216156.16   -20232.049    1461.9004    -21693.95   -1031.3712    231.38202    39.359751     39.24661    23.896268 
   41000    231.93083   -456.45678    216156.16   -20201.611    1469.1012   -21670.712   -1323.9758    233.15021    39.362304    39.246286    23.889815 
   41200    240.55745   -412.93976    216156.16   -20089.674    1523.7441   -21613.418   -1106.1765    234.72801    39.362867    39.244003    23.879852 
   41400    231.39297   -379.73407    216156.16   -20150.735    1465.6943   -21616.429   -941.30179    235.52531    39.363126    39.244612    23.877077 
   41600    232.90634   -442.93757    216156.16   -20148.605    1475.2803   -21623.886    -1167.841    235.86724    39.361595    39.244842    23.873902 
   41800    235.30675   -515.32017    216156.16   -20159.291    1490.4851   -21649.776    -1498.714    236.88967    39.362455    39.245531    23.882949 
   42000    237.30511   -380.98346    216156.16   -20208.713    1503.1431   -21711.856   -947.57623    236.99174    39.359793    39.249087    23.871366 
   42200    228.32403   -385.67011    216156.16   -20262.804     1446.255   -21709.059    -947.3896    237.75513    39.358807    39.247453    23.862496 
   42400    238.06358    -364.4806    216156.16   -20221.176    1507.9474   -21729.124   -878.68377     238.3785     39.35983    39.245908    23.832542 
   42600    233.92083   -361.53889    216156.16   -20250.359    1481.7063   -21732.065   -899.39892    239.84174    39.360303    39.245067    23.807724 
   42800    239.56463   -247.56575    216156.16    -20222.79    1517.4554   -21740.246   -408.52973    241.50761    39.361908    39.247297     23.80255 
   43000    236.64933   -327.35446    216156.16   -20231.093    1498.9893   -21730.082   -719.13294    242.75561    39.361322    39.246301    23.785341 
   43200    235.55256   -245.26304    216156.16   -20248.737     1492.042   -21740.779   -414.74435    244.24577    39.361793    39.246208    23.794062 
   43400    232.51123   -491.86284    216156.16   -20202.523    1472.7776     -21675.3   -1453.9497    245.08811    39.359503    39.246923    23.782664 
   43600    230.18191   -365.16152    216156.16   -20201.405    1458.0232   -21659.428   -982.93516    245.94166    39.359087    39.250172    23.769042 
   43800     237.9021    -396.9281    216156.16   -20226.372    1506.9246   -21733.297   -1073.5737     246.8701    39.355116    39.251704    23.745787 
   44000    228.87425   -259.85226    216156.16   -20275.968    1449.7402   -21725.708   -466.13201    247.96271    39.355375    39.250222     23.74732 
   44200    235.76636   -346.21412    216156.16   -20213.517    1493.3963   -21706.913   -828.69459    248.92468    39.356312    39.248877    23.761563 
   44400    224.95303   -348.80454    216156.16   -20224.315    1424.9023   -21649.217   -834.27702    249.52999    39.356825    39.248136    23.751431 
   44600    232.19984    -315.5913    216156.16   -20204.409    1470.8052   -21675.214   -727.83425    249.46385    39.358358    39.248151    23.757188 
   44800     236.7914   -294.33728    216156.16   -20226.558    1499.8892   -21726.448   -637.60259    248.38812    39.358535    39.249479    23.766826 
   45000    229.99809   -334.55109    216156.16   -20197.195    1456.8588   -21654.054   -756.43873    248.46753    39.359392    39.247881    23.800435 
   45200    234.59126   -207.00889    216156.16   -20131.346     1485.953   -21617.299   -262.43138    249.93706    39.360347    39.248465    23.774739 
   45400    234.44311   -362.96685    216156.16   -20196.305    1485.0146   -21681.319   -860.56139    250.68245    39.361044    39.248767     23.75739 
   45600    234.37805   -478.73932    216156.16    -20096.83    1484.6025   -21581.432   -1352.8169    251.40709    39.362781    39.249358    23.795313 
   45800    233.20525   -455.70485    216156.16   -20122.428    1477.1737   -21599.601   -1249.6349    252.97442    39.361951    39.248452    23.807907 
   46000    241.22381    -203.2597    216156.16   -20087.329     1527.965   -21615.294   -242.63675    254.55807    39.364329    39.249657    23.788653 
   46200    237.89466   -330.37182    216156.16   -20097.957    1506.8775   -21604.834   -722.34574    256.93754    39.364902    39.249621    23.800623 
   46400    232.68998   -495.97622    216156.16   -20196.075    1473.9099   -21669.985   -1455.1895    257.85387    39.364956    39.248811     23.80271 
   46600    230.99457   -503.87082    216156.16   -20193.921    1463.1708   -21657.091   -1482.8642    257.13707    39.364433    39.248385    23.800486 
   46800    228.66141   -460.70889    216156.16   -20187.416     1448.392   -21635.808    -1277.592    256.93091    39.363241    39.250566    23.801815 
   47000    232.40273   -393.60347    216156.16   -20185.148    1472.0903   -21657.238   -1047.7193    257.74329     39.36419    39.249908    23.794939 
   47200    220.27949   -505.58795    216156.16   -20239.463     1395.299   -21634.762   -1504.1122    260.03931    39.363314    39.248299    23.807459 
   47400    238.12471    -333.6861    216156.16   -20203.595    1508.3346    -21711.93   -722.20951    261.71295    39.363729    39.248409    23.830687 
   47600    233.78843    -545.7436    216156.16   -20224.876    1480.8677   -21705.744   -1695.9401    261.31983    39.362918    39.247167    23.822781 
   47800    229.64121   -385.44272    216156.16   -20207.863    1454.5983   -21662.461   -986.36732    264.56972    39.363258    39.247705    23.819687 
   48000    239.11463   -418.94997    216156.16    -20201.54     1514.605   -21716.145   -1154.4593    264.66986    39.364414    39.248366    23.806679 
   48200    240.30664   -459.24143    216156.16   -20209.103    1522.1555   -21731.259   -1274.5784    264.84463    39.363801    39.248367    23.804732 
   48400    239.15138   -402.67865    216156.16   -20198.903    1514.8378   -21713.741   -1086.9906    264.56538    39.363038    39.246699    23.786061 
   48600    237.11487   -475.50453    216156.16   -20283.807    1501.9381   -21785.745   -1368.6585    266.10555    39.363534    39.248096    23.777725 
   48800    231.84124   -395.50419    216156.16   -20268.755    1468.5337   -21737.288   -1017.1213    265.77592    39.364023    39.247542    23.775282 
   49000    234.71339   -532.15693    216156.16   -20268.868    1486.7266   -21755.594   -1568.7244      266.548    39.365967    39.246869    23.790617 
   49200    234.08431   -371.67697    216156.16   -20206.767    1482.7418   -21689.509   -910.54874    266.19198    39.364085    39.248455    23.786534 
   49400    237.46121   -364.56378    216156.16   -20251.539    1504.1319   -21755.671   -899.28438    267.16196    39.363157    39.246379    23.779405 
   49600     229.0038   -543.08325    216156.16   -20226.862    1450.5608   -21677.423   -1664.7779    267.89176    39.363924    39.244377    23.780393 
   49800    234.79873   -298.96123    216156.16   -20233.849    1487.2671   -21721.116   -598.71468    269.23743    39.365596    39.245394     23.76196 
   50000    238.74392   -473.18041    216156.16   -20256.819    1512.2568   -21769.075   -1345.2923    270.72998     39.36684     39.24379    23.760034 
   50200    234.62674   -433.47688    216156.16   -20173.999    1486.1777   -21660.177     -1183.08    271.65524     39.36838    39.243221    23.754948 
   50400    236.88776   -632.98236    216156.16   -20225.652    1500.4995   -21726.151   -2025.3756    272.05781    39.368042    39.242704     23.75578 
   50600    235.15344   -390.24846    216156.16   -20144.302     1489.514   -21633.816   -992.47986    272.94613    39.368255    39.242563    23.747392 
   50800    230.81979    -214.8178    216156.16   -20295.547    1462.0637    -21757.61   -274.65579    275.12659     39.36849    39.243583    23.726071 
   51000    232.23899    -411.7305    216156.16   -20241.423    1471.0532   -21712.476   -1096.9222     275.7963     39.36751    39.246121    23.745968 
   51200    236.39199   -334.62767    216156.16   -20244.972    1497.3592   -21742.331     -759.595     278.0845    39.368243    39.244522    23.726443 
   51400    229.00138   -523.93916    216156.16   -20231.673    1450.5454   -21682.218   -1528.6167    280.41285    39.365736    39.243789    23.723209 
   51600    236.68044   -266.88449    216156.16   -20264.774    1499.1863    -21763.96   -466.96284    280.81426    39.366941    39.243216    23.719645 
   51800    239.01749    -379.2447    216156.16   -20213.226    1513.9897   -21727.215   -942.05623    282.09624     39.36824    39.242128    23.714561 
   52000    232.72803   -467.19279    216156.16   -20243.341    1474.1509   -21717.492   -1364.0167    282.15353    39.367761     39.24096    23.704081 
   52200    228.98712   -372.61653    216156.16   -20248.327    1450.4551   -21698.783   -931.29587    283.17958    39.368174    39.241219    23.732958 
   52400    231.03206   -395.34439    216156.16   -20315.844    1463.4082   -21779.252   -1045.0966     283.5893    39.367393    39.242243    23.726028 
   52600    239.38224   -437.52421    216156.16   -20212.068    1516.3001   -21728.368   -1197.2686    283.45211     39.36651     39.24461    23.704301 
   52800    241.95369   -354.12248    216156.16   -20160.643    1532.5882   -21693.231   -835.44331     283.5251    39.365232    39.245909    23.725308 
   53000    240.36112   -214.06346    216156.16   -20171.228    1522.5006   -21693.729   -286.60922    285.06408    39.364713    39.242412    23.711955 
   53200    230.74791   -371.62425    216156.16   -20263.674    1461.6083   -21725.282   -923.97979    285.51629    39.365683     39.24058    23.712882 
   53400    232.45778   -362.72669    216156.16    -20247.91     1472.439   -21720.349    -945.0526    285.84046    39.365833    39.242084    23.723533 
   53600    235.12557   -357.92229    216156.16   -20330.009    1489.3374   -21819.347   -868.45535    288.11905    39.368225    39.241483    23.710289 
   53800    232.29793   -520.01967    216156.16   -20263.875    1471.4265   -21735.302   -1578.4755    289.59143    39.368994    39.240744    23.713314 
   54000     238.4232    -345.1526    216156.16   -20269.281    1510.2253   -21779.506   -805.94382    289.99728    39.370007    39.241848    23.707615 
   54200    240.60678   -365.13285    216156.16   -20235.486    1524.0566   -21759.543   -915.36273    290.06929    39.373481    39.241528    23.716688 
   54400    238.41911   -305.47456    216156.16   -20152.864    1510.1994   -21663.064   -639.54376    291.95453    39.373566     39.24252    23.724882 
   54600    239.54327   -391.98229    216156.16   -20189.107    1517.3201   -21706.427   -1031.5691    291.36367    39.373221    39.244605    23.741968 
   54800    237.03967   -452.62285    216156.16   -20176.751    1501.4618   -21678.212   -1248.5151    290.42994    39.373924    39.245644    23.739724 
   55000    244.24676   -402.11705    216156.16   -20147.834    1547.1131   -21694.947   -1043.0956    290.77768    39.373488    39.246583    23.742338 
   55200    229.67525   -421.73607    216156.16   -20284.455    1454.8139   -21739.269   -1138.2657    290.16338     39.37429    39.247313    23.734029 
   55400    228.94556   -254.55259    216156.16   -20225.555    1450.1918   -21675.747   -412.99586    290.67825    39.371076    39.250071    23.756647 
   55600    235.24451   -441.75044    216156.16   -20188.862    1490.0908   -21678.952   -1256.7196      292.163    39.372991    39.249367     23.75952 
   55800    243.26026    -422.5715    216156.16   -20119.717    1540.8643   -21660.581   -1174.1459    291.24528    39.373734     39.25099    23.739764 
   56000    233.79142   -254.01407    216156.16   -20157.777    1480.8866   -21638.663   -434.24019    291.53285    39.377281    39.249247    23.756773 
   56200    238.06751   -381.27816    216156.16   -20146.908    1507.9723    -21654.88   -961.92765    293.40967    39.376151     39.24944    23.762134 
   56400    228.17163   -212.16615    216156.16   -20269.801    1445.2896   -21715.091   -252.48559    294.07047    39.376024    39.247171    23.787357 
   56600    228.24254   -532.47251    216156.16   -20330.071    1445.7388    -21775.81   -1592.6641    293.98048    39.375141     39.24778    23.789419 
   56800    237.88062   -251.97017    216156.16   -20240.073    1506.7885   -21746.862   -428.83845    294.33142       39.375    39.247447    23.803994 
   57000    232.63639   -357.94703    216156.16     -20294.2    1473.5704   -21767.771   -910.33867    294.11001    39.375464    39.248115    23.786927 
   57200    236.45825   -292.11916    216156.16   -20194.834    1497.7789   -21692.613   -589.94908    295.10006     39.37609    39.247719    23.754491 
   57400    236.17554   -445.35562    216156.16   -20234.323    1495.9882   -21730.311   -1193.3349    294.89266    39.375524    39.249134     23.76658 
   57600    224.59992   -456.70504    216156.16    -20263.64    1422.6656   -21686.305   -1326.0149    295.64485    39.374919    39.249297    23.773383 
   57800    231.10639   -320.33001    216156.16   -20178.739     1463.879   -21642.618    -700.7568    296.38538     39.37379    39.251533    23.793305 
   58000    229.67613   -230.62513    216156.16   -20172.489    1454.8194   -21627.309   -332.70134    297.95963    39.374102    39.254819    23.803895 
   58200    235.33734   -400.48898    216156.16    -20159.86    1490.6788   -21650.538   -1041.1622     297.8281    39.373942    39.254377    23.802113 
   58400    232.09329   -312.18364    216156.16   -20178.776    1470.1303   -21648.907   -668.17386    300.56307    39.370488    39.253491    23.820868 
   58600    232.09249   -304.55361    216156.16   -20227.688    1470.1252   -21697.813   -673.81806    300.13481    39.368328     39.25402    23.819305 
   58800    232.34959   -261.34175    216156.16   -20182.683    1471.7538   -21654.436   -426.96231    300.56708    39.365226    39.252504     23.81599 
   59000    239.38785   -546.55552    216156.16   -20118.503    1516.3356   -21634.838   -1641.1301    302.96349    39.363761    39.253444     23.82016 
   59200    229.22535   -532.50104    216156.16   -20169.443    1451.9641   -21621.407   -1637.1281    303.64687    39.364219    39.252239    23.819839 
   59400    233.58885   -330.89384    216156.16   -20182.013    1479.6035   -21661.617   -739.89533    303.56503    39.364869    39.254989     23.79377 
   59600    227.99528   -426.85167    216156.16   -20217.095    1444.1726   -21661.267   -1139.7876    304.13547    39.366949    39.256358    23.794442 
   59800    230.34104   -338.07052    216156.16   -20182.247    1459.0312   -21641.278    -804.3979    304.53709    39.367295    39.257043    23.818349 
   60000    237.41552   -125.59329    216156.16   -20168.229    1503.8425   -21672.072    110.48855    304.50715    39.367804    39.259618    23.807854 
   60200    235.80815   -431.63454    216156.16   -20192.419     1493.661    -21686.08   -1243.8472    306.75197    39.366909    39.255256    23.778633 
   60400    229.72642   -411.04271    216156.16   -20129.395     1455.138   -21584.534   -1155.2363    307.84486    39.369496    39.255375    23.734813 
   60600    237.32478   -373.66655    216156.16   -20119.288    1503.2677   -21622.556   -972.58857    308.93161    39.369076    39.254255    23.722153 
   60800    239.12491   -296.22247    216156.16   -20073.398    1514.6701   -21588.068   -634.14336    311.01781    39.368339    39.253754    23.711313 
   61000    229.77734   -291.18003    216156.16   -20126.059    1455.4605    -21581.52   -591.41277    311.98166    39.365922     39.25255     23.73031 
   61200    238.92293   -342.52151    216156.16   -20087.828    1513.3907   -21601.219   -826.41618    312.20326    39.365312    39.251871    23.751109 
   61400    235.03227   -494.47388    216156.16   -20119.052    1488.7465   -21607.799   -1418.8269    311.35706     39.36783    39.254683    23.738164 
   61600    237.36161    -491.1962    216156.16   -20160.884     1503.501   -21664.385   -1436.7491    311.77208    39.367251    39.253588    23.751601 
   61800    234.79313   -256.79077    216156.16   -20191.261    1487.2317   -21678.493   -421.04716    313.03103    39.364444    39.254208    23.740819 
   62000    236.59623   -247.56384    216156.16   -20112.041    1498.6529   -21610.694   -438.20928    313.84908     39.36392    39.253619    23.744738 
   62200    232.38253   -285.04682    216156.16   -20106.908    1471.9624    -21578.87   -528.09787    315.22099    39.365023    39.252204    23.768076 
   62400    235.49742   -443.79772    216156.16   -20126.094    1491.6928   -21617.786   -1252.1631    315.33153    39.363706    39.249815    23.757043 
   62600     236.8075   -583.72735    216156.16   -20203.108    1499.9911   -21703.099   -1843.1719    315.49983    39.364157    39.245831     23.76119 
   62800    229.13385   -271.93668    216156.16   -20270.364    1451.3845   -21721.749    -555.7763    315.82946    39.364095    39.246237    23.759638 
   63000    233.36698   -405.90571    216156.16   -20196.685    1478.1981   -21674.883   -1112.3474    316.43187      39.3646    39.246774    23.780265 
   63200    229.06724   -268.94535    216156.16   -20209.454    1450.9626   -21660.417   -496.58764    316.57169    39.365443    39.246707    23.775933 
   63400    228.08359   -265.04559    216156.16   -20289.661    1444.7319   -21734.393   -477.05741    318.98447    39.364044    39.249215    23.762846 
   63600    229.03754   -313.04845    216156.16   -20279.349    1450.7745   -21730.123   -664.90473    320.50417    39.362529    39.252561    23.782999 
   63800    232.55635   -395.94366    216156.16   -20323.351    1473.0634   -21796.415   -1048.3059    320.75786    39.363617    39.252703    23.790983 
   64000    231.83954   -308.57757    216156.16   -20184.064     1468.523   -21652.587   -649.32145      322.214    39.363229     39.25289    23.769107 
   64200    241.64557   -357.66685    216156.16   -20195.009    1530.6365   -21725.645   -869.11752    323.20039    39.363988    39.252696    23.793272 
   64400    232.32475   -433.62468    216156.16   -20207.634    1471.5964   -21679.231   -1190.7274    324.57378    39.362167     39.25427    23.799571 
   64600    226.55249   -434.71585    216156.16    -20230.25    1435.0336   -21665.284   -1207.6883    326.81486     39.36277    39.255669    23.790464 
   64800    226.62988   -406.13803    216156.16   -20217.778    1435.5238   -21653.302   -1062.0823    329.66916     39.36364    39.255952    23.779825 
   65000    241.19152   -427.01019    216156.16   -20146.251    1527.7605   -21674.012    -1150.353     328.6145     39.36515    39.255249    23.751427 
   65200    234.91571   -295.54313    216156.16   -20180.096    1488.0081   -21668.104   -630.44137    330.14931    39.363731    39.252839    23.738696 
   65400    234.30382   -389.84835    216156.16   -20211.382    1484.1323   -21695.515   -1029.1378    332.47387    39.366126    39.254631    23.756441 
   65600     238.7696   -269.97392    216156.16   -20186.415    1512.4195   -21698.835   -453.52095    332.70541    39.365102    39.255643    23.743718 
   65800     236.5647   -443.29038    216156.16   -20217.723    1498.4532   -21716.176   -1230.5651     333.7264    39.368449     39.25882    23.747403 
   66000    234.32398   -362.48435    216156.16   -20205.776      1484.26   -21690.036   -910.14762    334.61136    39.368226    39.258322    23.747546 
   66200    232.62818   -439.54769    216156.16   -20263.005    1473.5184   -21736.523   -1204.9629    335.90521    39.369467    39.255863    23.748375 
   66400    233.76415   -336.06757    216156.16   -20248.233    1480.7139   -21728.947   -806.33857    335.55509    39.369906      39.2548     23.76315 
   66600    235.36963   -363.61466    216156.16    -20289.63    1490.8833   -21780.514   -892.89552    335.85649    39.370543    39.253773    23.772077 
   66800    231.68001   -448.87138    216156.16   -20274.732    1467.5125   -21742.245   -1261.1028    335.75612    39.370253    39.254588     23.77438 
   67000    227.31919    -352.5277    216156.16   -20340.257    1439.8901   -21780.147   -886.74719    335.30352    39.367856    39.256956    23.760181 
   67200    231.49382   -304.56764    216156.16   -20250.947    1466.3331    -21717.28   -628.00867    336.28735    39.366847    39.259026    23.747511 
   67400    235.54128   -464.05638    216156.16   -20233.794    1491.9706   -21725.765   -1343.0093    338.83761    39.363854    39.258349    23.747085 
   67600    243.78406   -448.86642    216156.16   -20159.952    1544.1822   -21704.135   -1262.1453     340.7028    39.364487    39.256726    23.752557 
   67800    237.17343   -380.11992    216156.16   -20170.515     1502.309   -21672.825   -965.17385     343.9341    39.365906    39.254515    23.768058 
   68000    229.73443   -433.21313    216156.16   -20211.605    1455.1887   -21666.794   -1145.2552    347.05967    39.366599    39.253755    23.765595 
   68200    237.50552   -273.55551    216156.16   -20208.435    1504.4125   -21712.848   -541.24847    346.82285    39.365432    39.253576    23.759124 
   68400    229.76284   -531.13663    216156.16   -20121.497    1455.3687   -21576.866   -1619.3433    348.79055    39.363957    39.252286    23.765426 
   68600    230.33627   -533.45693    216156.16   -20168.859    1459.0009    -21627.86   -1650.6255    350.71013    39.362092    39.251392    23.751223 
   68800    238.94598   -391.12585    216156.16   -20169.864    1513.5368   -21683.401    -1033.405    349.47416    39.362539    39.251867     23.75353 
   69000    233.84589   -346.01854    216156.16   -20188.063    1481.2316   -21669.294   -819.88486    350.10325    39.364288    39.251428    23.747386 
   69200    231.26425   -414.92039    216156.16   -20261.942     1464.879   -21726.821   -1079.1328    350.69247    39.363828    39.251979    23.738893 
   69400    225.42843    -393.1906    216156.16    -20282.66    1427.9136   -21710.574   -1012.1069    350.41056    39.363671    39.255292     23.73338 
   69600      238.944   -309.26638    216156.16   -20088.566    1513.5242    -21602.09   -652.67292    350.13357    39.364783    39.259756    23.737827 
   69800    231.20795   -299.13011    216156.16   -20188.666    1464.5223   -21653.188   -616.10761    352.47257    39.364418    39.258372    23.755558 
   70000    230.82752   -272.89316    216156.16   -20192.589    1462.1126   -21654.701   -545.69639    352.87247    39.363507    39.257057    23.753632 
   70200    232.72292    -307.2032    216156.16   -20157.825    1474.1185   -21631.944   -657.87217    351.96781    39.363325    39.253834    23.762011 
   70400    241.56617   -471.64088    216156.16   -20084.578    1530.1336   -21614.712    -1399.729    353.65227    39.365205     39.25294    23.783772 
   70600    229.77793   -346.35763    216156.16   -20152.431    1455.4642   -21607.895   -818.74691    354.59992     39.36408    39.250461    23.790517 
   70800    236.60451   -388.92278    216156.16   -20171.993    1498.7053   -21670.698   -978.13761    356.88981    39.365788    39.252151    23.766573 
   71000    235.23327   -463.34189    216156.16   -20221.883    1490.0196   -21711.903   -1328.3825    356.59562    39.363669    39.251733    23.730515 
   71200    232.70398   -395.53702    216156.16   -20203.218    1473.9985   -21677.217   -1061.6598    357.09209    39.363159    39.251084    23.737602 
   71400     228.6815    -466.3901    216156.16   -20212.877    1448.5192   -21661.396    -1305.374    356.93135      39.3657    39.249321    23.726996 
   71600    240.56145   -268.15508    216156.16   -20126.016    1523.7694   -21649.786   -489.32921    357.47124    39.366392    39.251882    23.736198 
   71800    226.85658   -303.77316    216156.16   -20199.202    1436.9598   -21636.162   -602.76762     359.8029     39.36727    39.251808    23.741335 
   72000    228.44755   -311.22219    216156.16   -20197.845    1447.0374   -21644.882    -653.9532    360.17311    39.365062    39.251053    23.743765 
   72200    241.79005   -292.63227    216156.16    -20043.78    1531.5517   -21575.331   -578.78798    361.08306    39.363479    39.248498    23.745595 
   72400    230.57634   -296.68848    216156.16   -20138.851    1460.5216   -21599.373   -568.27855    359.45879    39.360948    39.246165    23.743979 
   72600    241.74061   -224.10766    216156.16   -20109.149    1531.2385   -21640.388    -319.6698    359.18675    39.361277    39.247292    23.708023 
   72800    232.63077   -513.50653    216156.16   -20145.327    1473.5348   -21618.862   -1556.2606    360.75884    39.361597    39.247065    23.720574 
   73000    233.46487   -330.18208    216156.16   -20185.889    1478.8182   -21664.707   -778.74866    362.28582    39.360324    39.250366     23.70889 
   73200    238.91517   -534.48849    216156.16   -20079.579    1513.3416    -21592.92   -1616.5336     363.8059    39.359011    39.250672    23.711645 
   73400    235.05802   -417.71378    216156.16   -20091.013    1488.9095   -21579.922    -1103.584    364.36167    39.356393    39.249872    23.710244 
   73600    239.64073   -340.73344    216156.16   -20116.474    1517.9375   -21634.412   -786.01375    364.61099    39.356457    39.248373    23.709296 
   73800    226.40009   -363.57945    216156.16   -20218.732    1434.0683     -21652.8    -863.8255    365.36992    39.357745    39.248395    23.679871 
   74000    233.73702   -282.34295    216156.16   -20205.758    1480.5421     -21686.3   -518.37788    367.14869    39.357481    39.250252    23.677866 
   74200    244.44689   -425.21424    216156.16   -20159.595    1548.3807   -21707.976    -1148.138    367.01021    39.356604    39.252087    23.684789 
   74400    233.47217   -451.78455    216156.16   -20166.376    1478.8644   -21645.241   -1257.4138    365.40375    39.358015    39.250309    23.693342 
   74600    235.37323   -319.52045    216156.16   -20226.881    1490.9062   -21717.787   -684.98712    367.96837    39.357253    39.250938    23.684526 
   74800    232.52339   -468.05156    216156.16   -20205.926    1472.8546    -21678.78   -1319.4738    369.11658    39.356787    39.251637    23.685878 
   75000    234.41671   -472.76651    216156.16   -20219.763    1484.8473    -21704.61   -1360.5857    369.70981    39.356166    39.251283    23.669399 
   75200    241.22976   -333.07439    216156.16   -20156.343    1528.0027   -21684.346    -739.4752    370.74454    39.359151    39.254439    23.673117 
   75400     229.0223   -306.97883    216156.16   -20232.868    1450.6779   -21683.546   -694.92722    371.29567    39.357533    39.253264    23.672959 
   75600    232.94618   -318.71734    216156.16   -20201.592    1475.5327   -21677.125    -691.1041    372.43897    39.358067    39.256327    23.676961 
   75800    241.66169    -468.1781    216156.16   -20129.181    1530.7387   -21659.919   -1377.6737     373.7539    39.357095    39.255331    23.696133 
   76000     229.3532   -377.37187    216156.16   -20106.652    1452.7739   -21559.426   -985.47073    375.53854    39.359408    39.254736    23.681597 
   76200    231.76179    -392.6394    216156.16   -20217.301    1468.0305   -21685.331   -991.14979    376.27936    39.361395    39.254917    23.688755 
   76400    232.59853   -440.71872    216156.16   -20239.846    1473.3306   -21713.177    -1196.457    378.28449    39.361601    39.256635     23.68122 
   76600    234.96218    -477.1039    216156.16   -20214.522    1488.3024   -21702.824   -1373.0575    379.39008    39.362905    39.256691    23.670747 
   76800    232.84215   -356.35448    216156.16   -20252.164    1474.8737   -21727.038   -879.94244     378.8087    39.361613    39.254845    23.658582 
   77000    236.60134   -252.04433    216156.16   -20228.143    1498.6852   -21726.828   -432.22183    378.43157    39.361302    39.256122     23.64686 
   77200     234.3719   -417.04842    216156.16   -20195.897    1484.5635   -21680.461   -1124.4834    379.03799    39.360785    39.257139    23.626995 
   77400      230.611   -434.47958    216156.16   -20189.281    1460.7412   -21650.023   -1166.1925    380.74263    39.362618    39.257575    23.632884 
   77600    236.11515   -334.72596    216156.16   -20241.593    1495.6056   -21737.199   -767.41135    381.74333    39.361197    39.259237    23.637132 
   77800    231.95187   -447.92557    216156.16   -20177.056    1469.2345   -21646.291   -1222.6857    384.67828    39.363124    39.259215    23.655897 
   78000    231.91216   -473.92085    216156.16   -20193.551     1468.983   -21662.534   -1423.9818    384.38723    39.361433    39.259463    23.691144 
   78200    236.78047   -340.50158    216156.16   -20086.785    1499.8199   -21586.605   -760.92975     385.8234    39.358832    39.260028    23.702164 
   78400    241.44006   -418.41637    216156.16    -20099.53    1529.3348   -21628.865     -1115.57    387.71097    39.359125    39.259954    23.729432 
   78600    238.80765   -402.60336    216156.16   -20129.069    1512.6605    -21641.73   -1032.3074     388.0871    39.359721    39.257892    23.758494 
   78800    235.63082   -357.62037    216156.16   -20157.934    1492.5377   -21650.472   -870.61697    388.79049    39.358228    39.257729     23.76618 
   79000    231.97486   -275.10041    216156.16   -20117.541    1469.3801   -21586.921   -521.31221    389.08206    39.357005    39.260576    23.773149 
   79200    232.33073   -353.94279    216156.16     -20100.8    1471.6343   -21572.435   -868.36772    390.20387    39.356428    39.261418    23.777138 
   79400    243.21841   -341.58624    216156.16   -20102.657    1540.5993   -21643.256   -798.17061    389.74702    39.357524    39.262964    23.786353 
   79600    235.11882   -180.89867    216156.16   -20230.329    1489.2946   -21719.624   -123.38883    390.49763    39.359211    39.263599    23.771795 
   79800    232.17154   -334.40673    216156.16   -20190.342    1470.6259   -21660.967   -768.64108    390.80093    39.359175    39.264365    23.781124 
   80000    233.29347   -379.32077    216156.16   -20214.041    1477.7325   -21691.773    -926.1385    391.04708    39.360793     39.26443    23.761632 
   80200    232.48475   -378.83651    216156.16     -20216.7    1472.6099    -21689.31   -974.00074    391.50295    39.359389    39.263975    23.773412 
   80400    231.02019   -432.43119    216156.16    -20189.63     1463.333   -21652.963     -1166.53    391.67822     39.36028    39.263032    23.760157 
   80600    243.02958   -325.51678    216156.16   -20179.206    1539.4031   -21718.609   -736.47567    392.78822    39.360242    39.265305    23.730442 
   80800    232.63533   -419.17688    216156.16   -20178.468    1473.5637   -21652.032   -1130.3441    392.76411    39.359322    39.265683    23.706359 
   81000    233.82677   -336.71974    216156.16    -20187.27    1481.1105   -21668.381   -749.73682     393.1081    39.359576      39.2647    23.714158 
   81200    240.38675   -476.38953    216156.16   -20191.523    1522.6629   -21714.186   -1400.6849    392.91823    39.360098    39.262377     23.71974 
   81400    231.79223   -315.39968    216156.16   -20177.206    1468.2233   -21645.429   -708.07074    394.59347    39.361387    39.261209    23.718513 
   81600    232.77094   -339.45876    216156.16   -20215.962    1474.4226   -21690.384   -806.77562    394.79484    39.362824    39.258671    23.716268 
   81800    223.89356   -488.26669    216156.16   -20253.318    1418.1914    -21671.51   -1454.2081    395.28536    39.364204    39.259271    23.718416 
   82000     234.3073   -163.29104    216156.16   -20204.937    1484.1543   -21689.091   -73.486048    395.07487    39.364963      39.2587    23.703003 
   82200    243.85195   -317.53849    216156.16   -20133.185    1544.6122   -21677.797   -755.05929    395.32434    39.365699    39.257301    23.702542 
   82400    236.18915    -426.4478    216156.16   -20185.875    1496.0743   -21681.949   -1176.8006    395.64911     39.36559    39.257064    23.717955 
   82600    240.44599   -438.94396    216156.16   -20116.568    1523.0382   -21639.606   -1192.3943    396.51832     39.36617    39.257062    23.707059 
   82800    233.84872   -427.28527    216156.16   -20167.276    1481.2496   -21648.526   -1155.2917    397.37792    39.366154    39.256405    23.704648 
   83000    242.80058   -294.04692    216156.16   -20109.097    1537.9526   -21647.049   -650.00546     396.2486    39.364338    39.257945    23.698853 
   83200    233.49121   -427.97217    216156.16   -20156.411     1478.985   -21635.396   -1178.3299    394.95692    39.364105     39.25647    23.685644 
   83400    233.00717   -328.32852    216156.16   -20190.568     1475.919   -21666.487   -781.37205    395.51454    39.364274    39.253854    23.695704 
   83600    233.30462   -394.85742    216156.16   -20259.517    1477.8031    -21737.32   -1040.4638    396.28358    39.365411    39.255267    23.701362 
   83800    233.32093   -369.50966    216156.16   -20196.696    1477.9064   -21674.602   -965.60482     398.3449     39.36435    39.254575    23.698911 
   84000    231.46477   -238.76403    216156.16   -20175.492    1466.1491   -21641.641    -355.0787    399.21591    39.360004    39.253873    23.714008 
   84200    235.57409   -325.32624    216156.16   -20143.854    1492.1785   -21636.033   -735.37718    399.54733    39.361094    39.254807    23.766441 
   84400    231.01875   -439.22697    216156.16    -20185.76    1463.3239   -21649.084   -1172.7433     400.2167    39.361229    39.253936      23.7636 
   84600     230.0382   -373.71555    216156.16   -20122.407    1457.1129    -21579.52   -896.12808    400.40089    39.359209    39.250761    23.725731 
   84800    232.63917   -417.22301    216156.16   -20155.485     1473.588   -21629.073   -1108.3264    401.29556    39.358006    39.248321    23.708981 
   85000    232.47284   -430.01222    216156.16   -20147.773    1472.5344   -21620.308   -1187.7672    403.75852    39.358578    39.247089    23.690679 
   85200    229.17657   -527.79178    216156.16   -20183.425    1451.6551    -21635.08   -1562.8348    404.19206    39.357421    39.246788    23.694123 
   85400    232.06058   -251.70759    216156.16   -20249.642    1469.9231   -21719.565   -425.60252    406.23397    39.359342    39.246276    23.687795 
   85600    223.83732   -446.34412    216156.16   -20224.563    1417.8351   -21642.399   -1258.7312    404.96403     39.36055    39.245419    23.688354 
   85800     238.6768   -370.09476    216156.16   -20145.172    1511.8317   -21657.004   -880.59737    406.89264    39.361982    39.244364    23.693298 
   86000    237.51838   -339.89776    216156.16   -20213.652     1504.494   -21718.146   -759.16238     407.8125     39.36078    39.244998    23.703147 
   86200    234.82984    -380.9595    216156.16   -20171.083    1487.4642   -21658.548   -993.52932    408.94935    39.360601    39.246061     23.68551 
   86400    238.24019   -414.32142    216156.16   -20214.154    1509.0661    -21723.22   -1091.9956    407.87412    39.364101    39.246061    23.690454 
   86600    236.24744   -371.20744    216156.16   -20154.799    1496.4436   -21651.243   -951.36673    409.38119    39.366457    39.244122    23.688834 
   86800    229.89279   -314.26418    216156.16   -20206.671    1456.1918   -21662.863   -639.02541    410.69374    39.366245    39.245965    23.693829 
   87000    229.76764   -401.90075    216156.16   -20158.193    1455.3991   -21613.592   -1044.6379    411.93977    39.366261    39.244869    23.703487 
   87200    234.15708   -392.95937    216156.16   -20160.441    1483.2028   -21643.644   -1008.7087    410.57983    39.365812    39.243868    23.706597 
   87400    229.61405   -352.98796    216156.16   -20226.621    1454.4262   -21681.047   -858.65069    412.29552    39.364557    39.244136    23.711094 
   87600    236.36598   -298.54912    216156.16   -20180.632    1497.1945   -21677.826   -560.16579    413.99938    39.365761    39.244786    23.723151 
   87800    235.79717    -449.2462    216156.16   -20230.538    1493.5915    -21724.13   -1219.7967    414.85835    39.365449    39.245109    23.715161 
   88000    235.04238   -377.83839    216156.16   -20204.798    1488.8104   -21693.608   -903.05133    415.52067    39.365044    39.247338    23.713458 
   88200    231.71494   -424.27478    216156.16   -20254.709    1467.7337   -21722.442    -1109.734    415.81638    39.364605      39.2463     23.70187 
   88400    241.92229    -450.4771    216156.16   -20173.099    1532.3893   -21705.489   -1284.4226    416.08347    39.362984    39.247799    23.717112 
   88600     237.4128   -515.79287    216156.16   -20207.197    1503.8252   -21711.022   -1546.2506    419.37267     39.36272    39.246541     23.73871 
   88800    230.42062   -416.12538    216156.16   -20208.772    1459.5352   -21668.307   -1106.8331    418.19578    39.361993    39.244087    23.743348 
   89000    231.97299   -416.33477    216156.16   -20188.604    1469.3683   -21657.972    -1116.414    419.19876    39.361516    39.240802    23.734237 
   89200     238.5189   -413.13492    216156.16   -20155.829    1510.8315   -21666.661   -1092.8575    420.51928    39.363122    39.238981    23.720154 
   89400    236.34691   -553.83502    216156.16   -20184.088    1497.0737   -21681.161   -1712.9997    422.78018    39.361212    39.238716    23.707879 
   89600    225.24728   -437.75028    216156.16   -20296.614    1426.7661    -21723.38   -1188.6109    422.16858    39.360126     39.24019    23.719923 
   89800    235.56701   -538.12866    216156.16   -20216.172    1492.1336   -21708.306   -1639.9866    423.44166    39.359788    39.237967    23.718895 
   90000    236.41092   -598.22424    216156.16   -20266.168    1497.4791   -21763.647   -1829.9814    423.75773    39.360033    39.236999    23.735427 
   90200     233.7937   -455.57441    216156.16   -20286.919     1480.901    -21767.82   -1330.8888    424.56548    39.360063    39.236348    23.719347 
   90400    233.24192   -344.02163    216156.16    -20237.09    1477.4059   -21714.495   -830.17536    425.80802    39.362947    39.235932    23.724578 
   90600    232.51869   -535.13236    216156.16   -20251.716    1472.8249    -21724.54   -1623.1393    428.70568    39.362877    39.237151    23.696085 
   90800      236.042   -382.28467    216156.16   -20222.042    1495.1422   -21717.184   -1023.5296    427.95946    39.367761    39.237104    23.712121 
   91000    238.92601   -356.59982    216156.16   -20268.535    1513.4102   -21781.946   -888.56735    428.16859    39.369454    39.237446    23.710894 
   91200    225.24498   -412.14269    216156.16    -20342.01    1426.7516   -21768.762   -1062.6878    427.16434    39.370159     39.23575     23.71613 
   91400    235.09211   -434.42318    216156.16   -20289.342    1489.1255   -21778.468   -1192.2102    427.28651    39.367793    39.235583    23.724909 
   91600    239.36315    -289.1088    216156.16   -20193.635    1516.1792   -21709.814   -579.41595    428.63729    39.368094    39.236017    23.724046 
   91800    240.21743   -246.56083    216156.16   -20224.698    1521.5904   -21746.288   -374.01626    430.29717     39.36675    39.235579    23.716005 
   92000    234.74611    -364.4012    216156.16   -20247.161    1486.9338   -21734.094   -905.79421    431.02391     39.36621    39.234324     23.68622 
   92200    237.66755   -405.23896    216156.16   -20259.317    1505.4389   -21764.756    -1058.865    430.91332    39.364326    39.234192    23.687984 
   92400    236.09024   -502.26222    216156.16   -20222.604    1495.4478   -21718.052   -1478.7761    432.07375    39.365764    39.235814    23.719162 
   92600    235.94489   -465.65548    216156.16    -20146.33    1494.5272   -21640.858   -1329.2861    431.71527    39.365033    39.237673    23.710406 
   92800    232.08724   -195.97411    216156.16   -20218.091    1470.0919   -21688.183   -151.25289     434.2466    39.363855    39.236892    23.706469 
   93000     234.0546    -443.3505    216156.16   -20244.522    1482.5536   -21727.075   -1237.4295    435.06918    39.365353    39.238403    23.715101 
   93200    236.07834   -473.98554    216156.16   -20210.694    1495.3725   -21706.067   -1369.9412      435.351    39.365195    39.238093    23.711093 
   93400    230.82667   -452.75192    216156.16   -20255.749    1462.1072   -21717.856   -1292.3798    437.35209    39.363793    39.238205    23.726245 
   93600    234.38315   -378.49005    216156.16   -20256.025    1484.6348   -21740.659     -979.792    438.92997    39.364446    39.237014    23.717594 
   93800    232.49868   -413.07213    216156.16   -20275.699    1472.6981   -21748.397   -1066.4421    438.24804    39.363386    39.236512    23.714633 
   94000    233.38587   -391.22067    216156.16    -20262.29    1478.3177   -21740.608   -1032.3255    436.96523    39.362684    39.236387    23.693754 
   94200    242.64033   -382.90933    216156.16   -20180.667    1536.9376   -21717.604   -968.93375     436.8346    39.363401    39.234627    23.664927 
   94400    231.64938   -323.76511    216156.16   -20225.959    1467.3184   -21693.277     -690.796    436.46537     39.36403    39.230609    23.663553 
   94600    229.73663   -356.56282    216156.16   -20215.238    1455.2027   -21670.441   -915.87772    437.06874    39.365555    39.230273    23.656674 
   94800    235.39086   -316.76007    216156.16   -20190.591    1491.0178   -21681.609   -710.93966    439.25031    39.363625    39.228441    23.666592 
   95000     240.3145   -308.42828    216156.16   -20259.164    1522.2052   -21781.369   -604.39788    440.74462    39.360331    39.228281    23.663995 
   95200    235.07966   -435.77628    216156.16   -20234.336    1489.0466   -21723.383   -1173.7122    440.29769      39.3608    39.229316     23.68965 
   95400    236.73833   -409.49937    216156.16   -20202.331     1499.553   -21701.884   -1079.2242    441.92356    39.361851    39.228687    23.696623 
   95600    233.71982   -217.87682    216156.16   -20205.444     1480.433   -21685.877   -295.80273    441.26357    39.363583    39.229426     23.69736 
   95800    238.15571   -544.41271    216156.16   -20205.095     1508.531   -21713.626    -1674.745    441.41456    39.363052    39.229194    23.721669 
   96000    234.08747   -498.46901    216156.16   -20203.379    1482.7619   -21686.141   -1440.9486    441.61472    39.362219    39.229056    23.716543 
   96200    236.42762   -369.78655    216156.16   -20141.374    1497.5849   -21638.959   -913.87789    442.66966    39.362792    39.228096    23.705114 
   96400     237.2018   -388.14727    216156.16   -20225.737    1502.4887   -21728.225   -923.65596     442.9558    39.364462    39.231277    23.697414 
   96600    230.13707   -356.44576    216156.16   -20278.681    1457.7391   -21736.421    -843.9455     442.3364     39.36162    39.233107    23.724212 
   96800    236.26453   -644.87994    216156.16   -20222.141    1496.5518   -21718.693   -2088.0694    443.62675    39.362202    39.232328    23.716145 
   97000    237.28245   -367.17482    216156.16    -20274.64    1502.9996    -21777.64   -959.49597    443.66685     39.36225    39.235266    23.723844 
   97200    234.95885   -414.12667    216156.16   -20266.436    1488.2814   -21754.718   -1095.3601    444.27941    39.361638    39.235692     23.70856 
   97400    234.20603   -310.09205    216156.16    -20200.65    1483.5128   -21684.163   -651.31621    444.27146    39.361964    39.236352    23.708156 
   97600    239.61081   -329.40998    216156.16    -20127.46    1517.7479   -21645.208   -757.91683    446.06838    39.364056    39.236922    23.709327 
   97800    231.81383   -268.52929    216156.16   -20141.268    1468.3601   -21609.628   -501.87606    446.62452    39.364733    39.237615     23.71155 
   98000    233.92915   -433.00015    216156.16   -20189.196     1481.759   -21670.955   -1196.2019    447.13911    39.365037    39.237068    23.702275 
   98200    231.29155   -335.58995    216156.16   -20210.281    1465.0519   -21675.333   -714.22828    447.06353    39.363302    39.235087    23.709786 
   98400    236.84545   -389.99133    216156.16    -20184.04    1500.2315   -21684.271   -975.32369     448.9177    39.366859    39.235635    23.725583 
   98600    230.14218   -427.17351    216156.16   -20191.401    1457.7715   -21649.173   -1182.2766    451.35797     39.36695    39.234375    23.704332 
   98800    232.93743   -446.85664    216156.16   -20147.164    1475.4772   -21622.641   -1285.4006    451.53136    39.367426    39.234764    23.685551 
   99000    231.77887   -149.39986    216156.16   -20180.994    1468.1387   -21649.133     1.043388    452.42246    39.365949    39.231772    23.699808 
   99200     232.0157   -416.49509    216156.16   -20136.455    1469.6388   -21606.094   -1146.8553    454.16745    39.365477    39.230176     23.68584 
   99400    239.29475   -371.09562    216156.16   -20134.396    1515.7459   -21650.142   -877.73149    458.00519    39.365927    39.229744    23.681657 
   99600    231.06491   -438.08365    216156.16   -20125.669    1463.6163   -21589.286   -1169.9161    458.09528    39.367183    39.231895    23.677254 
   99800    234.04567    -401.8041    216156.16   -20195.706    1482.4971   -21678.203   -1108.0761     458.8318    39.365815     39.23427    23.666391 
  100000    238.28186     -434.781    216156.16   -20168.469      1509.33   -21677.799   -1202.4814    459.89009    39.367315    39.235027    23.650563 
  100200    228.69583   -384.69243    216156.16   -20210.213      1448.61   -21658.823   -985.92735     460.9852    39.368378    39.233586     23.63347 
  100400    237.11457   -374.07151    216156.16   -20112.038    1501.9362   -21613.974   -942.58764    461.52217    39.368518    39.234425    23.633899 
  100600    234.57982   -607.49462    216156.16   -20153.848    1485.8805   -21639.729   -1911.8599    462.52937     39.36832    39.235215    23.643663 
  100800    230.79217   -495.08826    216156.16   -20198.978    1461.8887   -21660.867   -1448.9557    462.51474    39.368794    39.233587    23.652044 
[...]
 3976000    223.39495   -381.63279    216156.16   -22232.729    1415.0331   -23647.762   -963.49548    5496.6447    39.756106    39.303061    23.888357 
 3976200    221.20788   -274.54981    216156.16   -22243.034    1401.1797   -23644.214   -512.50951    5495.7444    39.755677    39.302144    23.897191 
 3976400    224.78321   -205.13884    216156.16   -22246.887    1423.8266   -23670.713   -238.40925    5496.1973    39.754426    39.302456    23.895089 
 3976600    224.99554   -199.91785    216156.16   -22246.592    1425.1716   -23671.763   -200.54344    5495.6706    39.753136    39.301587    23.898982 
 3976800    221.20849   -307.86826    216156.16   -22190.628    1401.1835   -23591.812   -631.97079     5495.913    39.752763    39.301735    23.890882 
 3977000    219.01975   -195.88583    216156.16   -22285.511    1387.3196    -23672.83   -131.88849    5495.6293    39.752647    39.301941    23.887959 
 3977200    226.15036   -130.01942    216156.16   -22198.115    1432.4864   -23630.601    83.075214    5494.4689    39.752472    39.300684    23.884803 
 3977400    223.71746   -206.20487    216156.16   -22209.264    1417.0759    -23626.34   -235.69152    5496.2725    39.752475     39.30045    23.888385 
 3977600    218.98165   -338.89695    216156.16   -22234.722    1387.0782     -23621.8   -747.47567    5497.4276    39.752442    39.299879    23.890863 
 3977800    222.15876   -268.42224    216156.16   -22238.863    1407.2027   -23646.065   -459.51604    5496.9218    39.751624    39.300114    23.891134 
 3978000    218.80064   -94.718476    216156.16   -22261.775    1385.9317   -23647.707    235.21985    5495.7877    39.751765    39.300095    23.887179 
 3978200    227.71486   -202.97122    216156.16   -22190.082    1442.3963   -23632.478   -207.23358    5495.3364    39.751544    39.299472    23.893317 
 3978400    218.71106     -243.689    216156.16    -22253.61    1385.3643   -23638.974   -371.77768    5495.7923      39.7506     39.29949    23.890653 
 3978600    228.48807   -282.41771    216156.16   -22214.348     1447.294   -23661.642   -565.61627    5496.0796    39.749792    39.299371    23.889307 
 3978800    226.51748   -197.42376    216156.16   -22189.443    1434.8119   -23624.254   -159.09518    5495.0232    39.748582    39.299339    23.890378 
 3979000    227.52593   -219.34109    216156.16   -22217.908    1441.1996   -23659.107   -259.26089    5494.4205    39.749032    39.299355     23.89094 
 3979200    225.73085   -223.80664    216156.16   -22255.649    1429.8292   -23685.478   -319.37831    5495.1515    39.748582    39.298517    23.889793 
 3979400     222.6626   -200.91026    216156.16   -22207.567    1410.3942   -23617.961   -163.74771    5495.7834    39.747192     39.29777    23.890566 
 3979600    220.38068   -302.59444    216156.16   -22220.278      1395.94   -23616.218   -588.16079    5496.2908    39.746797    39.296833    23.892154 
 3979800    226.00607   -314.69067    216156.16   -22211.681    1431.5724   -23643.253   -698.33052    5495.6503    39.747628     39.29745    23.888212 
 3980000    219.36708   -258.03346    216156.16    -22226.12    1389.5196   -23615.639    -465.3297    5496.7505    39.747776    39.297033    23.891371 
 3980200    226.11242   -245.32037    216156.16   -22223.738    1432.2461   -23655.984   -402.22923    5495.8529    39.748394    39.296122    23.887115 
 3980400    223.74337   -215.50177    216156.16    -22190.33      1417.24    -23607.57   -262.47099    5496.9274    39.748499    39.296445    23.888756 
 3980600    230.91379   -286.87773    216156.16   -22140.745    1462.6591   -23603.404   -576.90005    5496.4373    39.748211    39.296169    23.886174 
 3980800    229.17986   -240.12168    216156.16   -22177.924     1451.676     -23629.6   -363.98025    5496.2193    39.747173    39.295437     23.88523 
 3981000    227.67701   -258.86705    216156.16   -22200.713    1442.1566    -23642.87   -471.68727    5496.2965    39.746582    39.294714    23.890326 
 3981200    223.79682   -183.72614    216156.16   -22199.938    1417.5786   -23617.517   -124.37101    5495.3961    39.745895    39.294096    23.890519 
 3981400    221.29641   -296.77276    216156.16   -22181.294    1401.7404   -23583.035   -575.66333    5496.7168    39.746418    39.292874    23.892866 
 3981600    221.29041   -285.31019    216156.16   -22234.624    1401.7024   -23636.326   -552.97483    5496.5969    39.745009    39.291568    23.892294 
 3981800    225.33674   -114.45874    216156.16    -22216.38    1427.3328   -23643.713    207.86009    5495.2993    39.743786    39.290061    23.886895 
 3982000    220.35913    -164.1643    216156.16   -22264.701    1395.8035   -23660.505   -19.570548    5496.7694     39.74278    39.290281    23.891362 
 3982200    216.75502   -276.48693    216156.16   -22309.764    1372.9743   -23682.739   -486.90147    5496.5141    39.741939    39.290071    23.889975 
 3982400    223.18865   -292.09439    216156.16   -22220.253    1413.7263    -23633.98   -570.30131      5496.85    39.740863    39.289996    23.891899 
 3982600    220.28579    -173.4757    216156.16    -22222.94    1395.3389   -23618.279   -73.770061    5495.2108    39.739713    39.289622    23.888183 
 3982800    229.21955   -106.66685    216156.16   -22177.655    1451.9274   -23629.583    247.44653    5497.2919    39.738635    39.289479    23.889729 
 3983000    227.91168     -199.937    216156.16   -22148.371     1443.643   -23592.014   -148.96281    5496.5449    39.737544    39.289209    23.892894 
 3983200      226.077   -283.77381    216156.16    -22177.01    1432.0217   -23609.031   -563.68131    5496.4273    39.737323    39.288693    23.887737 
 3983400    230.56662   -268.41921    216156.16   -22142.826      1460.46   -23603.286   -479.53001    5496.3857    39.735623    39.288512    23.890262 
 3983600    224.28741   -176.58129    216156.16   -22208.779    1420.6861   -23629.465   -58.258044    5496.6027    39.734206    39.288215    23.888593 
 3983800     226.8265   -250.47961    216156.16   -22198.577    1436.7693   -23635.346   -407.16031     5495.894    39.733356    39.287967    23.881924 
 3984000    222.41047   -242.00719    216156.16   -22190.308    1408.7971   -23599.106   -330.44014    5497.4901    39.732204    39.288122    23.888403 
 3984200    224.47207   -239.50231    216156.16   -22169.691    1421.8558   -23591.547   -327.82168     5497.187    39.731288    39.286752    23.887123 
 3984400    221.12978   -298.16711    216156.16   -22206.968     1400.685   -23607.653   -625.50951    5495.8969    39.729863    39.286273    23.887978 
 3984600    222.67009   -151.21908    216156.16   -22219.715    1410.4416   -23630.156    33.371276    5496.0993    39.729669    39.286073    23.888816 
 3984800    222.45101   -300.87484    216156.16   -22189.905     1409.054   -23598.959   -596.65797    5497.9586     39.72885    39.286963    23.889632 
 3985000    218.50368   -240.75685    216156.16   -22231.014    1384.0507   -23615.064   -330.94647    5496.6643    39.728161    39.287206    23.883703 
 3985200    221.52751   -264.28563    216156.16   -22189.184    1403.2043   -23592.388   -439.41723    5496.5375    39.727464     39.28742    23.890161 
 3985400    216.62209   -196.42271    216156.16   -22204.032    1372.1323   -23576.165   -168.45257    5495.8816    39.726132    39.287151     23.89251 
 3985600    226.70515   -247.42807    216156.16   -22170.193    1436.0006   -23606.194   -418.13128    5497.4598    39.725832    39.288413    23.885029 
 3985800    225.98428   -249.60776    216156.16   -22197.131    1431.4345   -23628.565   -398.05941     5495.727    39.725136    39.288224    23.888789 
 3986000    230.37788   -201.63017    216156.16   -22125.236    1459.2645   -23584.501   -202.59309    5496.6837    39.725071    39.287767    23.889627 
 3986200    227.60139   -347.00518    216156.16   -22163.957    1441.6776   -23605.635   -822.55184    5497.1893    39.725134     39.28761    23.884459 
 3986400    221.93004   -248.43159    216156.16   -22257.487     1405.754   -23663.241   -433.41284    5496.2753    39.724642    39.287619    23.888507 
 3986600    222.51761    -178.3959    216156.16    -22219.27    1409.4758   -23628.746   -119.69923    5495.9077    39.724523    39.286827    23.891076 
 3986800      226.565   -271.41763    216156.16   -22216.957    1435.1129    -23652.07   -464.40186     5497.176    39.723374    39.286275     23.89127 
 3987000    225.70166   -312.86389    216156.16    -22197.43    1429.6443   -23627.074   -626.01316    5497.0876    39.723236    39.286522    23.887572 
 3987200     219.3299   -193.39045    216156.16   -22296.316    1389.2841     -23685.6   -167.03834    5496.1663    39.722956    39.286518    23.885453 
 3987400    225.00224   -225.36155    216156.16   -22249.636     1425.214    -23674.85   -245.05983     5496.116    39.721821    39.287405    23.884883 
 3987600    230.77568   -291.65298    216156.16   -22190.742    1461.7842   -23652.526   -528.56162     5498.859    39.721237    39.287597    23.885112 
 3987800    218.54637    -274.0926    216156.16   -22233.719    1384.3211    -23618.04   -519.00852    5497.9308    39.720551    39.287518    23.895227 
 3988000    230.11543   -175.59583    216156.16   -22187.432     1457.602   -23645.034   -74.830064    5496.2681    39.720883    39.286657    23.887619 
 3988200     229.5767   -196.64525    216156.16   -22223.459    1454.1896   -23677.648   -172.19547    5497.2828    39.720185    39.285919    23.889493 
 3988400    225.48185   -251.17884    216156.16   -22206.394     1428.252   -23634.646   -399.38327    5497.1989    39.719661    39.284588    23.886774 
 3988600    217.61739   -263.39522    216156.16   -22256.658    1378.4367   -23635.094   -444.72717    5497.0885     39.71924    39.284669    23.885729 
 3988800    230.06556   -187.23122    216156.16   -22255.454    1457.2862    -23712.74   -148.08022    5496.6681    39.718624    39.284441     23.88523 
 3989000    221.33281   -222.42656    216156.16   -22181.902     1401.971   -23583.873   -270.13671    5496.8517    39.718848    39.284143    23.884632 
 3989200    220.88684   -304.04178    216156.16    -22208.84    1399.1461   -23607.986   -659.29729    5496.2811     39.71921    39.285002    23.890288 
 3989400    224.61311   -190.99115    216156.16   -22254.119    1422.7491   -23676.868   -146.85583     5493.976    39.719275    39.285053    23.889706 
 3989600     231.7572   -189.27963    216156.16   -22169.173    1468.0014   -23637.175   -163.04528    5495.9348    39.719226     39.28547    23.884044 
 3989800    222.20563    -139.3606    216156.16   -22192.661    1407.4996    -23600.16      79.0265    5495.6766    39.718326    39.286496    23.888643 
 3990000    224.48464   -253.38656    216156.16   -22241.372    1421.9354   -23663.308   -405.50586    5495.0745    39.717179    39.286652    23.883345 
 3990200    219.76107   -370.64906    216156.16   -22242.363    1392.0153   -23634.378   -924.80181    5497.1107    39.717131    39.287172    23.884372 
 3990400    228.07915   -209.34364    216156.16   -22217.844    1444.7038   -23662.548    -235.8176    5498.2825    39.717234    39.288817    23.880967 
 3990600    226.16783   -152.70705    216156.16   -22249.368    1432.5971   -23681.965    34.514365    5495.8042     39.71562    39.289633    23.885607 
 3990800    227.41337   -132.42505    216156.16   -22219.276    1440.4866   -23659.762    144.15551     5496.753    39.714931    39.289773    23.884548 
 3991000    225.52882   -265.77843    216156.16    -22180.99    1428.5494   -23609.539   -440.89027     5496.983    39.714918    39.290448    23.874734 
 3991200    227.68997   -290.47505    216156.16   -22157.222    1442.2387    -23599.46   -572.83157    5497.7003     39.71599    39.290854    23.877157 
 3991400    225.67614   -215.55885    216156.16   -22157.985    1429.4827   -23587.468   -257.93548    5496.9491    39.715371    39.291433    23.881369 
 3991600    226.06901   -200.78587    216156.16   -22202.647    1431.9712   -23634.618   -208.04581    5495.3804    39.714592    39.292723     23.87375 
 3991800    218.35961   -200.10624    216156.16   -22268.447    1383.1381   -23651.585   -168.50674    5496.0717     39.71451    39.293552    23.876384 
 3992000    226.24986   -275.11304    216156.16   -22220.259    1433.1167   -23653.376   -460.97418    5496.7805    39.713944    39.294283    23.876122 
 3992200    226.07056   -284.25709    216156.16    -22208.76     1431.981   -23640.741   -535.11395    5496.0264    39.713466    39.295341    23.881169 
 3992400    228.35563   -106.08955    216156.16   -22224.751    1446.4551   -23671.206    214.30662    5495.9673    39.712757     39.29633    23.880127 
 3992600    218.86013   -124.01617    216156.16   -22216.078    1386.3085   -23602.386    164.95978    5495.7268    39.711735    39.297031    23.880464 
 3992800      221.533   -376.26863    216156.16   -22210.459     1403.239   -23613.698   -916.11813    5499.2714    39.711973    39.297961    23.881757 
 3993000    217.90892   -286.33891    216156.16   -22291.982    1380.2833   -23672.266   -558.66826    5498.2005    39.711819    39.297966    23.879255 
 3993200    228.02577   -176.41687    216156.16   -22208.384    1444.3657    -23652.75   -96.818269    5495.4666    39.711132    39.298116    23.884026 
 3993400    228.91519   -165.26808    216156.16   -22171.232    1449.9995   -23621.231   -35.601897     5496.639    39.710847    39.297771    23.883074 
 3993600    227.35551   -248.80181    216156.16    -22190.63    1440.1202    -23630.75   -393.68878    5498.1623     39.71035     39.29796    23.880296 
 3993800    224.29716   -291.06894    216156.16    -22202.58    1420.7479   -23623.328    -549.9556    5496.6684    39.710063    39.298597    23.887228 
 3994000    225.47134    -275.8625    216156.16   -22218.965    1428.1854    -23647.15   -519.60061    5497.0486    39.709036    39.298353    23.886218 
 3994200    227.82093   -117.43285    216156.16   -22238.147    1443.0682   -23681.215    213.40015    5497.2431    39.708345    39.299417    23.883151 
 3994400    221.04628   -205.53514    216156.16   -22210.439    1400.1561   -23610.595   -184.19224    5496.4106    39.707536     39.29936    23.880826 
 3994600    217.81998   -302.23997    216156.16   -22275.202      1379.72   -23654.922   -603.74629    5497.0684    39.705876    39.299151    23.881617 
 3994800    228.42509   -247.82534    216156.16   -22178.699    1446.8951   -23625.595   -357.62973    5497.2265    39.705063    39.299636    23.884786 
 3995000     227.4174   -193.91341    216156.16   -22199.754    1440.5121   -23640.266   -153.36907    5496.3218    39.704271    39.299327    23.880858 
 3995200    219.20521   -198.71554    216156.16   -22250.011    1388.4943   -23638.505    -164.7196    5496.2424    39.703158    39.299447    23.879456 
 3995400    221.75316   -232.24049    216156.16     -22191.1    1404.6336   -23595.734   -340.94896    5497.3553    39.701619    39.299359     23.88268 
 3995600    229.87383   -248.85676    216156.16   -22131.509    1456.0717   -23587.581   -363.06265    5497.6687    39.700418    39.299326    23.885464 
 3995800    228.08004   -194.82072    216156.16   -22155.799    1444.7094   -23600.509   -131.24874    5496.6573      39.6993    39.300277    23.887297 
 3996000    239.30867   -212.23585    216156.16   -22109.636    1515.8341    -23625.47   -287.11204     5498.287    39.698834    39.301319    23.886216 
 3996200    226.86386   -263.03556    216156.16   -22186.403    1437.0059   -23623.408   -461.07683    5495.5525     39.69838    39.302203    23.880393 
 3996400    223.60331   -247.43142    216156.16   -22212.273    1416.3528   -23628.626   -381.02272    5495.8294    39.697833    39.303629     23.88543 
 3996600    228.17745   -126.72873    216156.16   -22195.767    1445.3265   -23641.093    165.70593    5496.4063    39.697234    39.303751    23.890376 
 3996800    223.82979   -261.98817    216156.16   -22238.533    1417.7874   -23656.321   -427.53603    5496.2204    39.696139    39.304635    23.886087 
 3997000    233.28689   -276.82644    216156.16   -22123.113    1477.6908   -23600.804   -473.85161    5496.7002    39.694978    39.304532    23.884922 
 3997200    224.44943   -187.32058    216156.16   -22182.978    1421.7124   -23604.691   -104.63931    5495.6221    39.694334    39.303791    23.882908 
 3997400    226.02161   -203.99338    216156.16   -22250.273    1431.6709   -23681.944   -205.16379    5497.0024     39.69433    39.304342    23.883154 
 3997600    226.16371   -306.82331    216156.16   -22178.741     1432.571   -23611.312   -639.62934    5497.0006    39.693288     39.30484    23.882614 
 3997800    216.63617   -221.75932    216156.16   -22298.479    1372.2214     -23670.7   -259.34664    5496.7233    39.693472    39.305348    23.882881 
 3998000     226.0118   -251.43823    216156.16    -22222.73    1431.6088   -23654.339   -398.33888    5497.9108    39.693354    39.306342    23.884185 
 3998200    223.36967   -281.12197    216156.16   -22266.027     1414.873     -23680.9   -557.17609    5496.3861    39.693401    39.307075    23.884388 
 3998400    232.39719   -218.47544    216156.16   -22139.949    1472.0552   -23612.004   -228.15733      5497.63    39.692924    39.307545    23.881108 
 3998600    217.28441   -270.63573    216156.16   -22221.244    1376.3276   -23597.571   -447.37974    5497.7995    39.691815    39.307946    23.882032 
 3998800    233.86088   -275.58586    216156.16     -22227.5    1481.3266   -23708.827   -461.44465    5498.1534    39.691102    39.307704    23.881693 
 3999000    228.19279   -218.21674    216156.16   -22170.345    1445.4237   -23615.769   -241.38498    5496.9492     39.69179    39.307563    23.882629 
 3999200     221.8481   -140.72089    216156.16   -22218.516    1405.2349   -23623.751    91.928256    5496.9035    39.691196    39.306858    23.884626 
 3999400     220.0309   -235.87442    216156.16   -22259.714    1393.7244   -23653.439   -317.04006    5496.2281    39.690948    39.306938    23.882303 
 3999600    217.47437   -263.05974    216156.16   -22274.021    1377.5308   -23651.552   -423.91253    5495.7963    39.690453    39.306961    23.889633 
 3999800    226.78076   -235.13498    216156.16   -22183.332    1436.4795   -23619.811   -293.47578    5496.8753    39.689489    39.306758     23.88665 
 4000000    219.40131    -243.2394    216156.16   -22180.339    1389.7364   -23570.075   -350.28855    5496.7246    39.688791    39.306864    23.884826 
Loop time of 2600.58 on 128 procs for 4000000 steps with 9422 atoms

Performance: 1328.935 ns/day, 0.018 hours/ns, 1538.119 timesteps/s
96.7% CPU use with 128 MPI tasks x no OpenMP threads

MPI task timing breakdown:
Section |  min time  |  avg time  |  max time  |%varavg| %total
---------------------------------------------------------------
Pair    | 0.26956    | 732.7      | 1842.8     |2393.8 | 28.17
Neigh   | 2.2046     | 99.712     | 230.29     | 779.2 |  3.83
Comm    | 72.419     | 714.9      | 1462.9     |1698.5 | 27.49
Output  | 60.696     | 60.739     | 60.916     |   0.3 |  2.34
Modify  | 112.41     | 963.78     | 2437.1     |2874.9 | 37.06
Other   |            | 28.75      |            |       |  1.11

Nlocal:        73.6094 ave         144 max           0 min
Histogram: 32 0 13 14 5 0 4 12 26 22
Nghost:        620.320 ave         869 max         417 min
Histogram: 17 16 16 15 15 1 15 5 12 16
Neighs:         0.00000 ave           0 max           0 min
Histogram: 128 0 0 0 0 0 0 0 0 0
FullNghs:      7432.33 ave       16372 max           0 min
Histogram: 42 22 0 0 0 0 4 15 24 21

Total # of neighbors = 951338
Ave neighs/atom = 100.96986
Neighbor list builds = 424101
Dangerous builds = 0
write_data 		${DIR}/data.${NAME}_run
write_data 		run_2/data.${NAME}_run
write_data 		run_2/data.ibeam_cooling_2_run
System init for write_data ...
Total wall time: 0:43:27
