
# Set production fixes - Nose/Hoover
#
fix                 4 water temp/csvr ${START_TEMP} ${END_TEMP} 500.0 928347
fix                 4 water temp/csvr 240 ${END_TEMP} 500.0 928347
fix                 4 water temp/csvr 240 227 500.0 928347


## divide "droplet" into core and surface
#region		core_reg cylinder z 135 135 44.6 20 INF units box
#region		surface_reg cylinder z 135 135 44.6 20 INF units box side out
#group		core dynamic all region core_reg
#group		surface dynamic all region surface_reg

## compute pressure core
#compute        peratom_core core stress/atom NULL
#compute        p_core core reduce sum c_peratom_core[1] c_peratom_core[2] c_peratom_core[3]
#variable       press_core equal -(c_p_core[1]+c_p_core[2]+c_p_core[3])/(3*1249982.5)


## compute pressure surface
#compute        peratom_surf surface stress/atom NULL
#compute        p_surf surface reduce sum c_peratom_surf[1] c_peratom_surf[2] #c_peratom_surf[3]
#variable       press_surf equal -(c_p_surf[1]+c_p_surf[2]+c_p_surf[3])/(3*42395)

## compute total pressure of drop
compute        peratom water stress/atom NULL
compute        p water reduce sum c_peratom[1] c_peratom[2] c_peratom[3]
variable       press equal -(c_p[1]+c_p[2]+c_p[3])/(3*58301)


# compute order parameter
compute        3 all orientorder/atom nnn NULL cutoff 3.5

# compute center of mass of bridge
compute 	4 water com

# Run simulation
thermo_style        custom step c_2 press vol etotal ke pe v_press c_1[4] c_4[*]
thermo              200
dump		     1 water custom 400 ${DIR}/prod.${NAME}.dump id type x y z vx vy vz c_3[*] c_peratom[*]
dump		     1 water custom 400 run_17/prod.${NAME}.dump id type x y z vx vy vz c_3[*] c_peratom[*]
dump		     1 water custom 400 run_17/prod.ibeam_cooling_17.dump id type x y z vx vy vz c_3[*] c_peratom[*]
run                 ${STEPS}
run                 5200000
Neighbor list info ...
  update every 1 steps, delay 0 steps, check yes
  max neighbors/atom: 2000, page size: 100000
  master list distance cutoff = 6.67472
  ghost atom cutoff = 6.67472
  binsize = 3.33736, bins = 57 9 12
  2 neighbor lists, perpetual/occasional/extra = 1 1 0
  (1) pair sw, perpetual
      attributes: full, newton on
      pair build: full/bin/atomonly
      stencil: full/bin/3d
      bin: standard
  (2) compute orientorder/atom, occasional, copy from (1)
      attributes: full, newton on
      pair build: copy
      stencil: none
      bin: none
Per MPI rank memory allocation (min/avg/max) = 0.8519 | 6.018 | 7.255 Mbytes
Step c_2 Press Volume TotEng KinEng PotEng v_press c_1[4] c_4[1] c_4[2] c_4[3] 
       0    239.15468   -311.65808    204420.41   -23253.764    1735.8498   -24989.614   -571.62337    35.391281    95.095376    14.527849    27.871769 
     200    238.44669    -264.1914    204420.41   -23268.084     1730.711   -24998.795    -394.9851    38.022655    95.093824    14.526792    27.861508 
     400    237.25497   -496.52836    204420.41   -23235.858    1722.0612   -24957.919   -1159.6611    39.136385    95.094433    14.528462    27.881217 
     600    238.99051   -367.04054    204420.41    -23131.43    1734.6582   -24866.088   -768.68066    40.549431    95.097015    14.529507    27.858924 
     800    239.79523   -281.62739    204420.41   -23140.109    1740.4991   -24880.609   -426.11098    41.678112    95.095639    14.530665    27.857946 
    1000    239.06202    -265.2102    204420.41   -23210.108    1735.1773   -24945.285   -405.11905    43.817085    95.094612     14.52866    27.856673 
    1200    241.59704   -330.56996    204420.41   -23160.098    1753.5771   -24913.675    -650.5433    45.090956    95.095427    14.528579    27.842508 
    1400    241.97996   -438.32358    204420.41   -23166.589    1756.3565   -24922.945   -1038.1214    47.324237    95.094998    14.528832    27.852284 
    1600    245.42697   -260.40833    204420.41   -23156.363    1781.3759   -24937.739     -359.762    48.689574    95.096127    14.526313    27.826547 
    1800    246.21647   -308.38554    204420.41   -23144.962    1787.1063   -24932.068   -534.99082    50.803688    95.094288     14.52443    27.814796 
    2000    244.83693   -339.42096    204420.41   -23084.894    1777.0932   -24861.988   -682.16044    52.728955    95.094292    14.523057    27.810378 
    2200    246.83693   -479.14323    204420.41   -23170.751    1791.6097   -24962.361   -1120.8107    54.211295    95.094098    14.519386    27.793337 
    2400    240.73244    -186.1718    204420.41   -23188.651    1747.3017   -24935.953   -146.17284    56.388499    95.093038    14.518893    27.784551 
    2600    239.55722   -329.65667    204420.41   -23242.999    1738.7716   -24981.771   -623.24654    56.976141    95.091667    14.519833     27.78371 
    2800    244.71235   -422.20861    204420.41   -23199.236    1776.1889   -24975.425   -936.36449    57.729888    95.091096    14.521315    27.772291 
    3000    239.70246   -154.38174    204420.41   -23194.517    1739.8258   -24934.343    -47.60523    58.555446    95.093139    14.521354    27.755824 
    3200    232.79064   -444.95107    204420.41   -23224.435    1689.6579   -24914.093   -1025.5399    60.562024    95.092409    14.519615    27.779088 
    3400    235.07059   -553.69498    204420.41   -23228.758    1706.2064   -24934.964   -1402.6342    61.777385    95.095363    14.518443    27.775987 
    3600    234.34232   -293.66407    204420.41   -23226.449    1700.9204    -24927.37   -528.59427    64.331528    95.095315    14.516629    27.751232 
    3800    239.91179   -356.96978    204420.41   -23159.203    1741.3452   -24900.548   -696.76478    66.528909    95.094306    14.515735    27.780086 
    4000    242.53422   -408.04085    204420.41   -23222.133    1760.3795   -24982.513   -904.98831    68.399675    95.095028     14.51398    27.788709 
    4200     242.8816   -482.73727    204420.41   -23188.337    1762.9008   -24951.238   -1166.3419    69.226673    95.095136    14.512342    27.775742 
    4400    244.68242   -204.89059    204420.41   -23227.863    1775.9717   -25003.834   -246.08136    71.120697    95.094042    14.511581    27.772914 
    4600    238.55474   -243.79256    204420.41   -23298.534    1731.4953    -25030.03   -313.71708     71.33781    95.093804    14.510832    27.775161 
    4800    244.72135   -137.98408    204420.41   -23142.539    1776.2542   -24918.794      58.5048    71.795418    95.095142    14.511229    27.781035 
    5000    236.39611   -217.70678    204420.41   -23181.537    1715.8273   -24897.364    -255.7511    73.114973    95.093932    14.510657    27.778552 
    5200    238.50111   -340.97569    204420.41   -23179.871    1731.1061   -24910.977   -683.71599    75.247903    95.091079    14.511512    27.768405 
    5400    234.69287   -217.26417    204420.41   -23229.034    1703.4648   -24932.499   -262.71536    76.404995    95.091069    14.512702     27.75173 
    5600    239.19017   -458.98124    204420.41   -23258.923    1736.1074    -24995.03   -1066.1503    78.430574    95.090996    14.512484    27.749075 
    5800     245.9976   -559.19452    204420.41   -23227.357    1785.5176   -25012.874   -1452.1214    79.788679    95.091651    14.511318     27.73507 
    6000    240.96874    -312.3277    204420.41   -23311.634    1749.0168   -25060.651   -569.34335    81.100044    95.093641    14.513257    27.717524 
    6200    235.30387   -409.08989    204420.41   -23330.617    1707.8996   -25038.517   -895.37795    82.165904    95.094259    14.511121    27.700651 
    6400    234.05847    -442.3801    204420.41   -23295.191    1698.8602   -24994.051   -1044.7814    83.508034    95.095156    14.510632    27.708169 
    6600    247.84977   -333.73883    204420.41   -23317.949    1798.9612    -25116.91   -638.67075    84.779506    95.095326    14.509911    27.704724 
    6800     237.8617   -111.30524    204420.41   -23286.751     1726.465   -25013.216    151.88164    85.616017    95.098096    14.511285    27.694999 
    7000     237.3953   -519.17983    204420.41   -23199.035    1723.0797   -24922.114   -1269.2578    87.452754    95.099385    14.507978    27.687268 
    7200    231.36467    -251.4759    204420.41   -23297.811    1679.3078   -24977.119   -354.85189    88.952281    95.099673     14.50396    27.675589 
    7400    248.09004   -351.51896    204420.41   -23283.689    1800.7051   -25084.394   -664.01495    90.597342    95.101024    14.505234    27.685686 
    7600     243.0989   -492.27078    204420.41   -23195.542    1764.4781    -24960.02   -1180.8314    92.339421    95.100722    14.506802    27.674554 
    7800    235.60585   -284.43458    204420.41   -23335.111    1710.0915   -25045.202   -478.88323    94.147804    95.099384    14.508194      27.6712 
    8000    241.27956   -406.76107    204420.41   -23161.906    1751.2728   -24913.179   -933.45099    95.779527    95.099255    14.508689    27.687112 
    8200    241.37353   -256.34713    204420.41   -23210.209    1751.9548   -24962.164   -332.45996    97.654452    95.100071    14.506629    27.694851 
    8400    239.89875   -324.87421    204420.41   -23157.742    1741.2505   -24898.992   -621.88027    100.42766    95.101348    14.503127    27.699507 
    8600    237.51554   -403.03342    204420.41    -23199.66    1723.9525   -24923.613   -908.09408    102.79337    95.101542    14.498346    27.698628 
    8800    234.94522   -248.05568    204420.41   -23231.326    1705.2964   -24936.622    -381.9603    105.66091    95.101624    14.496572    27.689283 
    9000    245.35504    -344.1508    204420.41   -23194.405    1780.8537   -24975.259   -624.03298    109.57821    95.103043    14.496493    27.674463 
    9200    249.47361   -335.44657    204420.41   -23165.724    1810.7474   -24976.471   -694.50577    113.14939    95.101239    14.498775    27.666043 
    9400    238.00346   -303.66551    204420.41   -23212.656     1727.494   -24940.149    -575.3862    116.75976     95.10228    14.495594    27.696385 
    9600    235.64913   -428.04693    204420.41   -23256.288    1710.4056   -24966.693   -933.79899    120.90505    95.102748    14.497414    27.721149 
    9800    242.97468   -575.22673    204420.41   -23155.675    1763.5764   -24919.251   -1470.2167    123.66845    95.105797    14.498452    27.728384 
   10000    234.06736    -79.84963    204420.41   -23195.196    1698.9247   -24894.121    234.68617    126.00379    95.106912    14.502626    27.768918 
   10200    246.13828   -285.40029    204420.41   -23119.943    1786.5387   -24906.482   -424.72353    128.82397    95.108021    14.503163    27.788228 
   10400    247.01808   -455.17749    204420.41    -23147.35    1792.9245   -24940.274   -1090.9541    131.93273    95.107593    14.504089    27.782372 
   10600    242.21981   -339.76998    204420.41   -23227.419    1758.0974   -24985.517   -646.16572    133.89218    95.107206    14.507199     27.77693 
   10800    235.50014   -489.05349    204420.41   -23281.141    1709.3242   -24990.465     -1172.71    135.91922    95.107505    14.511207    27.775334 
   11000    236.93791    -326.3214    204420.41   -23260.059    1719.7599   -24979.819   -656.90931    139.00531     95.10926    14.510422    27.772772 
   11200    233.98547   -260.12077    204420.41   -23264.005    1698.3303   -24962.335   -377.86061    142.72448    95.109933    14.510552    27.775335 
   11400    239.55318   -397.91204    204420.41   -23197.409    1738.7422   -24936.151   -880.79285    145.55477    95.110808    14.514061    27.763189 
   11600    241.48989   -344.07782    204420.41   -23100.183    1752.7994   -24852.982   -664.89256    148.20679    95.111413    14.513898     27.76523 
   11800    238.53995   -383.82668    204420.41   -23114.028    1731.3879   -24845.416   -842.79754     149.9522    95.112209    14.514569    27.750749 
   12000    238.31342   -385.99548    204420.41   -23136.254    1729.7437   -24865.998   -806.19318    151.41304     95.11243    14.513535    27.752282 
   12200    242.71005   -326.85471    204420.41   -23166.289    1761.6557   -24927.945   -629.29229    153.51323    95.112465    14.513725    27.759501 
   12400    246.77506    -380.3159    204420.41   -23211.519    1791.1606    -25002.68    -813.3212    155.98189    95.113548    14.513234    27.765391 
   12600    245.05704   -244.24535    204420.41   -23149.017    1778.6908   -24927.708   -318.54422     160.0814    95.112693    14.518768    27.764575 
   12800    240.09276   -394.86585    204420.41   -23183.583    1742.6586   -24926.241   -845.00524    163.08784    95.112521    14.523197    27.780172 
   13000    240.84747   -119.83338    204420.41   -23244.638    1748.1365   -24992.774    99.698402    165.06736    95.115095    14.526316    27.772087 
   13200     238.6812   -498.37929    204420.41   -23274.067    1732.4132    -25006.48   -1238.9415    166.40071    95.116502     14.52743    27.775864 
   13400     237.2348    -306.6798    204420.41   -23359.768    1721.9148   -25081.683   -558.06899    167.42754    95.115344    14.530953    27.763207 
   13600    235.44952   -342.52957    204420.41   -23299.714    1708.9568   -25008.671   -668.52216    169.22943    95.117074    14.534583    27.765944 
   13800    237.93855   -375.32296    204420.41   -23216.503    1727.0228   -24943.526   -784.53377    173.33665     95.11702    14.535227    27.773466 
   14000     241.0701   -405.63252    204420.41   -23114.759    1749.7525   -24864.512   -868.68303    174.34246    95.116453    14.535266    27.778917 
   14200    242.69907   -279.28209    204420.41   -23199.095     1761.576   -24960.671   -464.49772    174.11284    95.115613      14.5334    27.793166 
   14400    238.26924   -441.33521    204420.41   -23266.103    1729.4231   -24995.526   -1001.1206    175.25741    95.115298    14.535278    27.803344 
   14600    232.62518   -249.32705    204420.41   -23232.707    1688.4569   -24921.164   -309.31999    177.64233    95.114739    14.535296    27.795834 
   14800    244.05825   -270.70759    204420.41   -23206.556    1771.4412   -24977.997   -403.32906    178.96141    95.114273    14.536159    27.792233 
   15000    237.41441   -313.95572    204420.41   -23247.626    1723.2185   -24970.845   -555.66928    182.38838    95.113544    14.535482    27.808861 
   15200    238.88975   -463.21285    204420.41   -23188.201    1733.9269   -24922.127   -1048.4865    183.91365    95.114566    14.537056     27.82796 
   15400    239.82309    -313.7641    204420.41   -23225.545    1740.7013   -24966.247   -586.99942    185.83214    95.114638     14.53618    27.821175 
   15600    244.89786   -428.41387    204420.41    -23120.84    1777.5354   -24898.375   -999.35752    186.06867    95.114159    14.535595    27.830444 
   15800    238.89116   -321.82643    204420.41   -23185.592    1733.9372   -24919.529   -607.37339     187.0112    95.113447    14.533983     27.84723 
   16000    241.99562   -434.93784    204420.41   -23215.505    1756.4702   -24971.975   -982.59395    186.02127    95.111584    14.532342    27.853395 
   16200     240.9345   -475.25108    204420.41   -23160.806    1748.7682   -24909.574   -1112.8631    187.19502    95.110405    14.532985    27.876474 
   16400    235.07314   -281.19617    204420.41   -23197.468    1706.2249   -24903.693   -472.94405    188.19572    95.108285    14.533114    27.870303 
   16600    246.29579   -348.89696    204420.41   -23131.247     1787.682   -24918.929   -709.62648    191.57783    95.106711     14.53376    27.871391 
   16800    242.73255   -317.63894    204420.41   -23186.315     1761.819   -24948.134     -595.935    193.42491    95.108005    14.532703     27.87927 
   17000    240.28297   -483.61396    204420.41   -23246.834    1744.0393   -24990.873   -1165.7582    196.30367    95.107166    14.532029    27.884144 
   17200    235.37302   -384.73714    204420.41   -23247.729    1708.4015    -24956.13   -839.30655    199.96145    95.104983    14.528888    27.888892 
   17400    239.53676   -439.67897    204420.41   -23284.273    1738.6231   -25022.896   -1027.0758    201.08926    95.104191    14.528591    27.919848 
   17600    235.52031   -329.01254    204420.41   -23184.716    1709.4706   -24894.187   -589.68421    201.27834    95.104289    14.526193    27.938428 
   17800    243.58339    -165.6404    204420.41   -23248.613    1767.9946   -25016.607   -74.975181    201.94727    95.104736    14.523475    27.940401 
   18000    242.56253   -196.35927    204420.41   -23189.101    1760.5849   -24949.686   -158.92933     201.6524     95.10453    14.523706    27.928101 
   18200    238.68943   -345.69248    204420.41   -23211.503    1732.4729   -24943.976   -654.24296    200.91092    95.104382    14.525976    27.945193 
   18400     243.9628   -109.45164    204420.41     -23175.4    1770.7484   -24946.148    94.991679     202.5019    95.103058    14.525675    27.933851 
   18600     237.8563   -399.82498    204420.41   -23180.714    1726.4258    -24907.14    -854.8055    205.04951    95.102503    14.527054    27.929093 
   18800    237.88618    -195.7937    204420.41   -23242.668    1726.6427    -24969.31    -170.3364    206.78274    95.102782    14.527562    27.921773 
   19000    244.15126   -353.86607    204420.41   -23159.385    1772.1164   -24931.501   -699.89191    211.01538    95.102209    14.528551    27.917197 
   19200    242.51111   -373.58332    204420.41   -23208.961    1760.2117   -24969.173   -787.57892     213.3947    95.102708    14.529094    27.949096 
   19400    242.45334   -289.21152    204420.41   -23139.967    1759.7924    -24899.76   -502.65692    214.09843    95.102623     14.53094    27.949219 
   19600    241.09848   -237.68256    204420.41   -23151.592    1749.9585   -24901.551   -302.02747    212.42208    95.104428    14.536867    27.956925 
   19800    242.27105   -336.84541    204420.41    -23145.57    1758.4693   -24904.039   -669.53786     211.8963    95.103148    14.538255     27.94916 
   20000    247.28277   -344.32389    204420.41   -23139.024    1794.8457    -24933.87   -639.08778     212.1559    95.103033    14.539956      27.9688 
   20200    233.86375   -316.01526    204420.41   -23263.688    1697.4468   -24961.135    -639.2502    214.02668    95.103445    14.539967    27.964681 
   20400    247.08161   -303.91737    204420.41   -23153.078    1793.3856   -24946.464   -548.73472    214.76194    95.103907    14.538539    27.961949 
   20600    239.63505   -139.35198    204420.41   -23246.578    1739.3365   -24985.915    53.294377    216.57471    95.103445    14.537661    27.977993 
   20800    243.51914   -337.12177    204420.41   -23157.423    1767.5282   -24924.951   -683.41422    219.40405    95.103728    14.537774    28.005913 
   21000     236.6348   -287.32728    204420.41    -23188.08    1717.5598    -24905.64   -481.17436    220.17544    95.103633    14.539149    28.004453 
   21200    242.57616   -278.23663    204420.41   -23179.348    1760.6838   -24940.032   -420.38978    222.20298    95.101242    14.539589    28.000979 
   21400    233.77025   -441.84256    204420.41   -23176.731    1696.7682   -24873.499   -1081.6118    223.95839    95.098907     14.53824    27.988336 
   21600    247.82731   -129.12413    204420.41   -23084.069    1798.7981   -24882.867    81.246262    225.74473     95.10047    14.537578    27.969799 
   21800    233.94517   -66.011869    204420.41   -23201.504    1698.0378   -24899.542    254.44031    227.42617    95.101462    14.538758    27.964123 
   22000    238.64073   -299.81712    204420.41   -23250.194    1732.1194   -24982.313   -568.09715    231.13836    95.102399    14.537959     27.96489 
   22200     234.4332   -348.97634    204420.41   -23307.831    1701.5801   -25009.411   -673.66439    235.64365    95.102625    14.538437    27.943289 
   22400    239.59907   -227.79421    204420.41   -23173.746    1739.0753   -24912.821   -311.47928     238.8474    95.102347    14.537504    27.933766 
   22600    238.42976   -523.09376    204420.41   -23221.243    1730.5881   -24951.831   -1295.1456    241.97997    95.100998    14.538654    27.932857 
   22800    241.48132   -311.43598    204420.41   -23216.749    1752.7372   -24969.486   -586.66502    242.94322    95.100521    14.536562     27.95198 
   23000    238.56164   -443.80282    204420.41   -23296.512    1731.5454   -25028.057   -999.37215    246.43519    95.100973    14.536612    27.965191 
   23200      239.271   -545.01981    204420.41   -23200.261    1736.6941   -24936.955   -1387.1715    248.01974    95.100992    14.540447    27.949756 
   23400    241.24368   -384.81251    204420.41   -23200.087    1751.0124     -24951.1   -811.45653    247.35419    95.101255    14.542341    27.951183 
   23600    243.19831     -266.747    204420.41    -23134.77    1765.1996    -24899.97   -419.87418    248.09167    95.101316    14.544137    27.946653 
   23800    245.12648   -323.77063    204420.41   -23181.477    1779.1948   -24960.672   -583.54041    248.60322    95.100549     14.54424    27.942904 
   24000      234.366   -477.98344    204420.41   -23207.288    1701.0923   -24908.381   -1171.9613    249.88226    95.099671     14.54267    27.941702 
   24200    238.37681   -69.027058    204420.41   -23191.993    1730.2039   -24922.197     299.5177    253.14162    95.101049    14.544073    27.948538 
   24400    239.54726     -338.034    204420.41   -23221.594    1738.6993   -24960.294     -669.353      256.648    95.099803    14.543726    27.943893 
   24600    243.21984   -286.68669    204420.41   -23260.219    1765.3558   -25025.575   -502.46642    258.89261    95.098259    14.546406    27.939068 
   24800    234.64076   -365.96587    204420.41   -23236.157    1703.0865   -24939.244   -770.15995    260.77279    95.098947    14.546654    27.944023 
   25000     235.7042   -504.67381    204420.41   -23219.482    1710.8053   -24930.287   -1200.3118    260.98167    95.099587    14.547281    27.952144 
   25200    228.29682   -325.60967    204420.41   -23338.519    1657.0405   -24995.559   -628.14149    262.40207    95.101065     14.54631     27.94379 
   25400    237.18044   -622.15567    204420.41   -23212.778    1721.5202   -24934.298   -1613.4934    264.30621    95.101339    14.544499    27.947208 
   25600    248.70441   -218.15697    204420.41   -23077.942    1805.1644   -24883.106   -291.36242    263.65258    95.102909    14.544791    27.936915 
   25800    241.18076   -437.11575    204420.41   -23141.679    1750.5557   -24892.234   -966.21371    262.54116    95.102924    14.548375    27.946598 
   26000    234.18983   -373.46132    204420.41   -23185.559    1699.8136   -24885.373   -803.14067    260.43973    95.104483    14.548938    27.951083 
   26200    240.94465    -449.2116    204420.41   -23180.732    1748.8419   -24929.574   -1065.5375    260.20511    95.105254     14.54803    27.943237 
   26400    241.78194   -192.45673    204420.41   -23257.935    1754.9192   -25012.855   -155.07514    258.66085    95.106425    14.544295    27.949194 
   26600    241.55929    -356.8707    204420.41   -23186.531    1753.3032   -24939.834   -756.89201    261.13321    95.104772    14.543514    27.954338 
   26800    244.84724   -521.42905    204420.41   -23186.314     1777.168   -24963.482   -1283.6968    260.77881    95.104329     14.54173    27.953732 
   27000    244.07038   -197.06774    204420.41   -23120.159    1771.5293   -24891.688   -176.86306    259.98604    95.103837    14.541419    27.977677 
   27200    244.98054   -534.57539    204420.41   -23177.295    1778.1355    -24955.43   -1339.4122    260.93512    95.103671    14.539717    27.985019 
   27400    243.27285   -274.80859    204420.41   -23139.301    1765.7406   -24905.042   -409.96466    261.58246    95.102529    14.540381    27.988023 
   27600    230.04005   -371.60567    204420.41   -23262.479    1669.6934   -24932.172   -735.53639    260.24812    95.101923    14.539984    27.981117 
   27800     245.7549   -603.74854    204420.41   -23113.259     1783.756   -24897.015   -1607.3136    260.26864    95.103617     14.53763    27.980453 
   28000    239.60343   -466.79975    204420.41   -23254.789     1739.107   -24993.896   -1125.3843    261.36886    95.105102    14.537675    27.990011 
   28200    235.20779   -354.96399    204420.41   -23229.382    1707.2022   -24936.584   -726.85266    262.31149    95.105652    14.534219     28.00059 
   28400    237.39071   -134.05519    204420.41   -23248.662    1723.0464   -24971.709    45.561227    262.93138    95.104407    14.534419    28.005133 
   28600     243.6379   -365.52897    204420.41   -23247.043    1768.3903   -25015.433   -683.96329    264.62586    95.103407    14.534517    27.991725 
   28800    240.50958    -212.7106    204420.41   -23266.852    1745.6841   -25012.536   -251.84228     267.3345    95.104009    14.534216    27.986843 
   29000    244.84759   -469.87001    204420.41   -23223.628    1777.1705   -25000.799   -1087.7056    270.14162    95.104365    14.534319    27.990297 
   29200    243.84299   -298.01765    204420.41   -23203.216    1769.8788   -24973.095   -527.15331    271.35363      95.1029    14.536814    28.003421 
   29400     235.9888   -419.54105    204420.41   -23202.156     1712.871   -24915.027   -930.28298    273.83217    95.102482    14.535474     27.99735 
   29600    239.77586   -360.76247    204420.41   -23205.181    1740.3585    -24945.54   -742.33143    273.59075    95.102576    14.537128    27.988094 
   29800    235.81984   -303.59155    204420.41   -23266.452    1711.6446   -24978.096   -545.61313    273.97775    95.103424    14.533713    27.985597 
   30000    235.06217    -244.7797    204420.41   -23285.877    1706.1453   -24992.023   -320.45421    274.08063    95.103388    14.534501    28.022207 
   30200    238.60137   -421.08764    204420.41   -23190.464    1731.8338   -24922.298   -943.13811    275.03305    95.104805    14.533983     28.02392 
   30400    244.68798   -385.63214    204420.41   -23202.647     1776.012   -24978.659   -767.25312    276.84759    95.103923    14.535056    28.018042 
   30600    236.81937   -425.67103    204420.41   -23260.546    1718.8995   -24979.446   -952.26822    278.26563    95.101386    14.538207    28.010886 
   30800    242.68982   -154.62417    204420.41    -23259.81    1761.5088   -25021.319   -5.2355428    278.17015    95.102195    14.538719    28.009049 
   31000    244.01236   -328.82278    204420.41   -23248.383    1771.1082   -25019.491   -616.21395    278.11891    95.100341    14.538768      28.0185 
   31200    237.47191   -283.04626    204420.41   -23232.884    1723.6358    -24956.52   -451.10918      277.371    95.101239    14.539531    28.020671 
   31400     238.9698   -383.65532    204420.41   -23204.156    1734.5079   -24938.663   -803.73639    279.10738    95.099682    14.538773    28.013552 
   31600    236.51521    -203.8573    204420.41   -23254.156    1716.6919   -24970.848   -189.64351    281.69522    95.097997    14.537024    28.015058 
   31800      241.282   -261.26496    204420.41   -23188.085    1751.2905   -24939.376    -386.8863    284.04784    95.098034    14.536045    28.021527 
   32000    238.32598   -264.58139    204420.41   -23220.696    1729.8349   -24950.531   -394.96293    285.28064    95.098602    14.538021    28.024233 
   32200    233.04311   -556.91596    204420.41   -23215.756    1691.4904   -24907.247   -1389.9136    288.86824    95.097955      14.5373    28.015555 
   32400    237.52665   -178.23151    204420.41   -23265.315    1724.0332   -24989.349   -119.24729    291.32819    95.098943    14.538422    28.002518 
   32600    244.18131   -325.51026    204420.41   -23189.366    1772.3345   -24961.701   -592.11487    295.51572    95.099712    14.536559    28.000155 
   32800    240.42633   -396.94049    204420.41   -23189.885    1745.0798   -24934.965   -863.65363    298.14872    95.100573    14.536025    28.009759 
   33000    244.36679   -502.84395    204420.41   -23165.128    1773.6807   -24938.809   -1257.9255    299.17877    95.102478      14.5385    28.005045 
   33200    237.37273   -266.95921    204420.41   -23219.401    1722.9159   -24942.317   -413.75755    299.56897    95.101219    14.536644     28.00693 
   33400    240.77491   -275.56165    204420.41   -23255.965    1747.6099   -25003.574   -430.20009    302.47096    95.101155    14.534307    27.999719 
   33600    237.17403   -589.72066    204420.41   -23246.992    1721.4737   -24968.466    -1551.034    303.74818    95.100529    14.535225    27.984973 
   33800    251.71298   -177.85787    204420.41   -23106.268    1827.0014    -24933.27   -117.83713    302.16239     95.10119    14.534216    28.008747 
   34000    234.74067   -286.92534    204420.41   -23249.426    1703.8117   -24953.237   -444.11259    301.47429    95.101768    14.534271    28.005296 
   34200    242.13722   -227.98798    204420.41   -23245.385    1757.4979   -25002.883   -275.36625    301.65324    95.100649     14.53542    28.024992 
   34400    236.30395   -490.78886    204420.41   -23254.293    1715.1585   -24969.451   -1172.9756    301.98709    95.100161    14.535292    28.037632 
   34600    240.14192   -236.43566    204420.41   -23145.764    1743.0155   -24888.779   -271.48356    304.09651     95.10029    14.537124    28.050132 
   34800    236.10187   -407.57699    204420.41   -23224.892    1713.6917   -24938.583   -887.21859    305.89386    95.099296    14.539277    28.050552 
   35000    241.97628   -370.63539    204420.41   -23221.042    1756.3298   -24977.372   -717.17487    309.70856    95.098192    14.539067    28.032142 
   35200    246.91482    -364.7605    204420.41   -23149.171     1792.175   -24941.346   -734.99713    310.98707    95.096489    14.537957    28.028551 
   35400    238.14428      -81.864    204420.41   -23157.158    1728.5161   -24885.675    265.79184    311.89904    95.094842    14.537005    28.013989 
   35600    238.51115   -247.36742    204420.41   -23188.141    1731.1789    -24919.32   -326.76021    316.23134    95.092728    14.537416    27.996428 
   35800    250.75333   -233.40858    204420.41    -23104.18     1820.036   -24924.216   -278.10622    320.13373    95.092343    14.539309    27.973822 
   36000    236.29187    -399.2364    204420.41   -23229.571    1715.0707   -24944.642     -873.623    324.96866    95.091565    14.541922    27.961784 
   36200    241.06322   -266.76906    204420.41   -23206.586    1749.7026   -24956.288   -410.78184    329.04397    95.090356    14.542224    27.949682 
   36400    241.95398   -508.35479    204420.41   -23178.016    1756.1679   -24934.184    -1225.749    332.59011    95.090126    14.542365    27.959405 
   36600    237.60135   -315.87937    204420.41   -23171.939    1724.5753   -24896.514   -579.48584    333.83985    95.087838    14.540694    27.927537 
   36800    234.68085    -438.3004    204420.41   -23266.957    1703.3776   -24970.335   -974.41749    333.45024    95.087706    14.539345    27.950271 
   37000    239.32761   -351.52732    204420.41   -23277.898     1737.105   -25015.003   -718.23609    334.19887    95.088325    14.537836    27.956055 
   37200    236.56184   -445.96708    204420.41   -23263.437    1717.0303   -24980.467   -1006.2851    333.01786    95.090248    14.537339    27.958917 
   37400    236.64923    -319.8325    204420.41   -23287.567    1717.6646   -25005.231   -618.51866    334.97593    95.088997    14.538721    27.964047 
   37600    236.94324   -495.33774    204420.41   -23310.471    1719.7986    -25030.27   -1198.5362     339.0086    95.088252    14.538616    27.965448 
   37800    234.64962   -329.48853    204420.41   -23357.235    1703.1509   -25060.386   -622.09122    341.21909    95.086121    14.538316     27.95448 
   38000    235.65787   -484.57985    204420.41   -23238.302     1710.469   -24948.771    -1142.265     342.3898    95.083322      14.5398    27.938369 
   38200    236.99003    -498.5273    204420.41   -23229.184    1720.1382   -24949.323   -1172.8771    345.51209    95.081026    14.536631    27.933759 
   38400    245.51028   -391.39636    204420.41   -23167.088    1781.9805   -24949.069   -837.14989    346.70004     95.08038    14.535192    27.966367 
   38600    239.50293   -117.17607    204420.41    -23219.25    1738.3776   -24957.628    127.67715    349.16688    95.080878    14.533372    27.953144 
   38800    242.91442   -480.25707    204420.41    -23207.86    1763.1391   -24970.999   -1136.0338    351.70646    95.080507    14.532247    27.926123 
   39000    242.50528   -321.52024    204420.41   -23137.469    1760.1694   -24897.639   -606.10792    353.25033    95.081125    14.531443    27.920508 
   39200    235.88362   -355.28625    204420.41    -23257.48    1712.1076   -24969.587   -689.86398    355.11501    95.081611    14.531069    27.915296 
   39400    242.85947   -199.91689    204420.41   -23260.943    1762.7402   -25023.683   -120.11458    353.68777    95.080693    14.528719    27.927667 
   39600    242.29782   -402.44157    204420.41   -23226.112    1758.6636   -24984.776   -869.28346    355.57895    95.080641    14.529473    27.919161 
   39800    237.31485   -381.16069    204420.41   -23291.106    1722.4958   -25013.602   -780.93662    360.11919    95.080751    14.527905    27.892301 
   40000    241.09733   -227.13388    204420.41   -23294.314    1749.9501   -25044.264   -257.21945    363.13361    95.079944    14.528293    27.875314 
   40200    241.24513   -365.78973    204420.41   -23271.296    1751.0229   -25022.319    -745.7616      366.013    95.079441    14.528015    27.839219 
   40400    233.51536   -367.59606    204420.41   -23303.361    1694.9181   -24998.279    -721.4045    368.26102    95.079802    14.524734    27.845064 
   40600     236.3649   -312.64469    204420.41   -23233.159    1715.6008    -24948.76   -607.40389    372.94458    95.079934    14.523474    27.836133 
   40800    242.60183   -458.51946    204420.41   -23300.799    1760.8701   -25061.669   -1057.0085    375.47613     95.08171    14.524529    27.818766 
   41000    242.75083   -234.30427    204420.41   -23311.177    1761.9517   -25073.128   -291.97383    375.55267    95.084952    14.523558     27.81739 
   41200    241.30289   -239.85163    204420.41   -23193.013    1751.4421   -24944.455   -290.87802    379.93459    95.085929    14.523734    27.805278 
   41400    246.49749   -335.96511    204420.41   -23246.055     1789.146   -25035.201   -621.12913    381.42495    95.087856    14.525224    27.806511 
   41600    242.18402   -341.69677    204420.41   -23248.775    1757.8376   -25006.613   -690.91421    383.86913    95.088582    14.525736    27.821356 
   41800    243.19017   -394.26068    204420.41   -23232.008    1765.1405   -24997.148   -835.09726     383.5652    95.088476    14.525715      27.8251 
   42000      236.837   -330.70403    204420.41   -23244.161    1719.0275   -24963.189   -619.40397     385.5254    95.089247    14.523768    27.835611 
   42200     234.2594   -193.53421    204420.41   -23296.705    1700.3185   -24997.024   -99.321519    386.85998    95.088601    14.521803    27.823082 
   42400    240.67588   -258.18034    204420.41   -23276.351    1746.8911   -25023.242   -340.45639    388.09685    95.088317    14.522889    27.836894 
   42600    241.75314   -188.35779    204420.41    -23262.43    1754.7102    -25017.14    -116.6242    391.11939    95.088107    14.520671    27.818511 
   42800    241.09429   -289.95273    204420.41   -23218.101    1749.9281   -24968.029   -462.67284    394.88702     95.08945    14.520929    27.828612 
   43000    239.88547   -451.20594    204420.41   -23250.853    1741.1541   -24992.007   -1041.2885    395.63334    95.088008    14.518461    27.850105 
   43200    242.26793   -421.81449    204420.41   -23257.523    1758.4466    -25015.97   -936.61775     392.8398    95.087141    14.517954    27.844324 
   43400    239.68511   -323.38499    204420.41   -23218.214    1739.6999   -24957.914   -587.05768    394.46729    95.086906    14.516664    27.850096 
   43600    234.69369   -519.99652    204420.41   -23241.355    1703.4707   -24944.826   -1302.6715     396.7262    95.087929    14.517101    27.854854 
   43800    239.85314    -290.9227    204420.41   -23281.108    1740.9194   -25022.028   -460.59787    396.69675    95.086088    14.515603     27.85513 
   44000    237.88663   -325.53398    204420.41   -23303.723     1726.646   -25030.369    -594.7945    400.81618    95.086235    14.512294    27.856763 
   44200    241.94086   -354.81756    204420.41   -23253.125    1756.0727   -25009.198   -676.52164    405.90397    95.085476    14.509525    27.865271 
   44400    235.77665   -340.89028    204420.41   -23250.212    1711.3312   -24961.544   -643.81128    410.51734    95.086055    14.505918     27.82564 
   44600    239.17703   -606.77428    204420.41   -23269.479     1736.012   -25005.491   -1593.3707    412.97172    95.086209    14.507785    27.832647 
   44800    238.25831   -327.64196    204420.41   -23308.462    1729.3437   -25037.805   -588.31432    411.73094    95.086725    14.511039    27.837734 
   45000    239.14707   -469.65898    204420.41   -23268.922    1735.7946   -25004.717   -1114.0452    412.32245    95.086433    14.511395    27.829707 
   45200    239.26558   -333.15028    204420.41   -23249.805    1736.6548    -24986.46   -638.91897    413.82524    95.085319    14.513352    27.818104 
   45400    234.01163   -484.83489    204420.41    -23290.75    1698.5202    -24989.27    -1155.585      414.141    95.085741    14.513167    27.798193 
   45600    239.81508     -278.242    204420.41   -23182.515    1740.6432   -24923.158    -461.1545    414.60004    95.086776    14.514809      27.8032 
   45800     243.3724   -437.92219    204420.41   -23193.723    1766.4632   -24960.186   -1003.9916    412.98684     95.08597    14.515728    27.815401 
   46000    244.20183   -206.53223    204420.41   -23138.878    1772.4834   -24911.361   -177.33548    413.88092    95.084819    14.516718    27.810789 
   46200    241.59152   -247.78777    204420.41   -23151.063    1753.5371     -24904.6   -351.55523    412.77204    95.085353    14.516386    27.786882 
   46400    239.40779   -283.58298    204420.41   -23252.689     1737.687   -24990.376   -515.88508    413.84886     95.08704    14.516939    27.806558 
   46600    236.59686   -406.63555    204420.41   -23296.795    1717.2845    -25014.08   -896.19264    416.34353    95.087347    14.517007     27.80554 
   46800    236.16648   -464.55051    204420.41   -23229.177    1714.1607   -24943.337   -1118.3264    420.85684    95.088621    14.517949    27.792692 
   47000    243.15798   -285.30556    204420.41   -23198.125    1764.9069   -24963.032   -462.54211    422.96904    95.088546    14.517753    27.805472 
   47200      240.225   -345.54798    204420.41   -23293.766    1743.6185   -25037.385   -667.66042    422.69109    95.087244    14.516469     27.83422 
   47400    238.74718   -244.22264    204420.41    -23220.66    1732.8921   -24953.552   -313.77835    420.85386     95.08759     14.51667    27.820676 
   47600    245.26118   -257.68725    204420.41   -23234.591    1780.1725   -25014.764   -361.23912    419.16218    95.088129    14.517291     27.83315 
   47800    239.19044   -343.51541    204420.41   -23302.343    1736.1094   -25038.452   -631.32159    419.21935    95.087473    14.517391    27.833117 
   48000    239.71043   -424.06816    204420.41   -23314.245    1739.8836   -25054.129   -911.50096    420.49505    95.086626     14.51862     27.84227 
   48200    240.05745   -168.09597    204420.41   -23290.675    1742.4024   -25033.077    -72.06474    424.09107    95.087896    14.520049    27.837541 
   48400    234.66326   -518.16656    204420.41   -23290.684    1703.2499   -24993.934   -1286.3519    428.92439    95.090831    14.518896    27.843492 
   48600    237.09233   -209.78759    204420.41   -23372.592    1720.8807   -25093.473   -220.63923    431.13255    95.090568    14.516995    27.851577 
   48800    238.35557   -265.65471    204420.41   -23316.338    1730.0496   -25046.388    -393.7087    433.72915    95.091258    14.515217    27.872972 
   49000    238.94142   -461.14052    204420.41   -23316.004     1734.302   -25050.306   -1078.0653    436.02361    95.089771    14.515591    27.874142 
   49200    247.17385   -244.57765    204420.41    -23285.81    1794.0552   -25079.865   -318.69394     436.3805    95.089666    14.518017     27.85596 
   49400    229.44781   -422.19295    204420.41    -23359.34    1665.3947   -25024.734   -957.85903    434.83581    95.090198    14.521985    27.841707 
   49600    238.93403   -337.42739    204420.41   -23311.832    1734.2483    -25046.08   -607.10664    435.83311    95.088553    14.522802    27.849338 
   49800    236.64803   -386.79834    204420.41   -23284.713    1717.6559   -25002.369   -814.06061    434.43484     95.08682    14.525079    27.849666 
   50000    236.60539   -440.44007    204420.41   -23273.703    1717.3464   -24991.049   -1014.3956    431.82336    95.086894    14.524742    27.870798 
   50200    242.71853   -392.79855    204420.41   -23182.773    1761.7172    -24944.49   -842.67591    434.30537    95.088715    14.523911    27.874429 
   50400    240.42874   -292.72019    204420.41   -23235.659    1745.0973   -24980.757   -469.23942    437.94327    95.088624    14.521344    27.889422 
   50600    252.41206   -275.57428    204420.41   -23137.352    1832.0755   -24969.427   -458.45335     440.5754    95.088743    14.520539    27.888248 
   50800    234.01311   -396.76069    204420.41   -23342.283    1698.5309   -25040.814   -847.18122    444.09184    95.087724    14.520634    27.892352 
   51000    237.09812   -429.55554    204420.41   -23261.135    1720.9228   -24982.058   -946.82093    447.39593    95.088444    14.521863    27.896124 
   51200    239.93305   -154.15284    204420.41   -23292.839    1741.4995   -25034.339   -5.9509655    446.12144    95.091244    14.520823    27.863322 
   51400    238.34659   -342.36024    204420.41    -23286.14    1729.9845   -25016.125   -662.81253     442.3733    95.090745    14.519119    27.859053 
   51600    239.12272   -207.61293    204420.41   -23283.043    1735.6178   -25018.661   -186.12465    439.45431    95.087415    14.518911    27.855883 
   51800    233.59124   -329.36467    204420.41   -23245.074    1695.4688   -24940.543   -604.24529    439.25669    95.086397    14.518666    27.861908 
   52000    238.64682   -295.63885    204420.41   -23283.128    1732.1637   -25015.292   -484.55875    440.43138    95.086925    14.521661    27.866521 
   52200    234.14711   -129.22827    204420.41   -23297.506    1699.5035   -24997.009    33.533212    437.26756    95.087478    14.525629     27.86737 
   52400    232.13565   -153.16325    204420.41   -23381.129    1684.9038   -25066.033   -11.624827    437.43979    95.088086    14.525952    27.891358 
   52600    238.95434   -489.37197    204420.41   -23242.154    1734.3957    -24976.55    -1166.909    433.78961    95.088974    14.529191    27.887048 
   52800    243.63238    -278.8549    204420.41   -23172.197    1768.3502   -24940.547    -420.5258    433.58236    95.089013    14.531587    27.881637 
   53000    240.72022   -388.61831    204420.41   -23137.684    1747.2129   -24884.897   -879.59058    435.72282    95.090532    14.533225    27.868659 
   53200    236.95601   -272.86766    204420.41   -23264.542    1719.8913   -24984.434   -396.07908    436.11096    95.091812    14.532824     27.89934 
   53400    238.93822   -398.34957    204420.41   -23278.848    1734.2787   -25013.127   -848.19293    436.79982    95.091944    14.533234    27.905696 
   53600    233.67456   -354.59783    204420.41   -23334.039    1696.0737   -25030.112   -696.96717    436.27837    95.090124    14.533514    27.918818 
   53800    235.28863    -186.3789    204420.41   -23287.055     1707.789   -24994.844   -121.44191    438.80862    95.091689    14.533763    27.918117 
   54000    235.59654   -389.11498    204420.41   -23250.389    1710.0238   -24960.413   -852.07537    441.61684    95.093396    14.531703     27.92757 
   54200    243.51776   -396.99017    204420.41   -23227.163    1767.5183   -24994.681   -903.81355    445.41973    95.091863     14.53337    27.917037 
   54400    240.47076   -72.069234    204420.41    -23198.65    1745.4023   -24944.053    241.78611    446.81323    95.091254    14.534704    27.913361 
   54600    236.73939   -357.38539    204420.41   -23225.231     1718.319    -24943.55   -744.88579    446.63803    95.091578    14.537373    27.888326 
   54800    238.78248   -197.83253    204420.41   -23226.753    1733.1483   -24959.901   -139.48818    445.16607    95.091115    14.539775    27.905165 
   55000    243.55901   -355.88449    204420.41   -23174.328    1767.8176   -24942.146   -720.68257    445.79612    95.091642      14.5405    27.930053 
   55200    238.20655   -446.34416    204420.41   -23298.178     1728.968   -25027.146   -1062.2189    446.62013    95.093707    14.540497    27.921028 
   55400    235.24616   -267.50148    204420.41   -23268.992    1707.4807   -24976.472   -374.19432    444.14136      95.0929    14.540928    27.905256 
   55600    238.57976   -239.66302    204420.41   -23252.026    1731.6769   -24983.703   -314.89855    442.16723    95.092914    14.540685    27.903721 
   55800    242.04458   -429.93847    204420.41   -23158.945    1756.8255   -24915.771   -1028.2615    442.53495    95.092734    14.543511    27.910388 
   56000    240.36561   -291.27166    204420.41   -23199.711    1744.6391   -24944.351   -530.30799    445.14684     95.09368    14.546623    27.921003 
   56200     243.6022   -177.53816    204420.41   -23186.896    1768.1311   -24955.028   -104.72482    447.37634    95.093492    14.546145    27.918923 
   56400    238.66748   -435.32714    204420.41   -23269.561    1732.3136   -25001.875   -1002.6015    448.25483    95.092985    14.543427    27.914846 
   56600    237.21683   -310.97801    204420.41   -23343.166    1721.7844   -25064.951   -544.50539    449.30719    95.093359    14.544094    27.891813 
   56800    244.10232    -252.9593    204420.41   -23214.786    1771.7612   -24986.547   -311.83794    450.87545     95.09334    14.546675    27.882718 
   57000    234.21639   -258.31722    204420.41   -23244.899    1700.0064   -24944.906   -370.27905     448.5156    95.092456     14.54519    27.873806 
   57200    238.41593   -363.70303    204420.41   -23150.312    1730.4878     -24880.8   -771.01377    450.59688    95.091301    14.542387    27.871438 
   57400    239.20348   -340.58209    204420.41   -23238.346    1736.2041    -24974.55   -603.85476    453.36999    95.090808    14.542063    27.887872 
   57600    240.80363   -329.14053    204420.41   -23298.294    1747.8184   -25046.113   -647.63486    454.85771    95.090919    14.542455    27.881972 
   57800    238.01113   -325.53441    204420.41   -23229.609    1727.5496   -24957.159   -569.07429     454.5472    95.090284    14.542689    27.894667 
   58000    243.03515   -228.40394    204420.41   -23233.258    1764.0154   -24997.273   -239.19691    453.92849    95.089152    14.540583    27.911665 
   58200    241.42466   -472.97742    204420.41   -23191.173     1752.326   -24943.499   -1114.5767    455.47524    95.088492    14.541401    27.897936 
   58400    241.67017   -443.75336    204420.41   -23165.406     1754.108   -24919.514   -1053.9841     458.4284    95.088569    14.541581     27.91602 
   58600    239.64152   -356.32252    204420.41    -23209.52    1739.3835   -24948.903   -686.24857    463.25713    95.090201    14.538478    27.907272 
   58800    240.23593   -257.79658    204420.41   -23180.744    1743.6979   -24924.442   -376.79721    467.77928    95.087387    14.537547    27.912942 
   59000    245.35262    -278.6392    204420.41   -23135.711    1780.8362   -24916.547    -449.5195    468.67235    95.087297     14.53496    27.914884 
   59200     244.3339   -345.26856    204420.41   -23214.306     1773.442   -24987.748   -634.28557    470.19261    95.085639     14.53332    27.908406 
   59400    242.92459   -423.68899    204420.41    -23212.05    1763.2129   -24975.263   -945.43935    471.54949    95.085547    14.531635    27.921009 
   59600    239.70146   -345.71542    204420.41   -23286.578    1739.8185   -25026.396   -640.63016    473.56585    95.084589     14.53587    27.935296 
   59800    239.42974   -289.57467    204420.41   -23218.925    1737.8463   -24956.771   -517.40949    475.62073    95.083709    14.539571    27.945002 
   60000    246.35421   -359.90242    204420.41   -23187.381     1788.106   -24975.487   -769.18619    480.12315    95.083789    14.541098    27.929146 
   60200    239.77172   -333.56388    204420.41   -23223.981    1740.3285   -24964.309   -650.75275    482.78316    95.083839     14.54175     27.92477 
   60400     240.6357   -200.57823    204420.41   -23143.241    1746.5995   -24889.841   -214.60563    487.81666    95.083405    14.541046     27.92663 
   60600    239.28722   -553.46073    204420.41   -23162.698    1736.8119    -24899.51   -1404.6841    488.71145    95.083589    14.541742    27.926372 
   60800    244.51952   -319.00913    204420.41   -23087.259    1774.7893   -24862.049   -593.32873    489.89159    95.083981    14.543538    27.936046 
   61000    244.64733   -131.02855    204420.41   -23121.042     1775.717   -24896.759    58.157305    488.16811     95.08399    14.544662    27.940346 
   61200    244.82031   -361.41142    204420.41   -23106.782    1776.9725   -24883.755   -805.06742    486.95049    95.085447      14.5495    27.939142 
   61400    244.99734   -339.90027    204420.41   -23160.196    1778.2574   -24938.453   -675.00638     484.3264     95.08598    14.552033    27.938138 
   61600    238.25022   -416.81352    204420.41   -23195.953     1729.285   -24925.238   -926.12409    484.07532    95.085074    14.552027    27.936151 
   61800    240.94443   -390.50255    204420.41   -23262.648    1748.8403   -25011.488     -830.323    486.13577    95.084869    14.554972    27.965515 
   62000     241.9524   -539.43122    204420.41   -23185.775    1756.1564   -24941.932    -1355.292    487.43372    95.083953     14.55476    27.983571 
   62200    237.42434   -401.36451    204420.41   -23181.011    1723.2905   -24904.302   -910.22918     489.8456    95.084836    14.555931    27.993991 
   62400    238.94887   -367.65147    204420.41   -23240.054     1734.356    -24974.41   -754.53087    493.17136    95.084418    14.558058    27.994081 
   62600    234.52699   -329.53602    204420.41   -23246.098    1702.2608   -24948.359   -669.93979    495.63618    95.084159    14.558945     27.99407 
   62800     233.1577   -313.70181    204420.41   -23335.052    1692.3221   -25027.374   -580.46824    494.30772    95.083903    14.559091    28.000857 
   63000    239.01305   -228.98876    204420.41   -23254.249    1734.8218    -24989.07   -282.05548    494.23723    95.084924    14.560721    28.027677 
   63200    236.75382   -451.13673    204420.41   -23278.026    1718.4237    -24996.45   -1060.0297    496.16544    95.084708    14.562522    28.027992 
   63400    234.01614    -335.5779    204420.41   -23303.276    1698.5529   -25001.829   -697.63792    497.03446     95.08305    14.562857    28.034291 
   63600    231.22556   -282.91426    204420.41   -23290.251    1678.2981   -24968.549   -471.39934    498.87278    95.083931    14.563911    28.020026 
   63800     231.5269   -606.80425    204420.41    -23286.25    1680.4853   -24966.735   -1603.5531    502.59784    95.083101    14.562879    28.027269 
   64000    239.90106   -194.98598    204420.41   -23160.109    1741.2672   -24901.377   -161.93315    506.56354     95.08279    14.562758    28.016094 
   64200    238.78725   -351.65964    204420.41   -23164.523     1733.183   -24897.706   -699.34767    510.73801    95.083719    14.564178     28.05108 
   64400    235.54167   -462.93361    204420.41    -23188.39    1709.6256   -24898.016   -1085.7717    511.60471    95.082711    14.563361    28.041279 
   64600     238.1939   -406.99128    204420.41   -23206.644    1728.8762    -24935.52   -896.81431     510.2529    95.083446    14.565398    28.039741 
   64800    243.35817    -155.0869    204420.41   -23236.263    1766.3599   -25002.623   -70.228102    509.89745    95.085097    14.565616    28.054584 
   65000    243.26122   -387.29692    204420.41    -23130.05    1765.6562   -24895.706   -874.93261    513.80358    95.086875    14.564362    28.054609 
   65200    240.38164   -303.96311    204420.41   -23182.026    1744.7555   -24926.781   -533.44504    515.76038    95.087505    14.561605    28.050076 
   65400    240.09495   -430.53237    204420.41   -23190.572    1742.6745   -24933.247   -943.63954    524.15157    95.087911    14.562072    28.039556 
   65600    242.96636   -258.51429    204420.41   -23111.332     1763.516   -24874.848   -432.52839    530.54882     95.08898    14.562844    28.032895 
   65800    231.77999   -387.90405    204420.41   -23134.515    1682.3223   -24816.838   -869.37032    535.33395    95.088759    14.559697    28.033993 
   66000    242.65968    -423.1859    204420.41   -23107.378    1761.2901   -24868.668   -968.29433    538.61862    95.087056    14.558964    28.031098 
   66200    237.76026    -317.8119    204420.41   -23204.381    1725.7287    -24930.11   -571.62222    537.73613    95.086503    14.559026    28.017455 
   66400    243.19091   -262.03721    204420.41   -23199.903    1765.1459   -24965.049   -431.67606    541.20754    95.087708    14.560482     28.03294 
   66600     236.6139   -388.48873    204420.41   -23261.542    1717.4082    -24978.95    -829.8415    541.59866    95.089377    14.557164     28.02679 
   66800    238.12187   -494.31501    204420.41   -23256.087    1728.3534   -24984.441   -1242.0061    545.97204    95.089027    14.557262    28.027101 
   67000    229.11421   -238.26741    204420.41   -23360.697    1662.9733    -25023.67   -262.05914    547.69977     95.08938    14.557139    28.034918 
   67200    240.10953   -330.54017    204420.41   -23290.382    1742.7804   -25033.162   -614.12664    546.84084    95.087524    14.557383     28.03407 
   67400    238.39781    -269.2043    204420.41   -23243.722    1730.3563   -24974.078   -393.72533    545.15022     95.08861    14.555624    28.007943 
   67600    238.27071   -216.16058    204420.41     -23169.5    1729.4338   -24898.933   -232.30561    548.43298    95.088687    14.556118    27.982022 
   67800    241.34263     -375.842    204420.41   -23179.046    1751.7306   -24930.776   -798.29545    546.47959    95.087513    14.554601    27.981312 
   68000    238.17471   -226.84799    204420.41   -23282.884     1728.737   -25011.621   -294.49647    546.94051    95.088803     14.55372     27.96049 
   68200     244.0708   -313.61672    204420.41   -23220.631    1771.5324   -24992.163   -585.92843    546.62578    95.089572    14.556157    27.944528 
   68400    235.63745   -351.56687    204420.41   -23143.624    1710.3208   -24853.945   -692.18473    547.40048    95.089025    14.560051    27.962819 
   68600    240.01818     -257.775    204420.41    -23207.98    1742.1173   -24950.097   -389.07001    546.93826    95.088372    14.558486    27.978914 
   68800    243.34594   -429.11103    204420.41   -23122.513    1766.2712   -24888.784   -965.50453    551.20251     95.08982    14.558278    27.966018 
   69000    239.69554   -263.75526    204420.41   -23130.053    1739.7756   -24869.829   -412.03197     553.7066    95.089942    14.558471    27.943337 
   69200    234.26004   -307.06688    204420.41    -23218.02    1700.3232   -24918.344   -545.74817    556.38679    95.090029    14.558156    27.954514 
   69400    235.17454   -253.92648    204420.41   -23242.044    1706.9609   -24949.005   -382.46771    557.92861    95.088141    14.554318    27.947339 
   69600    246.09046    -267.0065    204420.41   -23132.264    1786.1916   -24918.456   -414.54327    561.42735    95.087514    14.552275    27.942237 
   69800    239.29027    -261.7311    204420.41   -23150.734     1736.834   -24887.568   -402.48353    567.38066    95.086067    14.554114    27.924897 
   70000    240.11534   -167.91122    204420.41   -23187.809    1742.8226   -24930.631   -51.628804    571.52193    95.085086    14.558865    27.931559 
   70200    246.82482   -399.62931    204420.41   -23106.521    1791.5218   -24898.043    -849.0129    575.81675    95.082878    14.561894    27.939461 
   70400    247.53448   -427.82559    204420.41   -23144.755    1796.6727   -24941.428   -960.60697    580.80351    95.082799    14.562834    27.942398 
   70600    246.02669   -265.65917    204420.41    -23183.83    1785.7288   -24969.559    -439.6852    586.71603    95.083176    14.562322    27.938653 
   70800    236.81367   -319.86628    204420.41   -23144.747    1718.8582   -24863.605    -602.4547    588.03685    95.082218    14.558527    27.963936 
   71000    238.94588   -210.03387    204420.41   -23205.626    1734.3343   -24939.961   -186.54523    587.24181    95.081105    14.554973    27.966188 
   71200    235.48925   -575.36167    204420.41   -23203.565    1709.2451    -24912.81    -1483.606    585.77378    95.080853    14.556716    27.965184 
   71400    239.49805   -50.992231    204420.41   -23232.139    1738.3421   -24970.481    341.36823    589.17823    95.081658    14.560436    27.954936 
   71600    243.39738   -406.83129    204420.41   -23157.255    1766.6445     -24923.9   -902.85017    593.44105    95.081119    14.561769    27.943755 
   71800    232.87922   -357.95511    204420.41   -23241.896    1690.3008   -24932.196   -742.96141    598.06612    95.078886    14.560119    27.956132 
   72000    239.36653   -235.28816    204420.41   -23250.171    1737.3875   -24987.559   -264.25044    598.08596    95.079653    14.561334    27.939312 
   72200    243.60004   -447.19454    204420.41   -23106.975    1768.1155    -24875.09   -1078.1395    597.29362    95.079772    14.562304    27.954672 
   72400    241.81945   -383.93747    204420.41   -23173.446    1755.1914   -24928.637   -846.88841    595.77242    95.080219    14.565268    27.955602 
   72600    243.60547   -266.13895    204420.41   -23201.279    1768.1549   -24969.434   -399.55393     589.2908    95.081723    14.569066    27.943682 
   72800    238.26708   -538.89646    204420.41   -23248.742    1729.4074   -24978.149   -1333.1593    587.79936    95.083236    14.569798    27.931615 
   73000    232.21049   -537.13241    204420.41   -23231.878     1685.447   -24917.325   -1361.0555    586.47127    95.084486    14.568321    27.914898 
   73200    242.08932    -358.6148    204420.41     -23165.1    1757.1503    -24922.25   -741.42734    584.75484    95.085281    14.566276    27.900611 
   73400    243.86965   -310.86699    204420.41   -23179.776    1770.0724   -24949.849   -577.27503     584.2455    95.085101    14.565446    27.909145 
   73600    238.83277   -373.09919    204420.41   -23231.553    1733.5133   -24965.066   -809.55853    586.63136    95.084384    14.564962    27.923631 
   73800    234.68877    -353.7216    204420.41   -23302.347    1703.4351   -25005.782   -745.66476    584.46561    95.084959    14.562631    27.916711 
   74000    237.65537   -220.28652    204420.41   -23277.116    1724.9674   -25002.083   -235.52911    583.02825    95.086528     14.55848     27.90369 
   74200     243.2065   -322.28149    204420.41   -23179.906     1765.259   -24945.165   -595.41681    586.10635    95.087849    14.556457    27.896338 
   74400    246.07799   -355.75767    204420.41   -23235.631    1786.1011   -25021.733   -786.39008    590.31904    95.089265    14.557301    27.886572 
   74600    243.71102   -467.98702    204420.41   -23259.785     1768.921   -25028.706   -1140.1356    590.83205     95.09011    14.558693    27.889898 
   74800    241.94155   -407.36628    204420.41   -23293.015    1756.0777   -25049.093   -880.07889    589.83058    95.090159    14.561751    27.880714 
   75000    235.88302   -278.06215    204420.41   -23297.646    1712.1032   -25009.749   -454.56386    590.21488    95.089324    14.562707    27.886121 
   75200    241.17377   -484.31358    204420.41   -23182.905     1750.505    -24933.41   -1197.6765    589.61565    95.089458    14.560695    27.923505 
   75400    238.85553   -398.14741    204420.41   -23294.026    1733.6785   -25027.705   -876.10018    590.93792     95.08872    14.558526    27.919273 
   75600    239.04424   -282.46224    204420.41   -23238.532    1735.0483    -24973.58   -495.17016    590.85537    95.087778    14.557944    27.934201 
   75800    248.11964   -318.79785    204420.41   -23155.412    1800.9199   -24956.332   -592.63396    592.74992    95.088212    14.563098    27.938792 
   76000    246.01145   -295.65663    204420.41   -23141.993    1785.6181   -24927.612   -525.57941    597.09928     95.08673    14.565041    27.937072 
   76200    238.19244   -185.42813    204420.41   -23248.058    1728.8656   -24976.923   -118.93408    599.69089    95.086275    14.562006    27.942684 
   76400    238.48174   -277.25232    204420.41   -23219.609    1730.9655   -24950.574   -437.99488    601.15769    95.084536    14.562182    27.954332 
   76600    241.98277    -233.1913    204420.41    -23153.99    1756.3769   -24910.367   -309.39045    598.40137    95.083186    14.560858    27.935615 
   76800    234.37041   -165.71851    204420.41   -23159.889    1701.1243   -24861.013   -76.130761    599.11746    95.082187    14.559902     27.95206 
   77000    241.67793    -385.2404    204420.41   -23146.952    1754.1642   -24901.116   -805.66698    601.57757    95.081541    14.558425    27.947939 
   77200    245.85692   -333.29619    204420.41   -23133.777    1784.4965   -24918.273   -651.23476     603.3578     95.07979    14.555521    27.952422 
   77400    236.88737   -341.46517    204420.41    -23155.09    1719.3931   -24874.484   -676.86863     605.0682    95.079649    14.552488    27.946845 
   77600    241.05446   -234.77564    204420.41    -23177.28     1749.639   -24926.919   -333.64276    606.98448    95.078668    14.549866    27.950768 
   77800    241.37198   -444.65717    204420.41   -23229.813    1751.9436   -24981.756   -1020.5386    607.16708    95.076452    14.548049    27.940582 
   78000     235.1609    -386.2811    204420.41   -23266.864    1706.8619   -24973.726   -849.90427    608.89714    95.075984    14.548401    27.944606 
   78200    237.22684   -223.12638    204420.41   -23260.712    1721.8571   -24982.569   -268.07456    609.61434    95.075745    14.546354     27.92931 
   78400    246.33096   -343.18747    204420.41    -23231.74    1787.9372   -25019.677   -711.83613    613.00723     95.07641    14.543406    27.933828 
   78600    239.91106   -172.86983    204420.41   -23252.545    1741.3398   -24993.885   -107.65281    613.95313    95.077509    14.542558    27.926686 
   78800     239.2069   -411.68331    204420.41   -23206.165    1736.2288   -24942.393   -931.26555    615.21708    95.077537    14.542589    27.917002 
   79000    235.78109   -228.24282    204420.41   -23231.872    1711.3634   -24943.236   -311.15857    616.33015    95.077352    14.540825    27.946597 
   79200    244.23415   -170.04353    204420.41   -23205.862     1772.718    -24978.58   -92.800429    617.07992    95.077286    14.539862    27.962712 
   79400    239.89678     -233.061    204420.41   -23222.762    1741.2362   -24963.998   -281.82301     620.9849    95.076764    14.540386    27.955399 
   79600    238.01876    -292.0475    204420.41   -23299.384     1727.605   -25026.989   -519.69443    622.57347    95.075609    14.542098    27.960361 
   79800    243.90408   -303.64735    204420.41   -23256.277    1770.3223   -25026.599   -542.12852    623.74365    95.076331    14.542645    27.963576 
   80000    235.56732   -163.67301    204420.41   -23244.112    1709.8118   -24953.923    -74.18862     625.5297    95.073656    14.545204    27.939313 
   80200    236.79426   -486.96528    204420.41   -23247.926    1718.7173   -24966.643   -1164.9932    628.66553    95.073161     14.54733    27.922868 
   80400    230.55719   -282.15496    204420.41   -23278.014    1673.4469   -24951.461   -495.62934    629.21858    95.074619     14.54701    27.940784 
   80600    238.19705   -314.71067    204420.41   -23260.023    1728.8991   -24988.922    -572.5286    628.59102    95.074647    14.547151    27.943323 
   80800    239.28557   -286.90498    204420.41   -23224.121    1736.7999   -24960.921   -514.78412    632.13963    95.077121    14.547946      27.9149 
   81000    239.89499   -481.27836    204420.41   -23261.809    1741.2232   -25003.032   -1138.2221    634.83461    95.077716    14.547927    27.904038 
   81200    239.43795   -501.86923    204420.41   -23226.182    1737.9059   -24964.087   -1224.7652    638.94556    95.077889    14.549587    27.885379 
   81400    241.78574   -387.57586    204420.41   -23197.417    1754.9468   -24952.364   -840.54408    639.63403     95.07774    14.549543    27.886473 
   81600    240.43701   -328.32342    204420.41   -23309.746    1745.1573   -25054.903   -643.25144    640.91941    95.078355     14.54872    27.887362 
   81800    228.22547   -479.89007    204420.41   -23312.712    1656.5226   -24969.235   -1127.6819     642.6849    95.077506    14.549268    27.895472 
   82000     245.8066   -346.59812    204420.41    -23237.48    1784.1313   -25021.611   -688.91253    646.04172    95.076662    14.549038    27.907891 
   82200    238.04558   -447.40057    204420.41   -23187.165    1727.7997   -24914.965   -1037.3855    650.24371    95.076674    14.547564    27.880461 
   82400     237.7175   -66.352131    204420.41   -23238.997    1725.4184   -24964.416    254.12633    650.90952     95.07659    14.546304      27.8659 
   82600    248.83406   -363.52568    204420.41   -23172.272    1806.1054   -24978.377   -787.39513    653.93271    95.076977    14.545963     27.85236 
   82800    238.01354   -660.60396    204420.41    -23256.59    1727.5671   -24984.157   -1783.3931    652.84041    95.077909    14.545434    27.827111 
   83000    247.13122   -372.05504    204420.41   -23167.123    1793.7457   -24960.869   -802.52837     648.9206    95.078502    14.545417     27.81103 
   83200    240.16762   -154.67636    204420.41   -23183.285     1743.202   -24926.487   -8.7434152    649.55059    95.078919    14.545006    27.799092 
   83400    238.25375   -213.26249    204420.41   -23197.027    1729.3107   -24926.337   -262.72763     650.4453    95.077191    14.546197    27.793013 
   83600    235.36822   -389.00629    204420.41   -23288.337    1708.3667   -24996.704   -863.27799    652.31279    95.078032    14.548309    27.813021 
   83800    233.62906   -240.68128    204420.41    -23222.29    1695.7434   -24918.034   -333.16421    654.37028     95.07939    14.548449    27.823906 
   84000    240.86199   -229.84734    204420.41   -23223.665    1748.2419   -24971.907    -297.1229    654.11432    95.079739    14.546152    27.830377 
   84200    239.19108   -420.82137    204420.41   -23181.649     1736.114   -24917.763   -978.04528    655.68941    95.078504    14.547657     27.82672 
   84400    241.13368   -362.42625    204420.41   -23254.417    1750.2139   -25004.631   -731.18503    663.24373    95.076914    14.551733    27.833915 
   84600    242.05708   -519.25467    204420.41    -23210.69    1756.9163   -24967.606    -1299.506    669.76369    95.078919    14.554243    27.853594 
   84800    235.99441    -275.7993    204420.41   -23213.143    1712.9117   -24926.054   -445.67495    675.70327     95.07849    14.558265    27.859742 
   85000    241.63233   -304.47195    204420.41   -23180.605    1753.8333   -24934.439   -516.61394    679.44681     95.07809    14.559933    27.845162 
   85200    246.49489   -554.51137    204420.41   -23173.301    1789.1271   -24962.428    -1400.203    688.28274    95.077833     14.55992    27.835975 
   85400    235.34519   -14.674213    204420.41   -23273.758    1708.1995   -24981.957    466.11095    689.00286    95.078155    14.558166    27.848314 
   85600     237.3809   -506.69122    204420.41   -23240.314    1722.9753   -24963.289    -1225.602    690.68497    95.077554    14.557161    27.846203 
   85800    238.42025   -218.96197    204420.41   -23237.182    1730.5191   -24967.702   -225.23584    688.35283    95.079239    14.556789    27.845553 
   86000    240.54268   -391.01378    204420.41    -23219.45    1745.9243   -24965.374    -840.7307    686.01917    95.080524    14.555063    27.841377 
   86200    241.59369   -409.72435    204420.41   -23192.042    1753.5528   -24945.595   -930.03353    681.26552    95.081091    14.553329     27.81233 
   86400    238.28695   -275.40181    204420.41   -23272.718    1729.5516    -25002.27   -454.11995    680.64286    95.081615    14.555125    27.816379 
   86600    239.44148   -337.37571    204420.41   -23205.769    1737.9315   -24943.701   -633.93053     684.2585    95.080549    14.553944    27.813874 
   86800     233.7178   -326.49765    204420.41   -23238.289    1696.3875   -24934.677   -627.98532    691.60276    95.079768    14.553879    27.802811 
   87000    237.90468   -154.59379    204420.41   -23194.081     1726.777   -24920.858   -14.014186    696.86085    95.080511     14.55081    27.816926 
   87200    242.54714   -443.83394    204420.41   -23163.957    1760.4732    -24924.43   -1056.0626    702.23028    95.080143     14.55002    27.808102 
   87400    237.79898   -164.24842    204420.41   -23289.118    1726.0098   -25015.128   -69.106517    702.21112    95.079563    14.551773    27.838703 
   87600     235.8379   -312.79681    204420.41   -23180.278    1711.7757   -24892.054   -557.30594    702.81006    95.079489    14.553103    27.840835 
   87800    237.56133   -265.75089    204420.41   -23212.983    1724.2849   -24937.268   -365.28649    702.84073    95.080495    14.557684     27.84385 
   88000    239.72468   -236.12148    204420.41   -23228.706    1739.9871   -24968.693   -333.43697     698.1301    95.081505    14.561275    27.860635 
   88200    235.78401   -297.82536    204420.41   -23252.884    1711.3846   -24964.269   -544.75648    695.99222    95.081761    14.563335     27.84184 
   88400    240.48386   -432.43272    204420.41   -23176.113    1745.4974    -24921.61   -945.97619     697.6602    95.082276    14.563298    27.833553 
   88600    237.14131   -286.92106    204420.41   -23236.761    1721.2363   -24957.997   -531.54656    700.12386    95.082114    14.564553    27.844103 
   88800    231.83103   -427.73918    204420.41   -23230.561    1682.6927   -24913.254   -940.94847    706.08963     95.08247     14.56554     27.86003 
   89000    239.02758   -369.36432    204420.41   -23212.905    1734.9273   -24947.832   -767.04359    710.81393    95.080359     14.56803    27.877685 
   89200    241.82917    -277.9849    204420.41   -23260.039     1755.262   -25015.301   -439.13215    714.29653    95.080646    14.570113    27.896506 
   89400     242.4906    -314.0493    204420.41   -23225.151    1760.0628   -24985.214   -620.35013    717.01907    95.080356    14.570439    27.905918 
   89600    231.32965   -59.281525    204420.41   -23350.842    1679.0537   -25029.895    294.70685    712.60542    95.080516    14.571436    27.908882 
   89800    242.27929    -685.4018    204420.41   -23199.236    1758.5291   -24957.765   -1869.9785    709.45027    95.080744    14.571704    27.925763 
   90000    241.27533   -273.42511    204420.41   -23184.901    1751.2421   -24936.143   -466.83955    708.12926    95.079686    14.572518    27.936019 
   90200    239.24852   -421.98004    204420.41   -23252.287    1736.5309   -24988.818   -955.65314    705.94876    95.079584     14.57539    27.932493 
   90400    240.70738   -223.87196    204420.41   -23238.788    1747.1198   -24985.908    -276.7801    706.42013    95.080335     14.57824    27.931204 
   90600    240.60617   -393.56084    204420.41   -23192.248    1746.3851   -24938.634   -841.39744    711.53881    95.079933     14.57889    27.927362 
   90800    242.12736   -322.73507    204420.41   -23198.932    1757.4264   -24956.358   -591.09456    710.86013    95.078777    14.580992    27.918505 
   91000    241.08011   -372.25634    204420.41   -23280.201    1749.8251   -25030.026   -756.75621     709.4511    95.079103    14.581603    27.903448 
   91200    238.31281   -240.42212    204420.41   -23330.613    1729.7393   -25060.352   -349.36875    709.30621    95.081005    14.582555    27.907844 
   91400    234.90627   -488.17344    204420.41   -23277.884    1705.0137   -24982.898    -1191.513    713.21203    95.080621    14.582714    27.901956 
   91600    242.39385   -410.59562    204420.41   -23154.925    1759.3606   -24914.286   -898.44034    716.40697    95.082854      14.5819    27.909234 
   91800     242.5455   -235.71364    204420.41   -23200.808    1760.4613   -24961.269   -284.42716    717.56431    95.084613    14.582925    27.893177 
   92000    246.10603   -390.59053    204420.41   -23154.453    1786.3046   -24940.757   -843.19913    720.00557    95.083029    14.585886    27.894544 
   92200    243.66804   -203.94297    204420.41   -23191.024     1768.609   -24959.633   -204.96032    721.39071    95.081588    14.589087    27.900423 
   92400    239.76489    -251.6404    204420.41   -23183.121    1740.2789   -24923.399   -313.83632    721.25263    95.081301     14.58897    27.889136 
   92600    244.66681   -273.91526    204420.41   -23160.823    1775.8584   -24936.682   -426.22565    728.71028    95.079119    14.589001     27.86049 
   92800    238.76452   -219.11095    204420.41   -23235.834    1733.0179   -24968.852   -199.38287     728.1271    95.077619    14.587041    27.877829 
   93000    233.70967   -294.81708    204420.41   -23247.665    1696.3284   -24943.994   -522.64787     729.2231    95.076971    14.586974    27.876582 
   93200     240.9235   -371.97374    204420.41   -23222.128    1748.6884   -24970.817   -752.16042    728.59867    95.076797    14.586622     27.87531 
   93400    236.20831   -265.05481    204420.41   -23308.239    1714.4643   -25022.703   -384.76522    728.64823    95.075795     14.58548    27.869963 
   93600    234.64795   -383.82533    204420.41   -23279.867    1703.1388   -24983.005   -811.66594    731.78361     95.07781    14.582409    27.861707 
   93800     233.7594    -262.0847    204420.41   -23291.389    1696.6894   -24988.078   -433.92774     736.0765    95.077757    14.579717    27.858283 
   94000    232.40688   -406.81218    204420.41   -23300.464    1686.8724   -24987.337     -906.966    738.99085    95.078658    14.577811    27.872146 
   94200    240.28233   -260.73364    204420.41     -23194.5    1744.0346   -24938.534   -378.47833    742.51953    95.078717    14.577814    27.860042 
   94400    238.94837    -311.7351    204420.41   -23260.864    1734.3524   -24995.216   -580.41083    748.00521     95.07886    14.579678    27.853894 
   94600    237.31942   -548.18825    204420.41   -23262.244     1722.529   -24984.773   -1373.4116    749.82225    95.079509    14.578437     27.83728 
   94800    242.56867   -282.64999    204420.41   -23239.253    1760.6295   -24999.883   -476.70123    750.47443    95.078969    14.579531    27.825145 
   95000    238.77441   -418.61891    204420.41   -23300.909    1733.0897   -25033.998   -954.60337    750.41023    95.080282    14.576458    27.808032 
   95200    236.26091   -231.10568    204420.41    -23280.18    1714.8461   -24995.026   -275.93781    753.29174    95.080941     14.57537    27.816121 
   95400    241.21727   -596.83347    204420.41    -23239.79    1750.8207   -24990.611   -1562.6829    752.89208    95.080388    14.577623    27.832119 
   95600    236.91122   -416.77268    204420.41   -23222.796    1719.5662   -24942.362   -908.39226     746.5981    95.079021    14.576625    27.846129 
   95800    242.89375   -172.60745    204420.41   -23256.923     1762.989   -25019.912   -83.116164    740.78196    95.078138    14.574937    27.825067 
   96000    238.85339   -341.61573    204420.41   -23223.497     1733.663    -24957.16   -653.21608    741.78095    95.077975    14.570772    27.826501 
   96200    241.35131    -122.5512    204420.41   -23150.643    1751.7936   -24902.437    112.19764    743.69065    95.079368    14.570839    27.836249 
   96400    241.86097   -393.37613    204420.41   -23222.771    1755.4928   -24978.264   -835.93873    746.37283    95.077943    14.570609    27.850377 
   96600    236.63034    -329.2405    204420.41    -23231.62    1717.5275   -24949.147    -605.3975     745.3604    95.077575    14.572793    27.860994 
   96800    246.06774   -405.22439    204420.41    -23217.52    1786.0267   -25003.547   -879.41553    745.42962    95.075994    14.572144    27.868856 
   97000    239.87606   -386.52761    204420.41   -23278.719    1741.0858   -25019.804    -811.0685      747.115    95.075721    14.570677    27.863519 
   97200    240.65592   -132.23894    204420.41   -23274.035    1746.7463   -25020.781    108.99691      749.495    95.074637    14.569932    27.856626 
   97400    243.25634   -315.22286    204420.41   -23272.871    1765.6208   -25038.492   -578.75486     751.8783    95.072551    14.569978    27.867303 
   97600    245.88253   -468.50146    204420.41   -23218.958    1784.6824   -25003.641   -1112.8935    757.77865    95.074935    14.571765    27.856257 
   97800    241.15436   -382.33179    204420.41   -23242.723     1750.364   -24993.087   -808.31215    762.31392    95.075826    14.571134    27.855595 
   98000    237.41119   -295.37444    204420.41    -23243.56    1723.1951   -24966.755   -545.30055    765.05516    95.077974     14.57425    27.863633 
   98200    240.65199   -401.64031    204420.41   -23238.855    1746.7177   -24985.573   -904.06421    770.71939    95.077341    14.573851    27.875088 
   98400    242.91885    -383.2663    204420.41   -23140.606    1763.1712   -24903.778   -829.15709    776.99042    95.076733    14.574177    27.873495 
   98600    245.47569    -184.2317    204420.41   -23186.911    1781.7294   -24968.641   -109.53267     781.1941    95.077239    14.574412    27.874816 
   98800    238.96496   -221.15065    204420.41   -23173.288    1734.4728   -24907.761   -259.04308    785.47284       95.077    14.573531    27.855507 
   99000    244.71976   -252.96172    204420.41    -23231.71    1776.2427   -25007.953   -381.79827    784.63799    95.077916    14.575252    27.852914 
   99200    244.02413   -380.07412    204420.41    -23176.15    1771.1936   -24947.344   -798.91744    784.22892     95.07884    14.574385     27.86586 
   99400    240.17787   -390.70262    204420.41   -23173.619    1743.2764   -24916.896   -823.21704    785.06996    95.080251    14.575051    27.858995 
   99600    242.85318   -395.22013    204420.41   -23188.875    1762.6946   -24951.569   -866.89517    785.62969    95.079131    14.573506    27.876135 
   99800    241.14622   -236.83471    204420.41   -23191.237     1750.305   -24941.542   -316.62227    784.09664    95.079123    14.574589    27.889113 
  100000    241.22725   -349.41653    204420.41    -23217.96    1750.8931   -24968.853   -703.90152    783.62548    95.077974    14.575907    27.881156 
  100200     235.5327   -211.12418    204420.41   -23287.676    1709.5605   -24997.236   -181.57539    784.07356    95.078338    14.576467    27.865878 
  100400    241.79429   -516.84455    204420.41   -23219.659    1755.0088   -24974.668   -1243.8881    787.42118    95.077165    14.575915    27.872534 
  100600    242.10014   -426.52492    204420.41   -23239.694    1757.2288   -24996.923   -959.56346    792.41549    95.075278    14.574162    27.872723 
  100800    242.45164    -266.9886    204420.41   -23269.626    1759.7801   -25029.406   -460.04778    792.52057    95.075163    14.574316    27.849567 
[...]
 5175800    223.94637   -381.14434    204420.41   -25552.362    1625.4638   -27177.825   -805.55728    6436.0307    95.104194    15.404728    28.051132 
 5176000    225.54147   -480.96012    204420.41   -25567.804    1637.0414   -27204.846   -1096.1823    6442.0433    95.103714    15.403717    28.054267 
 5176200    224.94851   -450.48932    204420.41   -25589.413    1632.7376    -27222.15   -1065.4037    6438.0329    95.103972    15.405275    28.043702 
 5176400    224.83496   -445.05456    204420.41    -25528.09    1631.9134   -27160.003   -1018.6204    6440.5276      95.1043    15.405704    28.047511 
 5176600    232.66913   -440.18818    204420.41   -25462.268     1688.776   -27151.044   -989.57482     6440.265     95.10449    15.406673     28.03747 
 5176800    227.07168   -411.76469    204420.41   -25514.097    1648.1481   -27162.245   -931.86828    6436.6078    95.104759    15.407078    28.032315 
 5177000    229.91938   -481.20704    204420.41   -25497.849    1668.8175   -27166.666   -1143.5936    6442.1639    95.105224    15.406689    28.035905 
 5177200    230.00753   -378.04987    204420.41   -25468.115    1669.4574   -27137.572    -795.9376    6436.6289    95.104713    15.407176    28.042844 
 5177400    228.77356   -560.28267    204420.41   -25434.029    1660.5008    -27094.53    -1423.277    6442.9164    95.104851    15.407262    28.046786 
 5177600    232.30261   -389.80424    204420.41   -25524.609    1686.1156   -27210.725   -856.33263    6436.9375    95.105281    15.408175    28.044528 
 5177800    226.48388   -450.77286    204420.41   -25555.732    1643.8817   -27199.614   -1039.8928     6439.243    95.105717     15.40812    28.043639 
 5178000    223.57175   -516.55619    204420.41   -25531.979    1622.7447   -27154.723   -1261.3815    6442.6315    95.105816    15.407879    28.046455 
 5178200    226.32861   -357.67692    204420.41   -25537.833    1642.7547   -27180.588   -710.01419    6434.8261    95.105545    15.408428    28.032706 
 5178400    229.03422   -634.04629    204420.41   -25543.563    1662.3928   -27205.955   -1685.0668     6442.512    95.105614     15.40897    28.032726 
 5178600    229.58926   -333.65272    204420.41   -25515.269    1666.4214   -27181.691   -634.29994    6433.6928    95.106166    15.409276    28.032988 
 5178800    224.06023   -534.45832    204420.41   -25520.585    1626.2902   -27146.875   -1317.9842    6442.8771    95.106503    15.409703    28.046538 
 5179000    221.90931   -485.33104    204420.41   -25555.699    1610.6782   -27166.378   -1162.0526    6438.4897    95.106469    15.410517    28.044432 
 5179200    228.60186   -500.24708    204420.41   -25555.854    1659.2546   -27215.109   -1222.3881    6438.4955    95.105767    15.411224    28.028313 
 5179400    229.27848   -466.52198    204420.41   -25486.053    1664.1657   -27150.219    -1071.471    6440.1383    95.106729    15.410946    28.038338 
 5179600    227.12049   -400.82524    204420.41   -25554.691    1648.5024   -27203.193   -843.81473    6436.8115    95.106639    15.411455    28.037967 
 5179800    222.13211   -520.18305    204420.41   -25544.731    1612.2954   -27157.027   -1284.9561    6442.0126    95.106447    15.411539    28.027973 
 5180000    219.81247     -382.559    204420.41   -25637.483    1595.4588   -27232.942   -783.51753    6435.7376    95.106748    15.413221    28.038198 
 5180200    223.83451   -510.47142    204420.41   -25608.222    1624.6519   -27232.874    -1256.915    6441.6399    95.105737    15.413785     28.03092 
 5180400    223.37678   -406.68041    204420.41   -25534.451    1621.3295   -27155.781   -866.19408    6438.4616    95.105054    15.414448    28.035204 
 5180600    227.07924   -451.98121    204420.41   -25536.463     1648.203   -27184.666   -1018.9749    6439.3587    95.105367    15.415256     28.03014 
 5180800    226.49948   -491.15876    204420.41   -25565.235     1643.995    -27209.23    -1191.828      6438.66    95.104823    15.413935    28.027966 
 5181000     224.3684   -463.15425    204420.41   -25609.886     1628.527   -27238.413   -1088.3107     6437.042     95.10551    15.413861    28.029989 
 5181200    221.84673   -486.45791    204420.41   -25584.417     1610.224   -27194.641   -1172.1351    6441.5305    95.105452     15.41368    28.016491 
 5181400    229.62223     -487.204    204420.41   -25491.534    1666.6607   -27158.195   -1168.7355    6436.3109    95.105442    15.414299    28.033396 
 5181600    218.76608   -516.76859    204420.41   -25610.393    1587.8638   -27198.257   -1272.7683    6441.4723    95.105121     15.41488    28.037595 
 5181800    230.23562   -334.43046    204420.41   -25495.175    1671.1129   -27166.288   -623.77185    6437.3109    95.104702    15.415208     28.03894 
 5182000    227.06713   -508.65764    204420.41   -25533.765    1648.1151    -27181.88   -1239.4206    6444.4253    95.104339    15.413997    28.041062 
 5182200    230.28945   -421.94258    204420.41   -25500.114    1671.5036   -27171.618   -938.24236    6437.6602    95.104575    15.414141    28.034455 
 5182400    222.03232   -518.04178    204420.41   -25577.907    1611.5711   -27189.478   -1280.0011    6438.6668    95.104375    15.414175    28.033958 
 5182600    225.90971   -501.64258    204420.41   -25537.048    1639.7143   -27176.762   -1181.5505    6439.1584    95.105147    15.413425    28.041516 
 5182800    227.79693   -455.23988    204420.41    -25518.34    1653.4122   -27171.752   -1059.9431     6440.083    95.104881    15.414246    28.034284 
 5183000    232.76153   -484.32131    204420.41   -25487.135    1689.4466   -27176.582   -1206.0901    6439.8623    95.105597    15.414593     28.03728 
 5183200    230.48654   -453.46127    204420.41   -25505.758    1672.9341   -27178.692   -1026.5993    6437.9727    95.105296    15.415129    28.041212 
 5183400    222.52658   -515.36227    204420.41    -25625.74    1615.1586   -27240.898   -1258.2588    6440.0431    95.104665    15.414989    28.045981 
 5183600    225.45707   -394.21744    204420.41   -25612.623    1636.4289   -27249.052   -883.26292    6436.8752    95.104244     15.41519    28.044839 
 5183800    227.04687     -595.093    204420.41   -25585.334     1647.968   -27233.302   -1533.8747    6441.4842    95.104428    15.414712    28.034283 
 5184000    227.00772   -412.86918    204420.41   -25513.461    1647.6839   -27161.145   -944.69213     6435.942     95.10466    15.414594    28.030207 
 5184200    230.96877   -456.32153    204420.41   -25526.061    1676.4343   -27202.495   -1057.1973    6440.5952    95.104758    15.414142    28.049161 
 5184400     227.9422   -319.75455    204420.41   -25507.356    1654.4666   -27161.823    -591.0255    6438.6872    95.105465    15.414338    28.042666 
 5184600    227.65231    -521.6653    204420.41   -25552.543    1652.3625   -27204.906   -1292.4771    6440.4061    95.104992    15.415294    28.037318 
 5184800    228.78939   -434.13596    204420.41   -25531.539    1660.6157   -27192.154    -966.3145    6436.2478    95.104787    15.415578     28.03782 
 5185000    223.36438   -471.40415    204420.41   -25529.068    1621.2395   -27150.308   -1136.7922     6440.094    95.103221    15.415957    28.050407 
 5185200    225.13648   -495.74213    204420.41    -25596.26    1634.1019   -27230.362   -1187.3232    6439.3661    95.103536    15.415933    28.053851 
 5185400    222.24412   -451.72654    204420.41   -25530.655    1613.1084   -27143.763   -1039.6955    6441.1896    95.103963    15.417189     28.03765 
 5185600    226.13264   -440.49788    204420.41   -25520.567    1641.3323   -27161.899   -1005.0245    6438.0292    95.103778    15.417671    28.039722 
 5185800    227.18821   -485.89757    204420.41   -25498.098     1648.994   -27147.092   -1168.2494    6437.7808    95.102941     15.41777    28.046055 
 5186000    231.20447   -551.88107    204420.41   -25514.897     1678.145   -27193.042    -1444.648    6441.8926    95.102198    15.418599    28.051833 
 5186200     229.9546   -401.74481    204420.41   -25501.723    1669.0731   -27170.796   -876.41204    6438.5524    95.101736    15.419825    28.049475 
 5186400    227.37549   -529.28776    204420.41   -25536.276    1650.3532   -27186.629   -1325.1028    6440.8534    95.101619     15.42128    28.044195 
 5186600    230.51156   -420.27889    204420.41   -25522.604    1673.1157    -27195.72   -953.63326    6438.0088    95.100804    15.422006    28.047636 
 5186800    228.79826   -426.67769    204420.41    -25532.88    1660.6801    -27193.56   -955.64138    6441.0256    95.100292    15.422584    28.049917 
 5187000    231.18307   -491.71686    204420.41   -25495.259    1677.9897   -27173.249    -1177.145    6439.9229    95.100391    15.423361    28.044669 
 5187200    225.33749   -448.37905    204420.41   -25553.729    1635.5609    -27189.29   -1025.7238    6440.0385    95.100105    15.424744    28.049098 
 5187400    223.76891   -389.74645    204420.41   -25577.604    1624.1757    -27201.78   -841.91903    6438.2099    95.099705    15.426327    28.044347 
 5187600    233.26866   -489.27739    204420.41   -25499.514    1693.1275   -27192.641   -1157.0867    6440.3124    95.099874    15.427273    28.048072 
 5187800    226.96884   -548.55222    204420.41   -25545.159    1647.4017   -27192.561   -1424.9769    6441.6024    95.100512    15.428415    28.044996 
 5188000    230.26929   -351.64044    204420.41   -25489.882    1671.3573   -27161.239   -704.69138    6437.0239    95.101073    15.428313    28.045318 
 5188200     225.8123   -524.03804    204420.41   -25517.553    1639.0072   -27156.561   -1312.4965    6439.1588     95.10092    15.429693    28.037424 
 5188400    228.34979     -394.109    204420.41   -25520.357     1657.425   -27177.782   -850.05227    6436.2468    95.100706    15.430941    28.045569 
 5188600    222.21027   -511.95527    204420.41   -25559.259    1612.8627   -27172.122   -1234.9998    6440.0465    95.100579    15.430698    28.045954 
 5188800    226.22182   -443.23268    204420.41   -25592.539    1641.9796   -27234.518   -1038.8844    6436.3028      95.1004    15.430114    28.042485 
 5189000    231.60293    -519.7866    204420.41   -25551.395    1681.0372   -27232.432   -1258.2511    6439.4912    95.100816     15.43066    28.043558 
 5189200    218.52687   -517.02311    204420.41   -25654.679    1586.1276   -27240.806   -1249.3421    6438.7081    95.101064    15.431254    28.039956 
 5189400    224.00257   -369.30247    204420.41   -25607.329    1625.8717     -27233.2   -726.91547    6437.0237    95.100786    15.431188    28.041608 
 5189600    226.55197   -534.70017    204420.41   -25531.766    1644.3759   -27176.142    -1366.152    6442.0368    95.100248    15.430166    28.038612 
 5189800    223.34866   -394.57549    204420.41   -25564.403    1621.1255   -27185.529   -822.39523    6436.9414    95.099288     15.42895    28.040154 
 5190000    228.48908   -561.83701    204420.41   -25547.292     1658.436   -27205.728   -1401.6576     6441.491    95.099873    15.428747    28.038914 
 5190200    225.98571   -398.27776    204420.41   -25572.256    1640.2658   -27212.521   -850.27099    6436.3625    95.099797    15.427725    28.046864 
 5190400    237.18269   -562.38283    204420.41   -25471.503    1721.5366    -27193.04   -1437.6169    6440.1373    95.099161     15.42682    28.039355 
 5190600    231.83599   -417.67759    204420.41   -25550.598    1682.7288   -27233.327   -929.61143    6438.3034    95.097979     15.42617    28.046805 
 5190800    227.08842   -537.92903    204420.41   -25521.555    1648.2696   -27169.824   -1333.3194    6440.0464    95.097698    15.426363     28.03755 
 5191000    231.78188   -492.68149    204420.41   -25549.834     1682.336    -27232.17   -1195.6782    6440.5454    95.098457    15.425877    28.033855 
 5191200    221.31991   -348.93265    204420.41   -25552.993    1606.4002   -27159.393   -661.57732    6437.7824    95.098383    15.425623    28.031796 
 5191400    226.48626   -461.52675    204420.41   -25526.712     1643.899   -27170.611   -1043.8551    6440.6916    95.098943    15.424855    28.034476 
 5191600    229.89311   -446.34062    204420.41   -25551.112    1668.6268   -27219.739   -1030.2172    6437.3551    95.098898    15.424647    28.036041 
 5191800    228.49795   -511.23525    204420.41   -25499.558    1658.5004   -27158.058   -1249.1742    6442.3332    95.098905    15.423933    28.036335 
 5192000    226.40709   -341.38165    204420.41   -25480.071    1643.3244   -27123.395   -655.16779    6435.6542    95.097898    15.424171    28.035169 
 5192200    227.39588   -465.73444    204420.41   -25540.384    1650.5013   -27190.885    -1099.007    6439.0866    95.097087     15.42387    28.030178 
 5192400    229.78355   -445.71133    204420.41   -25539.229    1667.8316   -27207.061   -1008.5024    6436.5706      95.0965    15.422046    28.039708 
 5192600    225.28827   -456.69334    204420.41   -25578.152    1635.2036   -27213.355   -1074.6419    6439.3926    95.095854    15.421217    28.041728 
 5192800    231.71417   -567.84509    204420.41   -25522.536    1681.8446    -27204.38   -1477.6967    6442.1813    95.096043    15.420563     28.04465 
 5193000    222.17968   -345.72035    204420.41   -25593.311    1612.6407   -27205.951   -660.89594    6434.3311    95.095846    15.420799    28.028622 
 5193200    226.73344   -508.03837    204420.41   -25516.251    1645.6931   -27161.944   -1262.1178    6442.6734    95.095943    15.419822    28.037412 
 5193400    228.58178   -340.37735    204420.41    -25514.57    1659.1088   -27173.678   -648.94711    6436.6631    95.096515    15.419254    28.029292 
 5193600    226.69958    -547.4095    204420.41   -25501.273    1645.4473    -27146.72   -1432.5986    6441.8009    95.096227    15.419239    28.034532 
 5193800    230.21076   -430.54031    204420.41   -25542.117    1670.9324    -27213.05   -947.09143    6440.1223    95.096332    15.418632    28.034714 
 5194000    217.73598    -370.3849    204420.41   -25639.351    1580.3871   -27219.738   -771.87529    6434.8806    95.096907    15.418533    28.028974 
 5194200    220.81148   -578.00667    204420.41   -25574.862    1602.7099   -27177.572   -1495.1499    6444.0551    95.097658    15.418116    28.039795 
 5194400     228.2878   -414.19877    204420.41   -25523.952    1656.9751   -27180.927   -932.26725    6437.1351    95.098484    15.418261     28.04154 
 5194600    229.22215    -504.5866    204420.41   -25489.801    1663.7568   -27153.557   -1224.6428    6442.5052    95.098886    15.418386    28.033489 
 5194800    234.37309   -375.48395    204420.41   -25524.558    1701.1438   -27225.702   -785.15384    6436.2003    95.099505     15.41799    28.035379 
 5195000    225.12322   -470.20704    204420.41   -25534.423    1634.0057   -27168.428   -1079.2546    6442.4017    95.099223    15.418358    28.034392 
 5195200    231.89237   -444.82784    204420.41    -25524.31     1683.138   -27207.448   -1038.9618    6440.6439    95.099081    15.418537     28.04292 
 5195400    226.69856   -364.73662    204420.41   -25536.754    1645.4399   -27182.193   -756.69022    6437.2887    95.099677    15.418639     28.04087 
 5195600    221.37387   -542.40391    204420.41   -25572.286    1606.7918   -27179.078   -1362.4109    6444.0559    95.099452    15.418736    28.044148 
 5195800    230.18963   -322.02171    204420.41   -25469.447    1670.7791   -27140.226   -584.51394    6432.5787    95.099775     15.41833    28.041147 
 5196000    223.60152   -574.59425    204420.41   -25540.033    1622.9607   -27162.993   -1455.7374    6443.2134    95.099414    15.418499    28.039072 
 5196200    231.40874   -387.56795    204420.41   -25545.272    1679.6277     -27224.9    -882.9776    6436.4525    95.099197    15.418247    28.038551 
 5196400    226.74467   -519.34446    204420.41   -25539.258    1645.7746   -27185.033   -1273.5338    6438.2242    95.099381    15.418306    28.044044 
 5196600    227.01908   -439.22303    204420.41   -25515.303    1647.7663   -27163.069   -987.22467     6441.044    95.099564    15.419082    28.046851 
 5196800    229.57726   -351.45433    204420.41   -25514.401    1666.3343   -27180.735   -690.64031    6437.3501    95.099809    15.419097    28.042403 
 5197000    229.11274   -448.17235    204420.41   -25480.524    1662.9627   -27143.487   -971.15761    6441.7566    95.098667     15.42027    28.029636 
 5197200    232.02139   -383.64797    204420.41   -25559.714    1684.0744   -27243.788   -815.71083    6437.7328     95.09812    15.419533    28.045291 
 5197400    227.42285   -389.85426    204420.41   -25554.275     1650.697   -27204.972   -833.10939    6439.6801    95.097784    15.419075    28.035732 
 5197600     223.2362   -482.02219    204420.41   -25587.495    1620.3092   -27207.805   -1154.0771    6441.6541    95.096899    15.419887    28.055766 
 5197800    222.00708   -472.76092    204420.41   -25612.135    1611.3879   -27223.523   -1116.9207    6436.9858    95.095842    15.420247    28.044207 
 5198000    230.89408   -503.51973    204420.41       -25482    1675.8921   -27157.892   -1221.1763    6440.0858    95.095874    15.419998     28.04642 
 5198200    229.31899   -381.52277    204420.41   -25502.173    1664.4597   -27166.633   -766.40146    6437.6584    95.095337    15.417729    28.047732 
 5198400     221.5197   -514.20345    204420.41   -25564.426    1607.8504   -27172.276   -1286.1867    6441.6308    95.094428    15.418119    28.050129 
 5198600    223.63412   -411.64351    204420.41   -25611.681    1623.1974   -27234.878    -913.8762    6438.8918    95.093343    15.418604    28.034664 
 5198800    231.36818    -514.8001    204420.41   -25537.147    1679.3333   -27216.481   -1261.6388    6438.8814    95.093037    15.418829    28.041251 
 5199000    225.72914    -534.3547    204420.41   -25477.109    1638.4036   -27115.513   -1330.9636    6440.2273    95.093084    15.418188    28.040117 
 5199200    224.95775      -408.45    204420.41   -25534.636    1632.8046   -27167.441   -917.60539    6438.8322    95.092511    15.417996    28.051342 
 5199400    227.97102   -539.52191    204420.41   -25518.517    1654.6758   -27173.193   -1320.7006      6441.07    95.091718    15.417588    28.046386 
 5199600    228.78124   -385.76511    204420.41   -25511.881    1660.5566   -27172.438   -785.78408    6439.5146    95.090923    15.416902     28.05137 
 5199800    228.26714   -456.67723    204420.41   -25534.652    1656.8251   -27191.477   -1036.5689    6440.6682     95.08942    15.417489    28.050209 
 5200000     230.3679   -384.45298    204420.41   -25486.329     1672.073   -27158.402   -776.45951    6438.8727    95.087832    15.417845    28.042995 
Loop time of 6268.43 on 160 procs for 5200000 steps with 8482 atoms

Performance: 716.734 ns/day, 0.033 hours/ns, 829.553 timesteps/s
98.0% CPU use with 160 MPI tasks x no OpenMP threads

MPI task timing breakdown:
Section |  min time  |  avg time  |  max time  |%varavg| %total
---------------------------------------------------------------
Pair    | 0.24595    | 1555.3     | 4990.8     |4631.2 | 24.81
Neigh   | 0.30742    | 88.184     | 317.84     |1091.2 |  1.41
Comm    | 8.2233     | 1591.8     | 5135.7     |4322.7 | 25.39
Output  | 81.422     | 81.489     | 83.352     |   1.7 |  1.30
Modify  | 336.29     | 2861.5     | 6094.2     |4688.0 | 45.65
Other   |            | 90.11      |            |       |  1.44

Nlocal:    53.0125 ave 164 max 0 min
Histogram: 60 3 57 0 0 0 0 5 5 30
Nghost:    542.087 ave 873 max 0 min
Histogram: 16 4 0 4 16 32 20 16 30 22
Neighs:    0 ave 0 max 0 min
Histogram: 160 0 0 0 0 0 0 0 0 0
FullNghs:  5282.19 ave 20624 max 0 min
Histogram: 91 29 0 0 0 0 0 7 11 22

Total # of neighbors = 845150
Ave neighs/atom = 99.6404
Neighbor list builds = 549675
Dangerous builds = 0
write_data 		${DIR}/data.${NAME}_run
write_data 		run_17/data.${NAME}_run
write_data 		run_17/data.ibeam_cooling_17_run
Total wall time: 1:44:42
