
### Dimensions ###


### IMPORT ATOMS ###
read_data ../Box_Setup/data.Ibeam_240K
  orthogonal box = (0 0 0) to (189.989 26.9999 39.8504)
  20 by 2 by 4 MPI processor grid
  reading atoms ...
  8482 atoms
  reading velocities ...
  8482 velocities
group water type 2
2436 atoms in group water
group graphite type 1
6046 atoms in group graphite


# Define potential
#
pair_style          sw
pair_coeff * * MLC_e.sw C mW

# Add velocity/set timestep
#

fix		1 graphite setforce 0.0 0.0 0.0
velocity 	graphite set 0.0 0.0 0.0
velocity            water create ${START_TEMP} ${SEED} rot yes dist gaussian
velocity            water create 240 ${SEED} rot yes dist gaussian
velocity            water create 240 16617 rot yes dist gaussian
timestep            5.0

# Define output
#
compute 1 water msd
compute 2 water temp


thermo	            100
thermo_style custom step c_2 press vol etotal ke pe c_1[4] density

# Neighbor lists
#
neigh_modify        delay 0 every 1 check yes


# Set fixes
#
fix                 2 water momentum 10 linear 1 1 1 rescale
fix                 3 all nve
fix                 4 water temp/csvr ${START_TEMP} ${START_TEMP} 500.0 928347
fix                 4 water temp/csvr 240 ${START_TEMP} 500.0 928347
fix                 4 water temp/csvr 240 240 500.0 928347

# Run 0.05 ns equilibration
#
dump                1 all custom 100 ${DIR}/eq.${NAME}.dump id type x y z vx vy vz
dump                1 all custom 100 run_18/eq.${NAME}.dump id type x y z vx vy vz
dump                1 all custom 100 run_18/eq.ibeam_cooling_18.dump id type x y z vx vy vz
run                 10000
Neighbor list info ...
  update every 1 steps, delay 0 steps, check yes
  max neighbors/atom: 2000, page size: 100000
  master list distance cutoff = 6.67472
  ghost atom cutoff = 6.67472
  binsize = 3.33736, bins = 57 9 12
  1 neighbor lists, perpetual/occasional/extra = 1 0 0
  (1) pair sw, perpetual
      attributes: full, newton on
      pair build: full/bin/atomonly
      stencil: full/bin/3d
      bin: standard
Per MPI rank memory allocation (min/avg/max) = 0.4608 | 3.725 | 4.735 Mbytes
Step c_2 Press Volume TotEng KinEng PotEng c_1[4] Density 
       0          240   -262.64038    204420.41   -23347.773    1741.9854   -25089.758            0   0.94632332 
     100    235.44568   -355.63749    204420.41   -23356.264    1708.9289   -25065.193   0.84243978   0.94632332 
     200    234.79955   -313.31014    204420.41   -23365.207    1704.2391   -25069.446    1.2235422   0.94632332 
     300    238.54361   -192.26428    204420.41   -23350.249    1731.4145   -25081.663     1.673955   0.94632332 
     400    240.60088   -181.40392    204420.41   -23351.622    1746.3468   -25097.969    2.1637831   0.94632332 
     500    241.83089   -356.36598    204420.41   -23319.789    1755.2745   -25075.063     2.650179   0.94632332 
     600    244.21591   -272.67681    204420.41   -23245.595    1772.5856    -25018.18    3.0823817   0.94632332 
     700    241.11072   -473.55838    204420.41   -23253.644    1750.0473   -25003.692    3.4241753   0.94632332 
     800    242.93759   -601.66238    204420.41   -23239.797    1763.3072   -25003.104    4.0132882   0.94632332 
     900    237.67251     -392.838    204420.41   -23257.825    1725.0918   -24982.917    4.6402517   0.94632332 
    1000    241.21791   -336.32762    204420.41   -23286.647    1750.8253   -25037.472    5.1027419   0.94632332 
    1100    241.29003   -467.40979    204420.41   -23271.467    1751.3488   -25022.816    5.6109453   0.94632332 
    1200    243.48668   -407.87318    204420.41   -23282.967    1767.2926    -25050.26    6.1201727   0.94632332 
    1300     248.0021   -394.46494    204420.41   -23249.542    1800.0668   -25049.608    6.6957884   0.94632332 
    1400     236.0944   -330.89789    204420.41   -23301.225    1713.6375   -25014.863    7.1853355   0.94632332 
    1500    238.99213   -359.77178    204420.41   -23321.107      1734.67   -25055.777    7.6545665   0.94632332 
    1600    243.66627   -360.32258    204420.41   -23304.239    1768.5962   -25072.835    8.1566024   0.94632332 
    1700    235.83065   -445.36981    204420.41   -23320.511    1711.7231   -25032.234    8.6370806   0.94632332 
    1800    243.76615    -168.0699    204420.41   -23269.543    1769.3212   -25038.864    8.9954865   0.94632332 
    1900    247.98975   -314.70759    204420.41   -23226.426    1799.9772   -25026.403    9.1702346   0.94632332 
    2000    247.12781   -224.03864    204420.41   -23195.143    1793.7209   -24988.864    9.6445219   0.94632332 
    2100    237.33921    -260.1136    204420.41   -23299.145    1722.6726   -25021.817    10.190321   0.94632332 
    2200    245.74048   -253.54587    204420.41   -23280.788    1783.6514   -25064.439    10.612577   0.94632332 
    2300    247.86475     -410.866    204420.41   -23246.144    1799.0699   -25045.214     11.24813   0.94632332 
    2400    247.01598   -312.55174    204420.41   -23235.989    1792.9093   -25028.898    11.515701   0.94632332 
    2500    241.24029   -368.75496    204420.41   -23268.927    1750.9878   -25019.915    12.158701   0.94632332 
    2600    238.94659   -382.50426    204420.41   -23281.561    1734.3394     -25015.9    12.264102   0.94632332 
    2700    230.78122   -388.87628    204420.41   -23266.512     1675.073   -24941.584     12.43666   0.94632332 
    2800    245.19275   -346.13872    204420.41   -23224.672    1779.6758   -25004.347    12.637413   0.94632332 
    2900    239.26723   -521.81073    204420.41   -23238.223    1736.6667    -24974.89    12.831931   0.94632332 
    3000    249.39977   -372.97901    204420.41   -23222.989    1810.2115     -25033.2    13.025813   0.94632332 
    3100    244.02445   -298.18706    204420.41   -23227.163     1771.196   -24998.359    13.139258   0.94632332 
    3200    234.30019   -357.32586    204420.41   -23286.516    1700.6146   -24987.131    13.237711   0.94632332 
    3300    229.64815   -293.47968    204420.41   -23357.602    1666.8488   -25024.451     13.42143   0.94632332 
    3400    236.45768    -146.8393    204420.41   -23302.388    1716.2743   -25018.662    13.757257   0.94632332 
    3500    237.82303   -155.86543    204420.41    -23301.72    1726.1843   -25027.905    13.916613   0.94632332 
    3600    240.10908   -387.39528    204420.41    -23306.51    1742.7772   -25049.287    14.200312   0.94632332 
    3700    242.46787   -393.26883    204420.41   -23273.801    1759.8979   -25033.699    14.178949   0.94632332 
    3800    242.08034   -446.50972    204420.41    -23268.29    1757.0851   -25025.375    14.307065   0.94632332 
    3900    239.01109   -294.09838    204420.41   -23265.368    1734.8076   -25000.176     14.57648   0.94632332 
    4000    238.04876   -331.74132    204420.41   -23311.495    1727.8228   -25039.317    14.984753   0.94632332 
    4100    238.63913   -354.56233    204420.41   -23299.355    1732.1078   -25031.463    15.245858   0.94632332 
    4200    242.79871   -400.87829    204420.41   -23281.351    1762.2992   -25043.651    15.664425   0.94632332 
    4300     241.6624   -245.97561    204420.41   -23347.564    1754.0516   -25101.616    16.161689   0.94632332 
    4400    241.03343   -167.34882    204420.41   -23327.361    1749.4863   -25076.848    16.542884   0.94632332 
    4500    242.32384   -205.74631    204420.41   -23363.728    1758.8525    -25122.58    16.955389   0.94632332 
    4600    234.66169   -212.17965    204420.41   -23414.516    1703.2385   -25117.755    17.163222   0.94632332 
    4700    235.71031   -328.58543    204420.41   -23342.439    1710.8497   -25053.288    17.694248   0.94632332 
    4800    245.97821   -534.10138    204420.41   -23297.651    1785.3769   -25083.028    18.363916   0.94632332 
    4900    239.20065   -256.72159    204420.41   -23253.737    1736.1835   -24989.921    18.932516   0.94632332 
    5000    236.82308   -201.42213    204420.41   -23309.889    1718.9265   -25028.816    19.275494   0.94632332 
    5100    240.15817   -272.54437    204420.41   -23267.724    1743.1334   -25010.858     19.69907   0.94632332 
    5200    240.87166    -323.7825    204420.41   -23312.645    1748.3121   -25060.957    20.283751   0.94632332 
    5300    229.58219   -447.99996    204420.41   -23368.089    1666.3701   -25034.459    20.808802   0.94632332 
    5400    236.15867   -386.24285    204420.41   -23334.175     1714.104   -25048.279    21.568165   0.94632332 
    5500    229.86215   -256.50445    204420.41   -23308.518    1668.4021    -24976.92     22.18321   0.94632332 
    5600    237.51436   -197.19355    204420.41   -23327.571     1723.944   -25051.515    22.651448   0.94632332 
    5700    236.14135   -307.15249    204420.41    -23311.19    1713.9782   -25025.169    23.050144   0.94632332 
    5800    244.08685   -456.24868    204420.41   -23297.963    1771.6488   -25069.612    23.548823   0.94632332 
    5900    242.21197   -276.04256    204420.41   -23321.843    1758.0405   -25079.883    23.838752   0.94632332 
    6000    238.52245   -303.01008    204420.41   -23332.433     1731.261   -25063.694     24.13328   0.94632332 
    6100    237.55497   -318.46749    204420.41   -23337.679    1724.2387   -25061.918     24.35849   0.94632332 
    6200    236.76481   -250.42196    204420.41   -23345.829    1718.5035   -25064.332    24.487566   0.94632332 
    6300    239.06217   -390.50785    204420.41    -23280.63    1735.1784   -25015.809    24.733843   0.94632332 
    6400    236.69706   -411.64438    204420.41   -23323.569    1718.0117   -25041.581    24.976293   0.94632332 
    6500    232.06871     -280.531    204420.41   -23326.136     1684.418   -25010.554    25.331671   0.94632332 
    6600    244.80022   -341.46252    204420.41    -23326.15    1776.8267   -25102.976    25.453223   0.94632332 
    6700    242.14566   -300.56451    204420.41     -23358.9    1757.5592   -25116.459    25.911708   0.94632332 
    6800    241.08676   -423.44814    204420.41    -23339.82    1749.8734   -25089.693    26.273362   0.94632332 
    6900    239.68964   -210.97892    204420.41   -23303.517    1739.7327    -25043.25    26.413474   0.94632332 
    7000    241.01042   -319.96242    204420.41   -23301.194    1749.3193   -25050.513    26.718086   0.94632332 
    7100    236.73171   -355.44284    204420.41   -23314.691    1718.2632   -25032.955    27.334338   0.94632332 
    7200    233.84404    -403.9041    204420.41   -23386.269    1697.3037   -25083.573    27.592598   0.94632332 
    7300    234.91804   -270.11123    204420.41   -23421.222    1705.0992   -25126.321    27.893379   0.94632332 
    7400      233.702   -282.83536    204420.41   -23377.594    1696.2728   -25073.867    28.169221   0.94632332 
    7500    244.79908    -280.8154    204420.41   -23351.272    1776.8184   -25128.091    28.388995   0.94632332 
    7600     247.3848   -214.02942    204420.41   -23317.736    1795.5863   -25113.323     28.71393   0.94632332 
    7700    240.05816   -321.37218    204420.41   -23340.228    1742.4075   -25082.636    29.289607   0.94632332 
    7800    240.43513   -206.26669    204420.41   -23410.194    1745.1437   -25155.338    29.614416   0.94632332 
    7900    238.38753   -398.31882    204420.41   -23385.134    1730.2816   -25115.416    30.053382   0.94632332 
    8000    241.53276   -292.95782    204420.41   -23315.504    1753.1106   -25068.615    30.531287   0.94632332 
    8100    244.72942   -582.38629    204420.41   -23310.446    1776.3128   -25086.759    30.873375   0.94632332 
    8200     237.2834   -442.56069    204420.41   -23329.105    1722.2676   -25051.372    30.857463   0.94632332 
    8300    246.52627   -510.97094    204420.41    -23273.92    1789.3548   -25063.275    31.597635   0.94632332 
    8400    243.68813   -426.76758    204420.41   -23264.543    1768.7548   -25033.298    32.079841   0.94632332 
    8500    240.67549   -325.29942    204420.41   -23299.889    1746.8883   -25046.777    32.561947   0.94632332 
    8600    240.04286   -246.29333    204420.41   -23308.142    1742.2965   -25050.439    32.853296   0.94632332 
    8700    235.72136   -316.89906    204420.41   -23314.362    1710.9299   -25025.292     32.86261   0.94632332 
    8800    235.35106   -151.64014    204420.41   -23309.663    1708.2421   -25017.905    33.489818   0.94632332 
    8900    232.85683   -398.50784    204420.41   -23352.672    1690.1383    -25042.81    33.594122   0.94632332 
    9000    244.84947   -270.72189    204420.41    -23317.55    1777.1841   -25094.734    33.510672   0.94632332 
    9100    238.51466   -444.58636    204420.41   -23335.407    1731.2044   -25066.612    33.755848   0.94632332 
    9200    241.12062   -437.67565    204420.41   -23283.345    1750.1192   -25033.464    34.284197   0.94632332 
    9300    241.10666   -540.45875    204420.41   -23364.432    1750.0178    -25114.45    34.851009   0.94632332 
    9400    232.35438   -285.96254    204420.41   -23339.686    1686.4914   -25026.178    35.234812   0.94632332 
    9500    241.21998   -303.05437    204420.41   -23372.711    1750.8403   -25123.551    35.567389   0.94632332 
    9600    239.04975   -275.51754    204420.41   -23367.085    1735.0882   -25102.174    35.806297   0.94632332 
    9700    237.82315   -306.33583    204420.41   -23321.333    1726.1853   -25047.519    36.318632   0.94632332 
    9800    245.52279   -416.47289    204420.41    -23269.07    1782.0713   -25051.141    36.614691   0.94632332 
    9900    244.67256   -315.48777    204420.41   -23301.737    1775.9001   -25077.637    36.698894   0.94632332 
   10000    239.07442   -302.70655    204420.41   -23317.113    1735.2673   -25052.381    36.549276   0.94632332 
Loop time of 13.5947 on 160 procs for 10000 steps with 8482 atoms

Performance: 317.772 ns/day, 0.076 hours/ns, 735.583 timesteps/s
97.8% CPU use with 160 MPI tasks x no OpenMP threads

MPI task timing breakdown:
Section |  min time  |  avg time  |  max time  |%varavg| %total
---------------------------------------------------------------
Pair    | 0.00044918 | 3.2917     | 10.911     | 218.0 | 24.21
Neigh   | 0.0003531  | 0.093458   | 0.33601    |  35.3 |  0.69
Comm    | 0.010902   | 3.2278     | 11.181     | 209.6 | 23.74
Output  | 0.18152    | 0.18169    | 0.18841    |   0.1 |  1.34
Modify  | 0.65353    | 6.6486     | 13.257     | 218.0 | 48.91
Other   |            | 0.1514     |            |       |  1.11

Nlocal:    53.0125 ave 164 max 0 min
Histogram: 62 5 51 2 0 0 0 5 5 30
Nghost:    542.594 ave 904 max 0 min
Histogram: 20 0 4 0 9 48 21 6 36 16
Neighs:    0 ave 0 max 0 min
Histogram: 160 0 0 0 0 0 0 0 0 0
FullNghs:  5311.61 ave 20620 max 0 min
Histogram: 87 33 0 0 0 0 0 7 12 21

Total # of neighbors = 849858
Ave neighs/atom = 100.195
Neighbor list builds = 578
Dangerous builds = 0
write_data 	    ${DIR}/data.${NAME}_eq
write_data 	    run_18/data.${NAME}_eq
write_data 	    run_18/data.ibeam_cooling_18_eq

undump              1
unfix               4



################################################
#######         Run Simulation         #########
################################################

reset_timestep      0
timestep	    10.0
log                 ${DIR}/log.run_${NAME}
log                 run_18/log.run_${NAME}
log                 run_18/log.run_ibeam_cooling_18
