
# Set production fixes - Nose/Hoover
#
fix                 4 water temp/csvr ${START_TEMP} ${END_TEMP} 500.0 928347
fix                 4 water temp/csvr 240 ${END_TEMP} 500.0 928347
fix                 4 water temp/csvr 240 227 500.0 928347


## divide "droplet" into core and surface
#region		core_reg cylinder z 135 135 44.6 20 INF units box
#region		surface_reg cylinder z 135 135 44.6 20 INF units box side out
#group		core dynamic all region core_reg
#group		surface dynamic all region surface_reg

## compute pressure core
#compute        peratom_core core stress/atom NULL
#compute        p_core core reduce sum c_peratom_core[1] c_peratom_core[2] c_peratom_core[3]
#variable       press_core equal -(c_p_core[1]+c_p_core[2]+c_p_core[3])/(3*1249982.5)


## compute pressure surface
#compute        peratom_surf surface stress/atom NULL
#compute        p_surf surface reduce sum c_peratom_surf[1] c_peratom_surf[2] #c_peratom_surf[3]
#variable       press_surf equal -(c_p_surf[1]+c_p_surf[2]+c_p_surf[3])/(3*42395)

## compute total pressure of drop
compute        peratom water stress/atom NULL
compute        p water reduce sum c_peratom[1] c_peratom[2] c_peratom[3]
variable       press equal -(c_p[1]+c_p[2]+c_p[3])/(3*58301)


# compute order parameter
compute        3 all orientorder/atom nnn NULL cutoff 3.5

# compute center of mass of bridge
compute 	4 water com

# Run simulation
thermo_style        custom step c_2 press vol etotal ke pe v_press c_1[4] c_4[*]
thermo              200
dump		     1 water custom 400 ${DIR}/prod.${NAME}.dump id type x y z vx vy vz c_3[*] c_peratom[*]
dump		     1 water custom 400 run_18/prod.${NAME}.dump id type x y z vx vy vz c_3[*] c_peratom[*]
dump		     1 water custom 400 run_18/prod.ibeam_cooling_18.dump id type x y z vx vy vz c_3[*] c_peratom[*]
run                 ${STEPS}
run                 5200000
Neighbor list info ...
  update every 1 steps, delay 0 steps, check yes
  max neighbors/atom: 2000, page size: 100000
  master list distance cutoff = 6.67472
  ghost atom cutoff = 6.67472
  binsize = 3.33736, bins = 57 9 12
  2 neighbor lists, perpetual/occasional/extra = 1 1 0
  (1) pair sw, perpetual
      attributes: full, newton on
      pair build: full/bin/atomonly
      stencil: full/bin/3d
      bin: standard
  (2) compute orientorder/atom, occasional, copy from (1)
      attributes: full, newton on
      pair build: copy
      stencil: none
      bin: none
Per MPI rank memory allocation (min/avg/max) = 0.8516 | 6.031 | 7.259 Mbytes
Step c_2 Press Volume TotEng KinEng PotEng v_press c_1[4] c_4[1] c_4[2] c_4[3] 
       0    239.07442   -302.70655    204420.41   -23317.113    1735.2673   -25052.381   -543.96853    36.549276    95.098266    14.528041    27.947241 
     200    238.02798   -371.34206    204420.41   -23344.535    1727.6719   -25072.206   -810.88521    37.985463    95.097376    14.528921    27.927124 
     400    238.29307   -325.85432    204420.41   -23290.567     1729.596   -25020.163   -628.79401    40.301483    95.096373     14.52829    27.941576 
     600    242.97219   -213.82844    204420.41   -23185.113    1763.5584   -24948.672   -237.46708    41.932569    95.095794    14.530432    27.941044 
     800    249.86361   -186.78852    204420.41   -23186.847    1813.5782   -25000.425   -122.35264    43.406035    95.097148    14.532297    27.922966 
    1000    240.03904   -426.31498    204420.41    -23262.42    1742.2687   -25004.689   -982.24179    44.836753    95.097212    14.531809    27.933101 
    1200    241.22329   -259.95023    204420.41   -23237.987    1750.8643   -24988.851   -363.96328    46.613968    95.097474    14.532266    27.916877 
    1400    243.42709   -371.71366    204420.41   -23230.324    1766.8602   -24997.184   -833.87448    48.325609    95.096922    14.531854    27.918757 
    1600    235.90365   -340.73238    204420.41   -23230.808    1712.2529   -24943.061   -651.95408     49.57777    95.095701    14.534417    27.911871 
    1800    237.51796   -305.99264    204420.41   -23187.285    1723.9701   -24911.255   -519.68389    51.166055    95.095894    14.538015    27.914168 
    2000    248.65657   -47.076749    204420.41   -23129.503    1804.8171   -24934.321    344.75087    53.099695    95.095917    14.537283    27.937574 
    2200     242.2235   -472.87492    204420.41   -23233.817    1758.1242   -24991.941   -1127.4274    54.453629    95.096043    14.536486    27.946561 
    2400    241.35646   -362.35248    204420.41   -23216.858    1751.8309   -24968.689   -762.79184    54.966459    95.096438     14.53468    27.948224 
    2600     237.2203   -318.54422    204420.41   -23264.941    1721.8096    -24986.75    -617.9734    56.181269    95.098661    14.532292    27.943221 
    2800    244.66852   -365.99377    204420.41   -23188.017    1775.8708   -24963.887   -735.54004    57.319083    95.099444    14.531819     27.93322 
    3000    239.61238   -266.02993    204420.41   -23175.405    1739.1719   -24914.577   -397.72341    59.728754    95.098706    14.533578    27.914375 
    3200    244.48071   -401.53808    204420.41   -23268.799    1774.5076   -25043.306   -834.41849    62.434658    95.099357    14.534476    27.899458 
    3400    236.57531   -289.04314    204420.41   -23278.753     1717.128   -24995.881   -479.20246    63.962898    95.099914     14.53746    27.910425 
    3600    239.44313   -390.27026    204420.41   -23252.325    1737.9435   -24990.269   -849.29845    66.005317    95.098781    14.537788    27.926542 
    3800    238.60023   -532.70964    204420.41   -23208.543    1731.8255   -24940.369   -1367.9431    67.886121    95.098589    14.537345    27.933948 
    4000    244.19799   -466.47608    204420.41   -23267.576    1772.4556   -25040.032   -1103.3885    68.500017    95.099119    14.535609    27.904793 
    4200    242.56806   -212.00593    204420.41   -23211.886    1760.6251   -24972.511   -251.44989    70.049776    95.099063    14.537661    27.888256 
    4400    237.90683   -528.50143    204420.41   -23242.055    1726.7926   -24968.847   -1326.7485    71.656284    95.099474    14.536905    27.893969 
    4600    237.61449   -409.84947    204420.41   -23307.625    1724.6707   -25032.295   -888.36054    73.518592    95.098321    14.537585    27.900071 
    4800    235.84409   -254.93869    204420.41   -23188.395    1711.8207   -24900.215   -396.78458    75.757944    95.096341    14.536104    27.909934 
    5000    241.32792   -329.57047    204420.41    -23211.52    1751.6238   -24963.144   -650.34952    77.975369    95.095817    14.534465    27.913274 
    5200    239.22358   -394.19151    204420.41    -23170.79    1736.3499   -24907.139   -903.08849    79.071099    95.094403    14.536199     27.91113 
    5400     243.6301   -243.67728    204420.41   -23181.445    1768.3336   -24949.778   -329.46025    80.794401    95.093231    14.534004    27.915872 
    5600    239.24631   -254.81002    204420.41   -23244.139    1736.5149   -24980.654   -365.61489    81.723652    95.093054    14.532256    27.897735 
    5800    236.56926   -575.49357    204420.41   -23197.858    1717.0841   -24914.943   -1488.4643    84.022731     95.09229    14.531935    27.903114 
    6000    240.36319   -403.13195    204420.41   -23231.809    1744.6215    -24976.43   -878.89924    86.943979    95.095043    14.532399    27.900997 
    6200    238.33717   -470.98497    204420.41   -23267.148    1729.9162   -24997.064   -1088.3336    87.697859    95.096422    14.535156    27.897888 
    6400      233.567    -315.9518    204420.41   -23233.609    1695.2929   -24928.902   -581.91599    88.737982    95.096853    14.536543    27.881062 
    6600    244.91014   -359.59684    204420.41   -23248.291    1777.6245   -25025.916   -714.24885    91.311539    95.096415    14.536658    27.886388 
    6800     237.2349   -364.31171    204420.41   -23274.908    1721.9156   -24996.823   -741.93508    91.591183    95.096171    14.536895    27.865027 
    7000    240.98558   -375.99643    204420.41   -23235.369     1749.139   -24984.508   -781.78663     94.43855     95.09526    14.535457    27.842959 
    7200    233.60691    -151.7458    204420.41   -23325.401    1695.5826   -25020.983   -51.614169    95.189787    95.096012    14.534996    27.817612 
    7400    242.46325   -474.72347    204420.41   -23262.245    1759.8643   -25022.109   -1134.4438    96.558021    95.097626    14.534196    27.821707 
    7600    242.65101   -379.77291    204420.41   -23165.276    1761.2271   -24926.503   -850.78438    98.053647    95.097889    14.535407    27.834049 
    7800    240.81643   -214.76589    204420.41   -23285.696    1747.9113   -25033.608   -271.73508    98.267536    95.097822    14.533952    27.835905 
    8000     249.2766   -584.74753    204420.41   -23137.989    1809.3175   -24947.306   -1530.0091    99.255218    95.095734    14.535477    27.836438 
    8200    237.34608   -375.39391    204420.41   -23181.604    1722.7225   -24904.327   -779.10155    100.07106    95.097577     14.53636     27.82984 
    8400    239.71406   -401.65752    204420.41   -23112.568      1739.91   -24852.478   -896.26141    102.09759    95.097686    14.537551    27.830307 
    8600     244.1406   -376.26596    204420.41   -23170.235     1772.039   -24942.274   -783.04442    103.75445    95.097449    14.541674    27.822409 
    8800     230.1982   -343.72613    204420.41   -23225.393    1670.8413   -24896.235   -723.75659    105.55786    95.096612    14.541003      27.8128 
    9000    241.34676   -336.09294    204420.41   -23225.044    1751.7605   -24976.805   -657.03304    107.49759    95.098068    14.542614    27.808939 
    9200    240.99658   -278.99472    204420.41   -23176.155    1749.2188   -24925.374   -461.83496    108.37046    95.098424    14.541414    27.818602 
    9400    230.18411   -373.35673    204420.41   -23205.823     1670.739   -24876.562   -797.78658    109.31176    95.099025    14.539278    27.831124 
    9600    239.24048    -342.9961    204420.41    -23275.43    1736.4726   -25011.902   -659.74891    111.06611    95.100337    14.534201     27.81731 
    9800    241.09587   -411.22047    204420.41    -23179.94    1749.9395   -24929.879   -901.46719    113.04897    95.100134    14.534438    27.818347 
   10000    233.98041   -127.32609    204420.41   -23209.827    1698.2936   -24908.121    71.965721    115.24924    95.101488    14.538309    27.793853 
   10200    242.87535   -320.97006    204420.41   -23153.833    1762.8554   -24916.688    -573.4189    116.51912     95.10142    14.538373    27.783129 
   10400    244.30625   -365.03807    204420.41   -23125.367    1773.2413   -24898.609   -746.13421    117.90447    95.101213    14.540467    27.776939 
   10600    241.80176   -185.78126    204420.41    -23180.25    1755.0631   -24935.313   -113.26008    118.09708    95.102905     14.54221    27.751165 
   10800    237.33001   -355.51041    204420.41   -23267.396    1722.6059   -24990.002   -707.82273    119.38356    95.104561    14.542783     27.73518 
   11000    240.40636   -385.75793    204420.41    -23308.58    1744.9349   -25053.515   -835.34758    120.41622    95.104075    14.540893    27.718671 
   11200    236.21245   -384.74771    204420.41   -23305.879    1714.4943   -25020.373   -806.71658    121.56612    95.103276    14.542329    27.698589 
   11400    243.41451   -300.37933    204420.41    -23268.92    1766.7688   -25035.689   -480.94622    121.60686    95.102249     14.54278    27.701911 
   11600    245.26424   -391.88841    204420.41   -23214.372    1780.1947   -24994.566   -802.60426    123.56928    95.102067    14.541688    27.696429 
   11800    240.59116   -443.81767    204420.41   -23227.278    1746.2762   -24973.554    -1053.808    125.33427    95.102115    14.543232    27.686652 
   12000    237.98671   -291.92663    204420.41   -23211.339    1727.3724   -24938.711   -456.97839    125.31059    95.100683    14.546395    27.682638 
   12200    240.83484   -469.04253    204420.41   -23214.504    1748.0449   -24962.549   -1063.1477    126.24337    95.099319    14.548789    27.683798 
   12400    239.13014   -329.89949    204420.41   -23260.953    1735.6717   -24996.624   -637.26887    128.55119     95.09929    14.547791    27.683946 
   12600    238.70141   -253.34601    204420.41   -23156.265    1732.5599   -24888.824   -350.32524    130.18239     95.09872    14.547234    27.692405 
   12800    243.71774   -417.36125    204420.41   -23172.006    1768.9698   -24940.976   -941.29773    132.21658    95.100368    14.545682    27.707839 
   13000    240.77065   -358.16005    204420.41   -23241.727     1747.579   -24989.306    -753.2806    132.68488    95.099952    14.545474    27.731081 
   13200    242.02652   -276.76863    204420.41   -23314.921    1756.6944   -25071.615    -436.3146    132.98201    95.099294    14.544801    27.748249 
   13400    239.67003   -366.80998    204420.41   -23357.737    1739.5904   -25097.327    -727.7965    134.62181     95.09769    14.547068    27.749469 
   13600    237.39522    -225.5901    204420.41   -23296.026    1723.0792   -25019.105   -273.82506    135.46856    95.097712    14.543882    27.760003 
   13800    239.76363   -447.01822    204420.41   -23230.613    1740.2698   -24970.883    -1023.116    137.22861    95.096459    14.545125    27.770368 
   14000    247.95274   -278.04887    204420.41    -23128.05    1799.7085   -24927.758   -464.27905    140.37815    95.096361    14.546763     27.76788 
   14200    239.16532   -339.60977    204420.41   -23192.188     1735.927   -24928.115   -623.35415    142.62295    95.096438    14.546828    27.780006 
   14400    233.95344   -364.72063    204420.41   -23246.318    1698.0978   -24944.416   -747.81311    142.66291    95.094937    14.547507    27.767438 
   14600    242.69017   -231.66369    204420.41   -23250.494    1761.5114   -25012.006   -250.50351    142.39569    95.093107    14.547446    27.785712 
   14800    240.76004     -544.644    204420.41   -23196.043     1747.502   -24943.545   -1372.6888    142.37941    95.094593    14.547852      27.7885 
   15000    241.61756   -409.26245    204420.41   -23234.192    1753.7261   -24987.918   -902.14808    143.06178    95.095943    14.548833    27.768865 
   15200    237.69033   -483.46464    204420.41   -23198.826    1725.2212   -24924.047   -1158.3091    144.19339    95.096869    14.549445    27.755444 
   15400    235.83551   -36.719492    204420.41   -23263.021    1711.7584    -24974.78    436.41967    146.03755      95.0992    14.552254     27.74704 
   15600    249.38456   -376.59927    204420.41   -23154.652    1810.1011   -24964.754   -841.76789    148.03974    95.098555    14.553567     27.75925 
   15800    239.66562   -402.92586    204420.41   -23168.631    1739.5584    -24908.19   -874.49393    150.71031    95.096373    14.554972    27.756963 
   16000    238.79009    -352.6758    204420.41   -23210.974    1733.2035   -24944.178   -732.17182    151.94526    95.095771    14.553529    27.773373 
   16200    243.90103   -258.29134    204420.41   -23172.625    1770.3001   -24942.925   -374.23671    152.63858    95.094211       14.551    27.781744 
   16400    237.28984   -465.52799    204420.41   -23252.023    1722.3143   -24974.337   -1066.5212    154.29895    95.096036      14.5491    27.780003 
   16600    244.19573   -249.37425    204420.41   -23166.741    1772.4391    -24939.18   -327.07573    156.03132    95.095275    14.549179    27.776372 
   16800    237.21699   -242.39847    204420.41   -23174.969    1721.7856   -24896.755   -295.65795    157.57418    95.096346    14.552706    27.775887 
   17000    238.66632   -423.69939    204420.41   -23257.832    1732.3052   -24990.137   -943.63468    159.69331    95.094246    14.554259    27.773611 
   17200    237.68932    -301.7057    204420.41   -23234.443    1725.2138   -24959.657   -484.94771    160.71564    95.093435    14.549367    27.770653 
   17400    236.32582   -313.77191    204420.41    -23296.56    1715.3172   -25011.877   -572.39605    162.67888    95.091892    14.547971    27.767796 
   17600     241.6967   -327.46569    204420.41   -23187.003    1754.3005   -24941.303   -597.87273    165.32265     95.09328    14.545271    27.767901 
   17800    240.87797   -183.45737    204420.41   -23183.714    1748.3579   -24932.071   -94.347064    165.55591    95.093445     14.54562     27.76873 
   18000    248.02835   -159.47862    204420.41   -23133.238    1800.2573   -24933.495     3.344619    167.43622    95.093644    14.545038    27.765679 
   18200    239.39049    -328.8946    204420.41   -23180.994    1737.5614   -24918.555   -663.97538    171.30703     95.09253    14.546223    27.782685 
   18400    241.73565   -342.70629    204420.41   -23175.767    1754.5832   -24930.351   -632.84202    172.00801    95.094084    14.545983    27.797922 
   18600    239.48402   -388.72547    204420.41   -23198.866    1738.2402   -24937.106   -812.27116    174.40288    95.092029    14.548376      27.7918 
   18800    236.84898   -237.28358    204420.41   -23257.807    1719.1144   -24976.921   -343.36144    175.66899     95.09059    14.549293    27.776851 
   19000    237.09409   -453.28061    204420.41   -23165.586    1720.8935    -24886.48   -1050.0759    176.30646    95.090726    14.548036    27.791595 
   19200    241.57539   -439.15861    204420.41   -23206.252      1753.42   -24959.672   -994.70115    177.35176    95.089481     14.54859    27.813275 
   19400    248.30426   -430.82387    204420.41    -23137.05      1802.26    -24939.31   -945.01787    180.38065    95.087433    14.548775     27.81623 
   19600    245.64186   -359.31064    204420.41   -23220.789    1782.9356   -25003.725   -722.68354    181.96137    95.087256    14.549993    27.827801 
   19800    239.10059   -402.43084    204420.41   -23218.179    1735.4572   -24953.637   -831.48296    183.96167    95.089639    14.550618    27.843275 
   20000    249.10716   -423.96281    204420.41   -23195.314    1808.0876   -25003.402   -936.25413    186.83662    95.091455    14.549752    27.844897 
   20200    234.26367   -260.36221    204420.41   -23286.691    1700.3495    -24987.04   -400.53325    187.42069    95.092092    14.548363     27.84205 
   20400     243.3402   -480.86799    204420.41   -23210.309    1766.2295   -24976.539   -1125.7698    190.82423    95.090847    14.548617    27.851688 
   20600    232.76367   -344.55641    204420.41   -23300.575    1689.4621   -24990.037   -672.46814    192.13936    95.090396    14.549193    27.850722 
   20800     241.4997    -181.3868    204420.41   -23227.764    1752.8706   -24980.635   -118.77273    193.30962    95.091149    14.550619    27.826709 
   21000    239.37081    -385.0412    204420.41   -23218.954    1737.4186   -24956.373   -800.68259    194.80548    95.090115    14.548152    27.827951 
   21200    240.20687   -310.13311    204420.41   -23200.314    1743.4869   -24943.801   -585.34509    196.61582    95.089857    14.550317    27.835371 
   21400      242.582   -272.37492    204420.41   -23234.954    1760.7263    -24995.68   -406.39088    197.67717    95.090246    14.552022    27.847898 
   21600    246.52858   -431.89515    204420.41    -23155.26    1789.3716   -24944.632    -991.5346    200.29132    95.091867    14.553969    27.837988 
   21800    237.17431   -507.41478    204420.41   -23228.559    1721.4758   -24950.034   -1223.4504    201.21825    95.092252    14.555545    27.856544 
   22000    244.29346   -331.41894    204420.41   -23294.085    1773.1485   -25067.234   -623.50436     201.9251    95.091845    14.558512     27.88254 
   22200    235.47705   -325.54373    204420.41   -23355.092    1709.1566   -25064.249    -573.8916    202.14199    95.091001    14.557569    27.901121 
   22400      240.457    -269.6439    204420.41   -23220.279    1745.3024   -24965.581   -409.29751    202.66838    95.091983    14.554716    27.914912 
   22600    240.42714   -240.15416    204420.41   -23264.882    1745.0857   -25009.967   -354.13355    204.46905    95.094769    14.552947    27.920497 
   22800    243.41643    -386.9841    204420.41   -23244.852    1766.7827   -25011.635   -810.03357     206.4891    95.094016    14.548141    27.917864 
   23000    238.21401   -249.20527    204420.41   -23309.653    1729.0222   -25038.675   -352.43966    207.71129    95.091283    14.550192    27.900222 
   23200    244.81003   -318.73804    204420.41   -23231.404    1776.8979   -25008.301   -571.11083    209.46027    95.090836    14.550208    27.906128 
   23400    246.34053   -343.28126    204420.41   -23239.662    1788.0067   -25027.668   -687.40642    211.17613    95.091004    14.549615    27.907278 
   23600    243.10708   -452.96558    204420.41   -23153.164    1764.5374   -24917.701   -1037.1349    213.21505    95.091801    14.549966    27.913091 
   23800    242.97945   -317.18222    204420.41   -23179.285     1763.611   -24942.896   -556.93552    215.27531    95.090155    14.545659    27.923672 
   24000    236.60152   -349.06849    204420.41   -23212.784    1717.3183   -24930.102   -710.45537    217.10648    95.088966    14.543953    27.915984 
   24200    239.29728   -283.73065    204420.41   -23221.739    1736.8849   -24958.624   -484.40349    215.97653    95.088298    14.544609    27.910875 
   24400    239.99899   -271.62647    204420.41   -23229.906    1741.9781   -24971.884   -409.12612    216.02176    95.088712    14.542503    27.900779 
   24600    236.36492   -553.89627    204420.41   -23257.764     1715.601   -24973.365   -1434.8575    216.02095    95.088937    14.540155    27.908098 
   24800    244.68673   -229.94445    204420.41   -23230.285    1776.0029   -25006.288   -259.28997    216.56574    95.088897    14.535695    27.882975 
   25000    238.77228   -144.69679    204420.41    -23231.12    1733.0743   -24964.195    48.857283    218.84903    95.090333    14.532677    27.889005 
   25200    233.54763   -592.93092    204420.41   -23381.418    1695.1523   -25076.571   -1564.4574    220.43013    95.090375    14.532467    27.893143 
   25400    233.44849   -280.02198    204420.41   -23299.283    1694.4327   -24993.715   -463.41044    222.40155    95.090381    14.531094    27.902898 
   25600    248.14925   -466.04728    204420.41   -23182.798    1801.1349   -24983.933   -1111.4456     221.9481     95.09066    14.532002    27.905988 
   25800    239.35185   -527.92005    204420.41   -23215.567    1737.2809   -24952.848   -1275.8495    224.03668     95.09315    14.532103    27.928747 
   26000    240.54053   -466.65053    204420.41   -23228.542    1745.9087    -24974.45   -1093.0419     226.0431    95.091366    14.530484    27.927621 
   26200     238.7969   -306.56497    204420.41   -23227.343     1733.253   -24960.596   -525.10844    228.90195    95.089143    14.526086     27.92685 
   26400    240.38415   -342.54628    204420.41   -23276.223    1744.7736   -25020.997    -683.0842    228.83209    95.087444    14.527114    27.914424 
   26600    245.32927   -269.91475    204420.41   -23195.259    1780.6667   -24975.926   -409.64432    229.32027    95.087077    14.529559    27.906058 
   26800    237.61463   -558.79376    204420.41    -23216.49    1724.6718   -24941.161   -1447.7431    229.57432    95.087122     14.53509    27.902656 
   27000    244.79385   -336.22421    204420.41    -23140.01    1776.7805   -24916.791   -680.10814    231.31305    95.087271    14.538144    27.903285 
   27200    234.28789   -165.09246    204420.41    -23192.82    1700.5253   -24893.345   -43.008512    233.20845    95.088484    14.540668    27.895684 
   27400    240.90898     -455.549    204420.41   -23148.234     1748.583   -24896.817   -1035.5012    235.33959    95.089528    14.541193    27.896833 
   27600    232.34249   -223.87827    204420.41   -23305.714    1686.4051   -24992.119   -261.69648    235.71788    95.091188    14.545611    27.889021 
   27800    247.32836   -489.02846    204420.41   -23177.759    1795.1766   -24972.935   -1161.6857    235.01396    95.090931    14.548066     27.88782 
   28000    237.13769   -382.61752    204420.41   -23301.845    1721.2099   -25023.055   -810.95395    235.81254    95.089403    14.550108    27.889194 
   28200    242.27236      -358.62    204420.41    -23268.93    1758.4788   -25027.408   -684.19722    236.88151    95.089002    14.552404     27.88663 
   28400    238.87458   -451.34719    204420.41   -23253.308    1733.8168   -24987.125   -1003.8734    238.62754    95.089336    14.551616    27.897407 
   28600    244.20626     -244.328    204420.41   -23208.062    1772.5156   -24980.578   -306.02872    240.21802    95.089493    14.550771    27.891623 
   28800    240.78764   -436.82393    204420.41     -23217.6    1747.7023   -24965.302   -1016.1186    242.96197    95.088817    14.549486    27.894872 
   29000    242.68116   -208.39497    204420.41   -23191.002     1761.446   -24952.448   -238.57187    244.85881    95.090031    14.549964    27.873718 
   29200     243.7836   -415.77854    204420.41   -23128.553    1769.4478   -24898.001   -936.33742      246.854    95.089979    14.550273    27.884602 
   29400    237.45611   -282.15118    204420.41   -23158.214    1723.5212   -24881.736   -492.93505    248.38113     95.09084      14.5527    27.878661 
   29600    239.24985   -586.86527    204420.41   -23162.783    1736.5406   -24899.323   -1519.3383    250.53228    95.089945    14.551484    27.876006 
   29800    236.89398   -330.25336    204420.41   -23221.028    1719.4411   -24940.469   -606.86339    252.24582    95.088639    14.551491    27.882055 
   30000     231.4759   -366.70782    204420.41   -23276.065    1680.1152    -24956.18   -785.13547    255.73837    95.086318    14.551345    27.855816 
   30200    231.75332   -345.63749    204420.41   -23188.755    1682.1287   -24870.884   -708.77037    256.89492    95.084559    14.551355    27.849406 
   30400    238.94554   -445.35401    204420.41   -23168.678    1734.3318   -24903.009   -998.01551     257.3712    95.085063    14.551252    27.844881 
   30600    234.94607   -305.51703    204420.41   -23232.974    1705.3026   -24938.277   -542.99502    256.87155    95.084963    14.552047    27.829592 
   30800    243.07935   -368.34385    204420.41   -23217.226    1764.3362   -24981.562   -731.39095    258.73572    95.084343    14.553881    27.821647 
   31000    240.63922   -391.52715    204420.41   -23174.117    1746.6251   -24920.742   -840.91334    259.61116    95.083691    14.555708    27.807822 
   31200    244.24093   -507.26629    204420.41   -23172.504    1772.7672   -24945.271   -1194.0006    260.53967    95.083822    14.558145    27.814921 
   31400    239.95437    -388.5108    204420.41   -23152.471    1741.6542   -24894.125   -842.24002    261.15296      95.0839    14.555936    27.801164 
   31600    245.35198   -325.32284    204420.41   -23209.561    1780.8315   -24990.392   -580.71332    260.87494    95.085403    14.553742    27.810336 
   31800     245.3854   -232.47233    204420.41   -23136.396    1781.0741    -24917.47   -267.77325    261.82046    95.085481    14.555328    27.810507 
   32000    240.88444   -413.16206    204420.41   -23195.529    1748.4049   -24943.933   -936.05171    266.06326    95.083972    14.555783    27.819736 
   32200    234.71678   -170.20878    204420.41   -23236.752    1703.6383    -24940.39   -82.740248    268.47074    95.081565    14.556063    27.821773 
   32400     240.7875   -486.07435    204420.41   -23245.399    1747.7013   -24993.101   -1173.3684    271.16002    95.080924    14.555097    27.841038 
   32600    244.44932    -399.6848    204420.41   -23145.162    1774.2797   -24919.441   -918.91664    274.81014    95.079398    14.556364    27.845837 
   32800    242.83022   -460.76884    204420.41   -23136.354    1762.5279   -24898.882   -1069.8983    278.75552    95.081117    14.553117    27.843149 
   33000    241.18326   -205.66369    204420.41    -23144.31    1750.5738   -24894.884     -206.883    282.17612     95.08032    14.553535    27.840553 
   33200      241.142   -320.26573    204420.41   -23173.161    1750.2744   -24923.435   -590.73196    286.02551     95.08181    14.555287     27.84524 
   33400    235.84044    -318.8853    204420.41   -23208.167    1711.7942   -24919.961   -581.82535    288.40276    95.081493    14.552758    27.841362 
   33600    235.58803   -559.96682    204420.41   -23197.483    1709.9621   -24907.445      -1388.7    290.45688    95.080315    14.552436    27.847307 
   33800    244.80503   -235.85546    204420.41   -23070.228    1776.8616   -24847.089   -308.35817    293.58483    95.078728    14.551065    27.855654 
   34000      235.468   -514.42365    204420.41   -23198.466    1709.0909   -24907.557   -1250.1883    296.18582    95.080351    14.552087    27.870757 
   34200    240.33972   -285.03492    204420.41   -23189.852    1744.4512   -24934.304   -470.01503    297.74629    95.081515    14.550481    27.863634 
   34400    240.47275   -234.08603    204420.41   -23231.566    1745.4167   -24976.983   -294.57334    301.56995    95.082148    14.549617    27.855902 
   34600    243.46949   -288.66716    204420.41   -23099.511    1767.1679   -24866.679   -485.84611    302.54487    95.081509    14.548744    27.883073 
   34800    239.14756   -295.78989    204420.41   -23226.162    1735.7982    -24961.96   -553.93448    304.05676    95.083226     14.54499    27.903367 
   35000    241.15673   -436.20771    204420.41   -23273.946    1750.3812   -25024.328   -982.19432    304.93226    95.083231    14.545989     27.91297 
   35200    240.13594   -276.91128    204420.41   -23194.836    1742.9721   -24937.808   -417.14606    304.79198    95.085985    14.547651    27.911043 
   35400    241.30781   -293.56953    204420.41   -23242.094    1751.4778   -24993.572   -505.99102    302.88533    95.086093    14.545933    27.913559 
   35600    244.30537   -452.44907    204420.41    -23248.76     1773.235   -25021.995    -1053.403    302.25626    95.085791    14.544791    27.916824 
   35800    246.18924    -180.6693    204420.41   -23152.308    1786.9086   -24939.217   -122.27078    303.23803    95.086048    14.546259    27.908423 
   36000    239.50375   -424.21578    204420.41    -23234.03    1738.3835   -24972.413    -980.7231    306.25768    95.086305    14.546104     27.88935 
   36200    236.89968   -46.329967    204420.41   -23238.971    1719.4825   -24958.453     365.0083    307.90859    95.085245    14.546769    27.890633 
   36400    243.52074   -349.41384    204420.41   -23217.124    1767.5399   -24984.664   -707.95774    309.18315    95.086288    14.544344    27.895897 
   36600     237.9358   -195.04007    204420.41   -23204.376    1727.0029   -24931.379   -173.08251    311.04635    95.086022    14.542934    27.885412 
   36800    234.88874   -334.33123    204420.41   -23323.745    1704.8865   -25028.631   -607.00542    312.92958    95.084119    14.544991    27.893665 
   37000    240.48433   -199.14445    204420.41   -23334.383    1745.5008   -25079.884   -152.63303     316.3887    95.083773    14.547608    27.909623 
   37200     237.9858   -309.54036    204420.41   -23298.661    1727.3658   -25026.027   -538.43036    318.26429    95.083422    14.545963    27.919349 
   37400    241.76603   -348.72449    204420.41   -23275.666    1754.8037    -25030.47   -708.80886     319.9181    95.084061    14.548323    27.915203 
   37600    235.21464   -423.05975    204420.41   -23326.791    1707.2519   -25034.043   -955.40306    321.54006    95.083326    14.547206    27.896541 
   37800    237.11291   -332.47632    204420.41   -23308.625    1721.0301   -25029.655   -604.57565    321.87702    95.081952    14.546241    27.902684 
   38000    242.94628   -382.88027    204420.41   -23219.325    1763.3703   -24982.695    -783.2262     323.6089    95.080898    14.545698    27.913553 
   38200    238.37926   -535.74869    204420.41   -23191.409    1730.2216    -24921.63   -1385.0607    324.38193     95.08174    14.545029    27.911362 
   38400    243.75341    4.7737488    204420.41   -23117.552    1769.2287   -24886.781    544.55156    325.31953    95.082131    14.545803    27.894814 
   38600    237.84953    -459.6076    204420.41   -23174.045    1726.3767   -24900.421   -1079.3254    328.28315      95.0809    14.548332    27.889266 
   38800    243.55595   -576.03668    204420.41   -23183.481    1767.7955   -24951.276   -1487.8108    333.50729    95.082012    14.547955      27.8787 
   39000    240.98404    44.650038    204420.41   -23194.172    1749.1278     -24943.3    691.76632    334.06363    95.081476    14.548274    27.903088 
   39200    233.78022   -345.60243    204420.41   -23285.599    1696.8405   -24982.439   -679.03043    336.26718    95.079354    14.548134    27.924138 
   39400    234.81901   -357.13011    204420.41   -23240.107    1704.3804   -24944.487   -732.57754    338.36283    95.080063    14.549192    27.909115 
   39600    242.80557   -367.97577    204420.41     -23212.7     1762.349   -24975.049   -739.93226    341.08397    95.081058    14.546059     27.89249 
   39800    241.55296   -393.28052    204420.41   -23274.164    1753.2572   -25027.421    -840.6249    339.82665     95.08196    14.545904    27.889289 
   40000    238.62673   -494.63511    204420.41   -23259.197    1732.0178   -24991.215   -1256.8098    339.95303    95.080799    14.545088    27.886492 
   40200    240.01098   -358.48184    204420.41   -23257.452    1742.0651   -24999.517   -741.84186    336.89233    95.080962    14.544567    27.883951 
   40400    237.70098   -406.19057    204420.41    -23280.22    1725.2985   -25005.518   -869.57721    336.77189    95.082645    14.545502    27.887618 
   40600    242.30208   -399.32781    204420.41   -23172.853    1758.6945   -24931.548   -892.20497    339.91889    95.083515    14.547243    27.890761 
   40800     238.7904    -347.0006    204420.41   -23224.351    1733.2058   -24957.557   -670.71612    339.66268    95.084919    14.544999     27.88378 
   41000    230.75286   -266.48505    204420.41   -23204.021    1674.8671   -24878.888   -435.75346    340.14681     95.08487     14.54355    27.911569 
   41200    248.85543   -333.54969    204420.41   -23110.683    1806.2605   -24916.944   -691.36638    342.67919    95.086331    14.543462    27.906948 
   41400    242.89542   -126.70958    204420.41   -23154.684    1763.0011   -24917.685     123.0286    345.81474    95.085978     14.54066    27.911195 
   41600    235.01819   -455.95261    204420.41   -23154.425     1705.826   -24860.251   -1103.1803    346.64731    95.086711    14.540129    27.911486 
   41800    241.09717   -279.49122    204420.41   -23168.589    1749.9489   -24918.538   -458.74751    347.54917    95.086329    14.541095    27.905511 
   42000    241.89358   -231.19402    204420.41    -23225.33    1755.7295   -24981.059   -276.96984    351.13394    95.086023    14.538313    27.919605 
   42200    241.62454   -274.29222    204420.41   -23286.965    1753.7767   -25040.742   -456.75084    353.55696    95.086714    14.537974    27.909671 
   42400    238.32291   -410.46129    204420.41   -23221.749    1729.8126   -24951.561   -885.12561    354.64857    95.086538    14.540562    27.890791 
   42600     239.9566   -276.67245    204420.41   -23256.394    1741.6704   -24998.065   -451.25908    356.18472    95.085162    14.543977    27.902036 
   42800    243.29495   -250.39407    204420.41   -23212.147     1765.901   -24978.048   -340.95271    361.81798    95.085185    14.543878    27.916002 
   43000    237.42651    -380.3049    204420.41   -23268.936    1723.3063   -24992.242    -773.6064    363.43328    95.083748    14.542842    27.911948 
   43200    229.24022   -251.93857    204420.41   -23279.269     1663.888   -24943.157   -352.08962    360.76026     95.08297    14.543203    27.903323 
   43400    238.69771   -355.15334    204420.41   -23256.145     1732.533   -24988.678     -675.054    361.67502     95.08168    14.541514     27.89399 
   43600    240.01232   -497.07223    204420.41   -23255.572    1742.0748   -24997.647    -1201.078    361.75632    95.080883    14.541137    27.898742 
   43800    238.58265   -260.27275    204420.41    -23291.02    1731.6979   -25022.718   -412.76372    362.12231    95.082239     14.54443    27.884626 
   44000    234.90012   -429.74233    204420.41   -23292.565    1704.9691   -24997.535   -989.31399    363.56442    95.082309    14.545716    27.902243 
   44200    234.55514   -504.56984    204420.41   -23252.647    1702.4651   -24955.112   -1269.5047    364.01462    95.080534    14.549036    27.916546 
   44400    239.86764   -198.61438    204420.41   -23275.463    1741.0247   -25016.487   -219.00448    365.94847    95.080853    14.550795    27.917966 
   44600    237.72979   -402.89112    204420.41    -23286.73    1725.5076   -25012.238   -877.64451    367.74616    95.079409    14.553224    27.935858 
   44800    243.17667   -477.54567    204420.41   -23313.094    1765.0425   -25078.137   -1157.1691    370.60873    95.078976    14.553029    27.928175 
   45000    238.41186   -449.57913    204420.41   -23295.269    1730.4583   -25025.728   -1038.0981     371.8155    95.077867    14.551583    27.929013 
   45200    237.83405   -254.35738    204420.41   -23296.193    1726.2644   -25022.457   -405.35181    369.71437    95.076644    14.551025    27.966397 
   45400    236.46019   -464.63688    204420.41   -23333.838    1716.2925    -25050.13   -1140.8657    369.16721    95.076169    14.549259    27.956664 
   45600    240.33424   -289.82517    204420.41   -23247.345    1744.4114   -24991.756    -480.5867    370.92316    95.075316    14.548616    27.942117 
   45800     242.4784   -523.49869    204420.41   -23255.772    1759.9743   -25015.746   -1299.4865    372.08803    95.074657    14.551491    27.923796 
   46000    247.57805   -338.66293    204420.41   -23203.926     1796.989   -25000.915   -666.19417    373.55885    95.074755    14.555237    27.938185 
   46200    245.83811   -153.07401    204420.41   -23215.944      1784.36   -25000.304   -13.985228    375.42313    95.075116    14.557241    27.920755 
   46400    235.15698   -428.23397    204420.41   -23273.077    1706.8335   -24979.911   -965.58902     376.9527    95.074334    14.556801    27.924066 
   46600    236.22218   -326.86048    204420.41   -23300.023    1714.5649   -25014.588   -617.53554    378.27457    95.076517    14.555441    27.909884 
   46800    240.03219   -346.40929    204420.41    -23227.78     1742.219   -24969.999   -701.01609    377.99761    95.077628    14.557935    27.887653 
   47000    241.16881   -65.651995    204420.41   -23191.186    1750.4689   -24941.655    317.79221    377.97705    95.077384    14.559054    27.875023 
   47200    238.71819   -391.45339    204420.41   -23307.727    1732.6817   -25040.409   -845.31885    380.98832    95.078194    14.557118    27.880833 
   47400    237.41101   -413.32145    204420.41   -23226.364    1723.1938   -24949.558   -898.88595    381.24209    95.078263    14.557633    27.890049 
   47600     240.5279    -281.0004    204420.41   -23246.222     1745.817   -24992.039   -442.08216    382.15597    95.078214    14.560375    27.896654 
   47800    233.25102   -442.92534    204420.41   -23279.909    1692.9995   -24972.908   -1052.8073    383.94386     95.07857    14.561331    27.884485 
   48000    238.70395   -156.02373    204420.41   -23264.143    1732.5783   -24996.722   -67.112792    387.40576    95.078256    14.564465    27.885173 
   48200    240.27694   -394.13743    204420.41   -23262.763    1743.9955   -25006.758   -860.33604    389.76662    95.079649    14.564191    27.894589 
   48400    234.17205   -454.21344    204420.41   -23270.249    1699.6845   -24969.934   -1064.9737    392.09037    95.078395    14.566129     27.87367 
   48600     237.0095    -243.0695    204420.41   -23323.385    1720.2795   -25043.665   -368.61054    392.26687    95.078198     14.56722     27.88587 
   48800    242.82076    -218.3405    204420.41   -23263.065    1762.4593   -25025.524   -247.12207    391.95783    95.079736    14.567717    27.876772 
   49000    235.27843   -340.98728    204420.41   -23280.807    1707.7149   -24988.522     -673.186    391.10459    95.080321    14.570076    27.896635 
   49200    237.80794   -325.43669    204420.41   -23200.406    1726.0748    -24926.48   -609.85022    395.12078    95.080778    14.572173    27.911117 
   49400    238.25769   -209.13302    204420.41   -23251.686    1729.3392   -24981.025   -190.45226     396.0709    95.080605    14.571782    27.907274 
   49600    246.84452    -271.0806    204420.41   -23248.184    1791.6648   -25039.849    -426.3492    395.48904    95.079639    14.571363    27.904473 
   49800    239.43671   -128.57497    204420.41   -23249.537    1737.8969   -24987.434    70.720666    395.61897    95.078969    14.573847    27.901404 
   50000    242.08538   -160.81961    204420.41   -23274.338    1757.1216    -25031.46   -16.525202    394.23774    95.078154     14.57406    27.889708 
   50200    243.41604   -187.21033    204420.41   -23206.775      1766.78   -24973.555    -127.0189    395.99404    95.077654    14.575634    27.872928 
   50400    243.83328   -343.03154    204420.41    -23221.58    1769.8084   -24991.389   -662.83017    398.23316    95.078253    14.573137    27.887176 
   50600    240.06799   -259.96135    204420.41   -23077.473    1742.4789   -24819.952   -392.16448    400.23157    95.078153    14.572432    27.879002 
   50800     230.5663   -308.06694    204420.41   -23274.014    1673.5131   -24947.527   -541.60973    398.92513    95.077505    14.568694    27.890585 
   51000    241.39635   -386.33607    204420.41   -23210.416    1752.1205   -24962.536   -835.94883    398.89806    95.077538    14.566757    27.865399 
   51200    236.28335   -464.78455    204420.41   -23209.807    1715.0089   -24924.816   -1078.3327    402.94068    95.080542     14.56356    27.868814 
   51400    234.82509      -345.59    204420.41   -23218.783    1704.4245   -24923.208   -695.34463    402.40469    95.080362    14.563064    27.869123 
   51600    233.04273    -432.0312    204420.41   -23205.148    1691.4876   -24896.636   -963.37585    405.06041    95.079966    14.565536    27.871398 
   51800    239.18719   -384.50949    204420.41    -23176.57    1736.0858   -24912.656     -814.314    405.09489    95.080379    14.564348    27.869721 
   52000    235.46057   -456.19908    204420.41   -23244.425    1709.0369   -24953.462   -1064.3042    403.62116    95.080219    14.563374    27.860535 
   52200    228.56046   -411.59315    204420.41   -23256.562    1658.9541   -24915.517   -916.51474    401.93496    95.080993    14.563299    27.875224 
   52400     232.1528   -194.31239    204420.41   -23332.045    1685.0283   -25017.073   -156.30235    402.12355    95.082189    14.563524    27.860147 
   52600    239.64181   -348.89763    204420.41   -23205.068    1739.3856   -24944.454   -666.86705     402.2866    95.081698    14.563779    27.852477 
   52800    242.94966   -229.66625    204420.41   -23140.738    1763.3949   -24904.132    -262.3224    404.03379    95.080618    14.564634    27.831983 
   53000    246.51248   -349.57987    204420.41   -23170.493    1789.2548   -24959.748    -672.2913    404.89808    95.078732     14.56662    27.824268 
   53200    234.46202   -369.14714    204420.41   -23256.672    1701.7892   -24958.461   -749.41504    403.34217    95.078135    14.569617    27.806465 
   53400    244.30906   -177.84864    204420.41   -23195.246    1773.2617   -24968.508    -107.6216    403.86248    95.079101    14.572827    27.816656 
   53600    237.12668   -264.14333    204420.41   -23270.173      1721.13   -24991.303   -355.48359    404.28911    95.080122    14.572596    27.833256 
   53800    238.76834   -432.51408    204420.41   -23221.636    1733.0457   -24954.682   -954.64598    406.86184    95.079942      14.5689    27.837441 
   54000    240.25202   -191.29015    204420.41   -23203.442    1743.8146   -24947.257   -131.72621    408.38892    95.079098    14.568363    27.840715 
   54200    240.19259   -273.16593    204420.41   -23157.846    1743.3833   -24901.229   -432.96838    410.17325    95.077886    14.567969    27.847991 
   54400    244.28603    -334.2608    204420.41   -23121.787    1773.0946   -24894.881   -672.62544    410.99646    95.077735    14.568751    27.856779 
   54600    246.66401    -367.3343    204420.41   -23161.169    1790.3546   -24951.523    -768.7763    413.99166     95.07867    14.568959     27.85142 
   54800     237.2092   -487.91121    204420.41   -23148.044     1721.729   -24869.773    -1189.568    416.45362    95.077879    14.566499      27.8604 
   55000    247.74823   -394.54081    204420.41   -23155.761    1798.2242   -24953.985   -874.53811    417.65115    95.077476    14.566224    27.868872 
   55200    229.96923   -278.30322    204420.41     -23279.3    1669.1794   -24948.479   -433.83351    417.55279    95.078449    14.562871    27.864289 
   55400    238.45171   -329.24733    204420.41   -23255.353    1730.7475   -24986.101    -643.9098      416.618    95.080062    14.560521    27.868155 
   55600    236.15964   -299.02527    204420.41   -23234.607     1714.111   -24948.718   -519.54169    415.72323    95.079696    14.558202    27.850461 
   55800    241.68568    -204.7752    204420.41   -23114.503    1754.2205   -24868.724   -199.40839     417.4551    95.080158    14.555216    27.846538 
   56000    244.76037   -432.69994    204420.41   -23149.955    1776.5375   -24926.493   -980.14083    420.48346    95.077698    14.555721    27.843292 
   56200    239.71855   -217.98272    204420.41   -23173.847    1739.9426   -24913.789   -224.22978    422.04292    95.077117    14.556137    27.861336 
   56400     235.0603   -635.47056    204420.41   -23270.044    1706.1317   -24976.176   -1689.5558    426.27401    95.074703    14.555645    27.840995 
   56600     238.0356   -112.11089    204420.41   -23379.096    1727.7273   -25106.823    135.53784    425.77703     95.07515    14.555017    27.831726 
   56800    241.56592   -123.63565    204420.41    -23309.07    1753.3513   -25062.421    34.280467    426.59884    95.075718    14.557758    27.837091 
   57000    234.91145   -361.26099    204420.41   -23349.213    1705.0513   -25054.264    -759.6061    427.36243    95.075674    14.554194    27.850396 
   57200    243.01097    -549.7511    204420.41   -23264.567    1763.8398   -25028.407   -1381.9651     427.9626    95.075645     14.55269     27.86517 
   57400     242.5915    -280.6629    204420.41   -23308.456    1760.7952   -25069.251   -443.60895    429.56822    95.073978     14.55322    27.853286 
   57600    235.29937   -402.91739    204420.41   -23321.686    1707.8669   -25029.553   -856.75244    429.43913    95.073313      14.5534    27.834589 
   57800    239.32615    -496.7291    204420.41   -23217.328    1737.0944   -24954.422   -1212.1037    428.66053    95.072342    14.553881    27.850753 
   58000    242.52281   -187.75468    204420.41    -23196.06    1760.2966   -24956.357   -148.13545    427.70456    95.072182    14.555531    27.869284 
   58200    240.27231    -329.4401    204420.41   -23154.767    1743.9619   -24898.729   -633.07587    430.05964    95.071019     14.55606    27.866969 
   58400    241.26918   -351.01008    204420.41   -23157.225    1751.1975   -24908.422   -715.92352    433.39591    95.072114    14.557124    27.849941 
   58600     237.0429   -215.28949    204420.41   -23185.833     1720.522   -24906.355    -260.6309    434.29512    95.072256     14.55541     27.83798 
   58800    240.24358   -326.82201    204420.41    -23199.68    1743.7534   -24943.433   -594.68312    432.97105    95.073107    14.554087    27.831539 
   59000    245.06993   -270.41794    204420.41   -23162.489    1778.7843   -24941.273   -439.04789    434.50388    95.073831    14.550199    27.825574 
   59200    241.20634   -405.22859    204420.41   -23236.961    1750.7413   -24987.702   -904.05936    435.19114    95.075531    14.549065    27.823214 
   59400    237.10057   -255.43432    204420.41   -23258.374    1720.9405   -24979.315   -373.39894     437.4573    95.076218    14.549819    27.816027 
   59600    235.67367   -458.43475    204420.41   -23294.723    1710.5837   -25005.307   -1071.9589    437.43309    95.076642    14.550634    27.813912 
   59800    239.10772   -231.37563    204420.41   -23235.827     1735.509   -24971.336   -293.67949    437.46196    95.078034    14.551272    27.810913 
   60000    236.18728   -296.15107    204420.41   -23197.866    1714.3116   -24912.178   -554.17229    440.45806    95.078797    14.548738    27.806784 
   60200     236.3656   -335.62765    204420.41    -23209.36    1715.6059   -24924.966   -654.53828    442.97468    95.078193     14.55064    27.807662 
   60400     244.9972   -460.86542    204420.41   -23139.344    1778.2564   -24917.601   -1020.4437    444.29751    95.080088    14.552454    27.793546 
   60600    244.81809   -358.60397    204420.41   -23191.608    1776.9564   -24968.565   -711.97294    444.67188    95.078777    14.552025    27.790372 
   60800    242.60902   -166.96778    204420.41    -23104.18    1760.9224   -24865.102   -57.626144    446.44135    95.078981    14.551293    27.801579 
   61000     244.8156   -247.34974    204420.41   -23211.767    1776.9383   -24988.705   -325.26448     450.9259    95.079308    14.548712     27.81942 
   61200    244.53793   -165.94049    204420.41   -23200.255    1774.9229   -24975.178    -79.23495    452.69293    95.079424    14.548321    27.837526 
   61400    240.80764   -344.34723    204420.41    -23212.83    1747.8475   -24960.678   -649.35275    452.69135    95.080347    14.548135    27.846976 
   61600    236.39222   -216.10014    204420.41   -23253.275    1715.7992   -24969.074   -219.32139    450.39952    95.083616     14.54598    27.876129 
   61800    234.94549   -244.55618    204420.41   -23290.935    1705.2984   -24996.233   -305.52804    449.68332     95.08554    14.546879    27.875184 
   62000    240.21931   -269.53699    204420.41   -23220.412    1743.5772    -24963.99   -382.66798    449.20676    95.086929    14.545726      27.8727 
   62200     240.1959   -468.56789    204420.41   -23238.559    1743.4073   -24981.966    -1115.844    450.06048    95.088086    14.547777    27.871783 
   62400    237.75915   -357.61026    204420.41   -23254.736    1725.7207   -24980.456   -686.89363    451.80756    95.089393     14.54832    27.870309 
   62600    240.19467   -236.95745    204420.41   -23276.897    1743.3983   -25020.296   -285.98971    452.15447    95.088664    14.547054    27.868856 
   62800     237.1938   -283.70904    204420.41   -23340.041    1721.6173   -25061.658   -494.06759    454.49796    95.087241    14.545873    27.892847 
   63000    245.22208    -324.4577    204420.41   -23264.614    1779.8887   -25044.503   -585.61775    456.29372    95.085961    14.546335    27.897676 
   63200    238.95731   -324.13184    204420.41   -23273.854    1734.4173   -25008.271   -553.30928    456.56068    95.086296    14.547547    27.906415 
   63400    228.92033   -328.52297    204420.41   -23278.345    1661.5661   -24939.911   -609.93867    456.29235    95.087351    14.546936    27.922063 
   63600    235.97182   -418.65324    204420.41   -23318.546    1712.7478   -25031.293   -908.39339    458.46321    95.089484    14.547171    27.943159 
   63800    240.44851   -411.37954    204420.41   -23351.208    1745.2408   -25096.449    -863.5075    458.78985      95.0891    14.548212    27.949911 
   64000    240.67608   -281.11416    204420.41   -23212.852    1746.8926   -24959.744   -419.96852     458.8057    95.088785    14.549484    27.938943 
   64200    242.07997   -281.52131    204420.41   -23238.141    1757.0824   -24995.223   -497.00562    460.77151    95.091175    14.551345      27.9215 
   64400    237.75008   -306.50904    204420.41   -23276.344    1725.6548   -25001.998   -516.81693    460.73563    95.092287    14.550717    27.931803 
   64600    239.81461   -355.20802    204420.41   -23274.806    1740.6398   -25015.446   -745.94423    461.07127    95.092142     14.55253    27.928283 
   64800    240.28013   -295.85584    204420.41   -23283.337    1744.0187   -25027.356   -505.83145    462.62324    95.092912        14.55    27.925928 
   65000     244.5127   -403.00439    204420.41   -23205.663    1774.7398   -24980.402   -884.41152    465.62345    95.091569    14.551031    27.914828 
   65200    238.32503   -321.26673    204420.41   -23271.244     1729.828   -25001.072   -573.13069    465.82958    95.089349    14.548547    27.896283 
   65400    233.04155   -246.28471    204420.41   -23342.104     1691.479   -25033.583   -363.29707    466.13768     95.08966    14.547258    27.888083 
   65600    238.42632   -446.08969    204420.41   -23250.198    1730.5632   -24980.762   -1045.5432    470.07909    95.090182      14.5482     27.88068 
   65800    234.57861   -462.75363    204420.41   -23286.183    1702.6355   -24988.819   -1080.7543    472.39044    95.089871    14.548761    27.885374 
   66000    239.41054   -148.10451    204420.41   -23285.086     1737.707   -25022.793    31.840352    472.29164    95.088173    14.548203    27.878265 
   66200    240.55419   -140.39312    204420.41   -23364.418    1746.0079   -25110.426    42.964161    471.88564    95.089893    14.548868     27.89317 
   66400    238.58018   -274.59957    204420.41   -23340.962      1731.68   -25072.642   -431.49746    475.29222    95.091003    14.549902     27.90636 
   66600    235.96239   -158.07461    204420.41   -23411.238    1712.6793   -25123.918   -64.885423      475.895    95.088119    14.552503    27.904207 
   66800    234.77797   -458.80798    204420.41   -23357.405    1704.0825   -25061.487   -1073.0378    478.26135    95.088331    14.553683    27.895928 
   67000     236.2518   -316.30436    204420.41   -23403.652    1714.7799   -25118.432    -595.3494    478.99372    95.088815    14.553367    27.899428 
   67200     240.6749   -273.85671    204420.41   -23323.735     1746.884   -25070.619   -401.08893    482.98742    95.088303    14.556917    27.903975 
   67400    238.85626   -339.62834    204420.41   -23316.279    1733.6838   -25049.963   -673.35954    484.86013    95.087219    14.557603    27.891316 
   67600     242.8934   -271.57998    204420.41   -23247.527    1762.9865   -25010.513   -421.84299     488.8304    95.086931    14.557111    27.925756 
   67800     246.7834     -387.852    204420.41    -23267.52    1791.2211   -25058.741   -870.95935    493.74349    95.086348    14.553798     27.92523 
   68000     231.2199   -455.87964    204420.41   -23349.149    1678.2571   -25027.406   -1057.8916     495.8632    95.084791    14.552865    27.915933 
   68200    244.05476   -286.53281    204420.41   -23284.359     1771.416   -25055.775   -486.39121    493.53774    95.085715    14.553672      27.9233 
   68400    238.36435   -365.99487    204420.41   -23251.606    1730.1134   -24981.719   -722.81014    492.16804    95.085914    14.552479    27.921386 
   68600    233.86172    -413.1461    204420.41   -23310.799     1697.432   -25008.231    -932.5348    492.44591    95.084756    14.553374    27.930794 
   68800    242.48729   -417.67353    204420.41   -23239.211    1760.0388    -24999.25   -953.38429    493.51437    95.085406    14.554681    27.902268 
   69000    240.06616   -226.97687    204420.41   -23262.549    1742.4656   -25005.014   -291.75296    494.11188    95.082649    14.553973    27.880228 
   69200     234.5991   -218.56557    204420.41   -23348.978    1702.7842   -25051.763   -241.94189    496.26315    95.081073    14.554203    27.887902 
   69400    242.66396   -445.80437    204420.41   -23376.196    1761.3211   -25137.517   -1022.1775    500.59908     95.08151    14.552255    27.912319 
   69600    240.64698   -500.86565    204420.41   -23237.814    1746.6813   -24984.496   -1239.7384    500.69788    95.082588    14.548475    27.917644 
   69800    242.06624   -304.39447    204420.41   -23259.512    1756.9827   -25016.495   -533.40233    502.90134     95.08263    14.544033    27.914097 
   70000    236.89474   -343.62252    204420.41   -23283.691    1719.4466   -25003.138   -666.05907     506.2208    95.082179    14.543591    27.918593 
   70200    242.89317    -281.4754    204420.41   -23187.055    1762.9848    -24950.04   -473.14849    509.74707    95.081478    14.542703    27.940534 
   70400    243.35666   -496.47157    204420.41   -23206.961    1766.3489    -24973.31   -1243.9691    511.80052    95.079032    14.542185    27.923706 
   70600     238.3804   -415.15982    204420.41   -23237.888    1730.2299   -24968.118   -931.24191    514.05363     95.07838    14.541413    27.937599 
   70800    246.04562   -485.26209    204420.41   -23208.869    1785.8662   -24994.735   -1161.9791      515.984    95.078539    14.539611    27.939641 
   71000    236.47628   -435.73485    204420.41   -23248.284    1716.4093   -24964.693   -987.68128    517.41665     95.07878    14.537607    27.947911 
   71200    239.50039   -174.61758    204420.41   -23229.674    1738.3591   -24968.033   -41.391035    521.63762    95.077063    14.537657     27.97217 
   71400    240.67589   -242.70991    204420.41   -23260.328    1746.8912   -25007.219   -310.85418    527.32258    95.079131    14.539772     27.97866 
   71600    243.57337   -438.89383    204420.41   -23183.802    1767.9219   -24951.724   -1030.9413    531.65574    95.077668    14.538796    27.976999 
   71800    236.62467   -435.85109    204420.41   -23284.141    1717.4863   -25001.627   -1000.7366    531.82469     95.07736    14.538437    27.981675 
   72000    232.51163   -350.42556    204420.41   -23279.045    1687.6328   -24966.678   -693.09983    533.37844    95.076011    14.537063    27.972097 
   72200    243.15404   -346.43693    204420.41   -23154.028    1764.8783   -24918.907   -679.31768    536.79532    95.077853    14.537466    27.964227 
   72400    236.21734     -456.862    204420.41   -23220.425    1714.5298   -24934.954   -1087.0106    538.87606    95.078804    14.538093    27.960994 
   72600    244.42344   -252.71622    204420.41   -23209.552    1774.0919   -24983.644   -370.40486    537.38799    95.077577    14.537577    27.969788 
   72800    244.13769   -242.38957    204420.41    -23256.37    1772.0178   -25028.388   -299.86855    536.98373    95.078309     14.53439    27.978685 
   73000    242.53413   -322.57472    204420.41    -23293.12    1760.3788   -25053.499   -578.39585    537.07669     95.08001     14.53195    27.995979 
   73200    243.52901   -461.17037    204420.41    -23241.58    1767.5999    -25009.18   -1092.3697    535.37313    95.077342    14.532519    27.994159 
   73400    241.82537   -292.65068    204420.41   -23218.116    1755.2344   -24973.351   -464.19515    533.34525    95.075795    14.533418    28.004838 
   73600    236.37468    -285.2959    204420.41   -23250.508    1715.6719   -24966.179   -451.22405    535.96298    95.074773    14.533308    27.981272 
   73800    233.40227    -495.7464    204420.41   -23291.527    1694.0973   -24985.624   -1247.6011    536.47757    95.075039    14.533018    27.993837 
   74000    238.33203   -408.09392    204420.41   -23278.074    1729.8788   -25007.952   -898.92088    538.32332     95.07396    14.531378     27.99208 
   74200    239.49471   -145.10389    204420.41   -23167.465    1738.3179   -24905.783    40.533811    541.96541    95.074981    14.531857    27.998452 
   74400    245.37693   -241.96495    204420.41   -23204.594    1781.0126   -24985.606   -340.86234    546.06806    95.074804    14.532407    28.003641 
   74600     239.9132   -295.55303    204420.41   -23234.646    1741.3554   -24976.001   -487.46513    548.29308     95.07591    14.535253    27.986421 
   74800    238.22934   -399.88131    204420.41   -23268.371    1729.1335   -24997.505   -888.80492    544.57632    95.075697    14.534972    27.973191 
   75000    237.34452   -233.40044    204420.41   -23249.438    1722.7112    -24972.15   -286.03717    542.03304    95.076762    14.536516    27.975729 
   75200     242.6175   -479.00698    204420.41   -23167.611    1760.9839   -24928.595   -1140.5213    540.20508    95.076382    14.534326    28.000384 
   75400     239.4302   -242.05259    204420.41   -23252.994    1737.8496   -24990.844   -347.12215     539.0099    95.076939     14.53284    28.000641 
   75600    241.38922   -503.13455    204420.41   -23187.927    1752.0687   -24939.996   -1282.8228    542.54902    95.077187    14.533341    28.002506 
   75800     242.4531   -274.75837    204420.41   -23150.156    1759.7907   -24909.947   -447.91753    539.72097    95.077041    14.534255    28.021139 
   76000    241.80459   -232.16016    204420.41   -23143.512    1755.0836   -24898.596   -314.18538    538.40725     95.07737    14.533938    28.004356 
   76200     235.8145   -401.12286    204420.41   -23250.977    1711.6059   -24962.583    -909.8921    538.60051    95.077374    14.534875    27.989946 
   76400    237.19884    -199.6752    204420.41   -23194.269    1721.6538   -24915.923   -230.15132    540.78468    95.077669    14.534907    27.975141 
   76600    237.75095   -453.70653    204420.41   -23155.355    1725.6612   -24881.016    -1007.629    539.91895    95.075824     14.53428     27.97329 
   76800     239.5441   -227.28015    204420.41    -23150.59    1738.6763   -24889.266   -299.27571    540.84244    95.074751    14.532621    27.970865 
   77000    240.28928    -221.9025    204420.41   -23195.957    1744.0851   -24940.042    -274.3878    544.24871    95.074384    14.532173    27.967479 
   77200    241.35929   -343.45813    204420.41   -23182.102    1751.8515   -24933.954   -697.40656    545.44426    95.074274     14.53158    27.948044 
   77400    240.45941   -431.76229    204420.41   -23162.774    1745.3199   -24908.094   -1004.0049     547.1497    95.074315    14.532719    27.921793 
   77600    239.69424   -178.48922    204420.41   -23210.401    1739.7661   -24950.167   -121.23626    550.10883    95.073175    14.530613    27.910276 
   77800    241.32882   -223.31005    204420.41   -23222.096    1751.6303   -24973.727    -266.3614    555.44907    95.074313    14.528289    27.911133 
   78000    239.52149   -343.51185    204420.41   -23235.092    1738.5122   -24973.605   -686.83796    557.25057    95.073463     14.52721    27.899974 
   78200    237.36965   -293.71024    204420.41   -23258.759    1722.8936   -24981.652   -451.80062     559.1344    95.072216    14.524597    27.902498 
   78400    237.05735   -243.83419    204420.41   -23193.811    1720.6268   -24914.438   -360.06141    560.87548    95.070906    14.521382    27.905809 
   78600    241.58642   -385.71718    204420.41   -23198.402       1753.5   -24951.902    -812.2939    563.07127    95.070513     14.52066    27.873429 
   78800    247.74702   -281.18659    204420.41   -23186.416    1798.2153   -24984.631   -457.63052     564.1633    95.069162    14.520755    27.877663 
   79000    241.86615   -321.17533    204420.41   -23219.038    1755.5304   -24974.568    -586.7481     568.4008    95.068552    14.517425    27.897927 
   79200    243.72866   -362.99891    204420.41   -23185.301    1769.0491    -24954.35   -710.13378    570.96869    95.069964    14.514247    27.897156 
   79400     245.0337   -417.38604    204420.41   -23177.873    1778.5214   -24956.395   -934.55966    573.43894    95.068215    14.510645     27.88879 
   79600    236.36344   -195.88993    204420.41   -23295.812    1715.5902   -25011.403   -173.49739    573.30168    95.070219    14.509878    27.898144 
   79800    241.89054   -365.14665    204420.41   -23269.757    1755.7075   -25025.465   -733.46642    574.12573    95.070225    14.510934    27.919497 
   80000    236.22839   -340.58432    204420.41   -23294.256      1714.61   -25008.866   -674.60734    577.28065     95.07206    14.508261    27.925106 
   80200    238.88639   -351.37829    204420.41   -23319.553    1733.9025   -25053.456   -719.93198    578.80298     95.07203    14.503689    27.914934 
   80400    231.25536   -192.74136    204420.41    -23320.77    1678.5144   -24999.284   -165.08536    576.79314    95.072526    14.502088    27.922912 
   80600    237.36743   -265.86544    204420.41    -23284.39    1722.8775   -25007.267    -408.0321    576.13654    95.071848     14.50108    27.918787 
   80800    242.62788   -223.09659    204420.41    -23260.65    1761.0592    -25021.71    -255.9831    576.74805    95.072463    14.501586    27.903183 
   81000    235.31025   -431.54677    204420.41   -23295.157    1707.9459   -25003.103   -991.85963    578.90952    95.073752    14.498344    27.905853 
   81200    240.73474   -203.56562    204420.41   -23273.918    1747.3183   -25021.236   -162.18141    582.86007    95.072623    14.498703    27.898779 
   81400    238.50972   -376.87399    204420.41   -23232.398    1731.1686   -24963.567    -823.3611    583.11952    95.071898    14.498876    27.880463 
   81600    235.36233   -465.02182    204420.41   -23331.833    1708.3239   -25040.157   -1123.5452    582.98439    95.071677    14.498966    27.860567 
   81800    231.05214   -300.08376    204420.41   -23365.595    1677.0394   -25042.635   -525.75882    582.33462    95.073478    14.499933    27.864209 
   82000     238.2701   -230.71767    204420.41   -23310.387    1729.4293   -25039.816   -320.68357    580.44389    95.074076    14.500081    27.879169 
   82200    234.68456   -316.73725    204420.41     -23238.9    1703.4045   -24942.305   -580.79138    583.06411    95.074922     14.49863    27.883841 
   82400    244.71676   -237.90824    204420.41    -23252.04    1776.2209   -25028.261   -312.87665    586.99311     95.07366     14.50026     27.90011 
   82600    242.74518   -373.71428    204420.41   -23234.061    1761.9107   -24995.972   -797.42174    591.08852    95.074223    14.500623     27.90149 
   82800    237.24055   -370.57429    204420.41    -23306.37    1721.9565   -25028.327   -748.21054    593.42684    95.073849    14.504317    27.915515 
   83000    240.59428   -488.07781    204420.41   -23184.345    1746.2988   -24930.644   -1177.3212    596.95436    95.074703    14.502455    27.937656 
   83200    240.60069    -349.7054    204420.41   -23185.821    1746.3453   -24932.167    -689.6377    598.78046    95.073821    14.497376    27.946063 
   83400    242.64196   -345.40374    204420.41   -23179.833    1761.1615   -24940.995    -653.3303    601.68785    95.074843    14.496474    27.950498 
   83600    237.38776   -384.44711    204420.41   -23309.464     1723.025   -25032.489    -790.1731    604.31571    95.077365    14.497543    27.953313 
   83800    238.11848    -270.7532    204420.41   -23289.122    1728.3288   -25017.451    -448.8285    603.75197    95.080177    14.496423    27.952615 
   84000    237.55928    -532.9742    204420.41   -23249.683      1724.27   -24973.953   -1366.5767    602.91757    95.081422    14.495252    27.988525 
   84200    240.20802   -284.81508    204420.41   -23213.065    1743.4953    -24956.56   -488.89986    599.19397    95.082073    14.494183    28.006145 
   84400    231.88614   -466.39194    204420.41   -23283.919    1683.0928   -24967.012   -1114.7053    600.44122    95.082113    14.493059    27.997497 
   84600     240.7926   -275.73576    204420.41   -23200.063    1747.7383   -24947.801   -423.92769    601.90552    95.079047    14.493532    28.000701 
   84800    239.28107   -428.09783    204420.41   -23190.443    1736.7672    -24927.21   -983.46385     601.7691     95.07818    14.498554    28.002424 
   85000    239.45876   -288.84207    204420.41   -23182.808    1738.0569   -24920.865   -487.12913    598.33176     95.07666    14.502017    28.007667 
   85200     240.1762    -191.4166    204420.41   -23147.316    1743.2643    -24890.58   -132.44087    599.16009     95.07576    14.504673    28.009148 
   85400    237.00981   -347.70769    204420.41   -23286.906    1720.2818   -25007.188   -701.65007    599.87671     95.07564    14.504395    28.020003 
   85600    239.45897   -409.84908    204420.41   -23230.849    1738.0584   -24968.907    -915.8477    600.30919    95.074769    14.504346    28.021501 
   85800    232.44113   -303.07223    204420.41   -23237.118     1687.121   -24924.239   -521.85514    599.92887    95.074958    14.505403    28.028045 
   86000    235.97716   -291.79083    204420.41   -23166.539    1712.7865   -24879.326   -478.26141    601.00718    95.074207      14.5058     28.04129 
   86200    237.15274     -381.289    204420.41   -23165.467    1721.3192   -24886.786   -783.91996    603.85324    95.071954    14.502492    28.058585 
   86400    233.10807   -494.34017    204420.41   -23248.004    1691.9619   -24939.966   -1220.7419    607.58353    95.069087    14.502215    28.055197 
   86600    238.28653   -338.69983    204420.41   -23216.424    1729.5486   -24945.972   -666.24915    607.60421    95.069023    14.502102    28.045634 
   86800    238.03081   -408.41548    204420.41   -23291.853    1727.6925   -25019.545   -890.30927    610.15869    95.068576    14.506937    28.039973 
   87000    237.55656   -249.01286    204420.41   -23251.585    1724.2502   -24975.835   -352.91836    608.49421    95.068374    14.507408    28.026464 
   87200    241.08905   -314.90339    204420.41   -23204.045      1749.89   -24953.935   -577.17092    608.28053    95.068239    14.506456    28.016881 
   87400    232.99595   -270.39625    204420.41   -23262.865    1691.1481   -24954.013    -413.8825    607.05614    95.067954    14.504951    28.021386 
   87600    240.85663   -191.98322    204420.41   -23142.414     1748.203   -24890.617   -166.61178      606.833    95.067603    14.503668    28.012993 
   87800    244.58483   -181.89231    204420.41   -23203.067    1775.2634   -24978.331   -94.934495    607.73932    95.067722    14.503298    28.006084 
   88000    237.84537   -256.18912    204420.41    -23213.55    1726.3465   -24939.897   -345.47693    608.30899     95.06912    14.500399    28.024618 
   88200    240.06961   -189.42732    204420.41   -23246.431    1742.4907   -24988.922   -159.25737    609.27289    95.073068    14.501334    28.025251 
   88400    238.07071   -236.80818    204420.41   -23177.465    1727.9821   -24905.447   -307.93172    607.82501    95.072544    14.502881    28.019635 
   88600     232.4535   -307.09767    204420.41   -23260.147    1687.2108   -24947.358   -521.55313     606.2995    95.071704    14.502834    28.001197 
   88800    234.82747   -383.40669    204420.41   -23270.403    1704.4417   -24974.845   -832.35887    606.64744    95.073974     14.50406    28.013253 
   89000    242.08972   -322.07829    204420.41   -23237.503    1757.1532   -24994.656   -578.38294     607.0477    95.076975    14.503218    28.015192 
   89200    234.39816   -342.94111    204420.41   -23236.748    1701.3257   -24938.074   -683.19953    608.46365    95.076988    14.505952    28.003327 
   89400    245.85952   -282.12568    204420.41    -23187.34    1784.5154   -24971.855   -508.65636    609.28903    95.077957    14.505351    28.010184 
   89600    233.41261   -339.68441    204420.41   -23332.632    1694.1723   -25026.804   -715.40757    612.37923    95.076555     14.50441    28.017806 
   89800    240.48648   -340.56677    204420.41    -23209.25    1745.5164   -24954.766   -682.28375    614.55384    95.074527    14.504163    28.026127 
   90000    237.77931   -263.66103    204420.41   -23190.302     1725.867   -24916.169   -394.69064     615.2552    95.072554    14.501864    28.017749 
   90200    241.56106   -339.07917    204420.41   -23253.327     1753.316   -25006.643   -676.09412      619.079     95.07442     14.50011    28.014307 
   90400    239.37587   -403.92108    204420.41   -23240.404    1737.4553    -24977.86   -908.32021    623.05463     95.07407    14.502076    27.982857 
   90600    239.96071    -412.6209    204420.41   -23248.558    1741.7002   -24990.258   -900.11355    624.63907    95.073943    14.504279    27.984539 
   90800    242.36312   -206.66648    204420.41   -23228.409    1759.1376   -24987.547   -256.20011    626.87934    95.075704    14.503922    27.982517 
   91000     241.5805   -216.75158    204420.41   -23273.678    1753.4571   -25027.136   -248.52248    630.28252      95.0773    14.504929    27.976843 
   91200    232.72458   -205.92345    204420.41   -23310.296    1689.1784   -24999.475   -197.02549    634.16663    95.077272    14.506176    27.970773 
   91400    239.75086   -406.70996    204420.41   -23244.733    1740.1771    -24984.91   -883.38033    638.87068    95.078227    14.504548    27.955876 
   91600    246.69297   -295.12232    204420.41    -23137.69    1790.5648   -24928.254   -514.92844    639.53879    95.078118    14.506667    27.932525 
   91800     242.7105   -232.97655    204420.41   -23154.647    1761.6589   -24916.306     -306.576    640.91152     95.07594    14.505797    27.953382 
   92000    239.27458   -298.49889    204420.41   -23150.532    1736.7201   -24887.252   -500.36293    640.89189    95.076234    14.506969    27.947281 
   92200    240.99895   -375.53619    204420.41   -23157.573    1749.2361   -24906.809   -810.13102    641.79015    95.076399    14.509342    27.939031 
   92400    248.21594   -415.86049    204420.41   -23195.266    1801.6189   -24996.885   -954.54424    644.53847    95.075499     14.51124    27.947774 
   92600    248.62675    -216.4429    204420.41    -23173.86    1804.6007   -24978.461   -251.51302      644.334    95.075606    14.510481    27.948466 
   92800    233.60691   -426.81428    204420.41   -23281.532    1695.5826   -24977.115   -982.73465    643.84498    95.075671    14.507778    27.941576 
   93000    238.51587   -215.08054    204420.41   -23315.113    1731.2132   -25046.326   -229.13624    645.24611    95.076125    14.507109     27.90657 
   93200    236.66579   -492.54925    204420.41   -23272.527    1717.7848   -24990.312   -1228.9216    647.68831    95.076898    14.509415    27.899618 
   93400    229.81814   -217.65818    204420.41   -23337.869    1668.0827   -25005.952   -226.01759    647.68201    95.079831    14.509822    27.894051 
   93600    237.64493   -561.01483    204420.41   -23319.314    1724.8917   -25044.205    -1446.521    652.46326    95.078966    14.507253    27.890426 
   93800    234.62103    -363.6767    204420.41   -23344.709    1702.9433   -25047.652   -740.62791    654.69921    95.078637    14.507115     27.87652 
   94000    238.40646   -359.45298    204420.41   -23383.247     1730.419   -25113.666   -692.27768    654.44758    95.076372    14.508903    27.883231 
   94200    239.20617   -384.83956    204420.41   -23276.672    1736.2235   -25012.895   -857.39994    655.33111    95.074852    14.511332     27.89549 
   94400    240.07576   -269.65172    204420.41   -23302.752    1742.5353   -25045.287   -434.51357    656.38052      95.0742    14.513027     27.90463 
   94600    236.25444    -191.8206    204420.41   -23286.699    1714.7991   -25001.498   -182.31447    660.25483     95.07263    14.512025    27.922467 
   94800    242.55926   -417.98539    204420.41   -23260.557    1760.5612   -25021.118   -954.07442    665.85232    95.071846     14.51144    27.926927 
   95000    238.69684   -204.11986    204420.41   -23291.194    1732.5267   -25023.721    -254.5595    668.76119    95.071825    14.513895    27.920111 
   95200    238.15596   -408.69262    204420.41   -23288.089    1728.6009    -25016.69   -881.17588    673.23162      95.0712    14.516529    27.916808 
   95400    241.66249   -273.88429    204420.41   -23222.013    1754.0522   -24976.065   -470.22144    673.81131    95.070418     14.51367    27.917933 
   95600    235.67494   -221.94678    204420.41   -23202.517    1710.5929    -24913.11    -255.2119    674.43937    95.070224     14.51443     27.91228 
   95800    239.45244   -347.52843    204420.41   -23215.023     1738.011   -24953.034   -667.55171    672.03511    95.068894    14.512706    27.892288 
   96000      243.312   -330.24418    204420.41   -23195.641    1766.0248   -24961.666   -631.54638    673.10409    95.069458    14.514118    27.904001 
   96200    246.25594   -294.41601    204420.41   -23137.896    1787.3927   -24925.289    -521.4995    674.59457    95.069085    14.513001    27.911906 
   96400    241.42687   -266.44932    204420.41   -23226.229     1752.342   -24978.571   -436.54776    675.22404     95.06659    14.511552    27.932692 
   96600    236.41387    -201.2932    204420.41   -23241.552    1715.9563   -24957.508   -197.36921    680.16943    95.064376    14.510205    27.952971 
   96800    240.71357   -443.30189    204420.41   -23189.756    1747.1647   -24936.921   -1029.2316    686.84679    95.061748     14.51085    27.960473 
   97000    241.84772   -297.10419    204420.41   -23231.241    1755.3966   -24986.637   -553.91265    691.50025    95.060503    14.512928    27.975119 
   97200     241.5863   -477.46871    204420.41   -23233.303    1753.4992   -24986.802   -1143.1927     695.1637     95.06093    14.511955    27.997849 
   97400     233.3664   -134.06482    204420.41    -23231.11    1693.8369   -24924.946    39.029369    697.91489    95.060432    14.511573    27.990185 
   97600    241.09734   -473.90992    204420.41   -23162.406    1749.9502   -24912.356   -1114.5663    700.56424    95.059493    14.511028    27.983653 
   97800    240.70225   -323.27852    204420.41   -23222.989    1747.0825   -24970.072   -584.66529    702.46524    95.058905    14.511044    27.967729 
   98000    235.97707   -193.57104    204420.41   -23265.626    1712.7858   -24978.411   -144.33395    699.57837    95.056086    14.510614    27.964264 
   98200    236.40048   -526.02029    204420.41   -23283.099    1715.8591   -24998.958   -1333.0785    698.32346    95.057046    14.511402    27.972429 
   98400    240.48567   -421.72271    204420.41   -23206.086    1745.5105   -24951.596   -952.69503    700.26066    95.056263    14.514814    27.967386 
   98600    236.21477   -418.26953    204420.41   -23240.899    1714.5112   -24955.411   -908.97801     703.2171    95.057128    14.516334    27.957768 
   98800    242.95472   -143.38668    204420.41   -23164.964    1763.4316   -24928.395     25.63243    703.41753    95.055647    14.516755    27.946687 
   99000    237.15947   -440.43876    204420.41   -23257.533    1721.3681   -24978.901   -990.67113    705.95178    95.054394    14.518504    27.963452 
   99200    235.76311   -484.94377    204420.41   -23215.819    1711.2329   -24927.052   -1167.8869    708.74364    95.055324    14.523027    27.950554 
   99400    238.99938   -186.80661    204420.41   -23216.501    1734.7226   -24951.224   -99.723415    710.24713    95.054702    14.521825    27.939075 
   99600    232.02266    -296.5585    204420.41   -23204.084    1684.0837   -24888.167   -546.89055    711.73057     95.05715    14.521514    27.944398 
   99800    241.40153   -288.80164    204420.41   -23189.093    1752.1581   -24941.251    -510.6156    711.75648    95.057551    14.520207    27.959769 
  100000    239.46942   -480.87791    204420.41   -23168.284    1738.1343   -24906.418   -1150.2147    713.58624    95.056896    14.520776    27.954642 
  100200    239.00574   -364.71876    204420.41   -23227.834    1734.7688   -24962.603   -727.69806    711.39167    95.057723    14.523279    27.963151 
  100400    242.77757   -279.02483    204420.41   -23192.614    1762.1457   -24954.759   -457.95206     711.5666    95.055797    14.526383      27.9527 
  100600    240.32214   -284.25106    204420.41   -23210.669    1744.3236   -24954.993   -457.88422    718.83822    95.056504    14.527437    27.919574 
  100800    238.23992   -347.86726    204420.41   -23251.774    1729.2103   -24980.984   -740.53562    726.01228    95.057812    14.530369    27.918958 
[...]
 5175800    229.03047    -62.69759    204420.41   -25768.356    1662.3655   -27430.721    304.98475    8743.9716    95.405477    14.966745     27.89521 
 5176000    225.09247    265.04592    204420.41   -25789.247    1633.7825   -27423.029    1410.1392    8734.0351    95.405283    14.963397    27.891461 
 5176200      224.882    74.526304    204420.41    -25805.38    1632.2548   -27437.634    765.80903    8740.9871    95.404764    14.961666     27.89841 
 5176400    229.61982    94.580073    204420.41   -25741.114    1666.6433   -27407.757    827.65744    8738.0043    95.404653    14.960645    27.897073 
 5176600    230.53471     170.2644    204420.41   -25679.931    1673.2838   -27353.215    1075.1532    8736.5805    95.403492    14.956508    27.899584 
 5176800    232.24095    3.7025554    204420.41   -25725.804    1685.6681   -27411.472    492.15964    8740.4282    95.403204    14.953744    27.888676 
 5177000     228.1523    290.16508    204420.41   -25717.062    1655.9916   -27373.053    1519.4676    8736.1015    95.402528     14.95291    27.894267 
 5177200    233.95207    40.079418    204420.41   -25672.237    1698.0879   -27370.325     618.0352    8740.4925    95.402569    14.951029    27.894206 
 5177400    233.41125     193.8349    204420.41   -25642.572    1694.1624   -27336.734    1182.0483    8732.3435    95.403384    14.949733     27.89712 
 5177600    225.99151   -16.251567    204420.41   -25739.879    1640.3079   -27380.186     456.3361    8744.3533    95.403894    14.947708    27.896581 
 5177800    228.16456    251.59291    204420.41   -25771.362    1656.0805   -27427.443    1329.1637    8736.0843    95.404927    14.947469    27.902191 
 5178000    227.65863    26.059414    204420.41   -25751.425    1652.4084   -27403.833     619.2572    8744.5488    95.404997    14.945856    27.901816 
 5178200    228.55975    230.03246    204420.41   -25750.834    1658.9489   -27409.782    1285.2617    8734.2337    95.405825    14.945679    27.902131 
 5178400    222.74343    6.2063592    204420.41    -25758.21    1616.7325   -27374.942    526.91826      8739.54    95.406938    14.945093    27.902909 
 5178600    225.49773    170.99138    204420.41   -25723.778     1636.724   -27360.501    1063.3399    8739.3659    95.407854    14.943432    27.908335 
 5178800    230.52576    142.70157    204420.41   -25738.567    1673.2188   -27411.786    978.67065    8741.9655    95.409758    14.943634    27.901647 
 5179000     224.2922    163.40084    204420.41   -25758.655    1627.9739   -27386.629    1097.0395    8736.6742    95.411762    14.945136    27.902942 
 5179200    226.48694    99.155144    204420.41   -25763.592    1643.9039   -27407.496    831.44705    8734.2982    95.412221    14.946148    27.914399 
 5179400    233.04068    180.56668    204420.41   -25698.322    1691.4727   -27389.794    1108.3161    8737.6366    95.414038    14.945919    27.912709 
 5179600    229.20936    104.77683    204420.41   -25768.984     1663.664   -27432.648    879.39234    8741.9676    95.416237    14.948396     27.91034 
 5179800    227.73122    126.53604    204420.41   -25745.444    1652.9353    -27398.38    936.25144    8736.2473    95.417734    14.948684    27.916507 
 5180000     220.8593    49.894511    204420.41   -25837.054     1603.057   -27440.111    628.85331    8738.1476    95.418851    14.949069    27.913944 
 5180200     224.0205    134.44658    204420.41   -25808.155    1626.0018   -27434.157    949.55094    8737.9843    95.420073    14.949198    27.915663 
 5180400    221.33604    64.876368    204420.41   -25739.479    1606.5173   -27345.996    732.18124    8743.1704    95.421716    14.950206    27.914051 
 5180600     228.8798    186.73475    204420.41   -25737.285    1661.2719   -27398.557    1131.1881    8738.4518    95.422348     14.94973    27.914231 
 5180800    225.63061    102.83751    204420.41   -25761.188    1637.6884   -27398.877    861.54149    8732.8131    95.423026     14.95053    27.922288 
 5181000    224.67882    177.46531    204420.41   -25799.875    1630.7801   -27430.655    1118.3136    8735.9194    95.421859    14.951104    27.925435 
 5181200     223.8509     79.50244    204420.41   -25783.259    1624.7708    -27408.03    795.71351    8743.2679    95.423302    14.951163    27.919935 
 5181400     230.8959    156.22193    204420.41   -25690.378    1675.9054   -27366.283    1031.2827    8737.7783    95.423703    14.954793    27.915687 
 5181600    224.15945    76.676876    204420.41   -25814.955    1627.0103   -27441.965    744.13112    8737.4091     95.42309    14.958508    27.923402 
 5181800    226.02263    149.36383    204420.41   -25691.878    1640.5338   -27332.411    987.38229    8732.6847    95.423641    14.962621     27.91673 
 5182000    227.57834    81.965087    204420.41   -25728.755    1651.8256    -27380.58    771.38518    8742.6344    95.423754      14.9666    27.914635 
 5182200    225.49771    120.28676    204420.41   -25695.568    1636.7238   -27332.291     898.6837    8745.6881     95.42397    14.970721    27.918017 
 5182400    220.88178    132.79839    204420.41   -25773.537    1603.2202   -27376.757    914.60104    8737.7726    95.424516    14.974697    27.917861 
 5182600    229.52609    121.00493    204420.41   -25742.725    1665.9629   -27408.688     918.2309    8735.1809    95.425162    14.976619    27.923757 
 5182800    227.24661    155.85565    204420.41   -25713.839    1649.4178   -27363.256    1020.1892     8738.302    95.425893    14.980367    27.920152 
 5183000    233.32634    76.225358    204420.41   -25685.425    1693.5462   -27378.971    750.46765    8745.0573    95.426196    14.984204    27.924275 
 5183200    227.47134    177.85074    204420.41   -25704.027    1651.0489   -27355.076    1123.0742    8741.3121    95.427048    14.987049    27.918424 
 5183400    221.23555    116.96904    204420.41   -25833.851    1605.7879   -27439.638    877.45729    8739.0346    95.427216    14.986903    27.926705 
 5183600    224.06155    140.33934    204420.41   -25809.523    1626.2998   -27435.823    951.99534    8738.3096    95.425401    14.987361    27.908924 
 5183800     227.4377    213.07699    204420.41   -25790.073    1650.8048   -27440.878    1249.2121    8739.0221    95.424992    14.990628    27.915196 
 5184000    225.48509     109.5689    204420.41   -25711.087    1636.6322   -27347.719    850.89072     8744.177    95.424197    14.992577    27.924711 
 5184200    228.27891    168.01085    204420.41   -25727.064    1656.9106   -27383.974     1117.466    8743.7622    95.424461    14.994562    27.934745 
 5184400    231.46485    131.09106    204420.41   -25711.848     1680.035   -27391.883    948.92973    8740.2601    95.424667    14.995462    27.927986 
 5184600    224.31255    156.56435    204420.41    -25765.01    1628.1216   -27393.132    1022.8849    8740.7834    95.423455    14.997725    27.920909 
 5184800     224.8434    158.18391    204420.41   -25736.782    1631.9747   -27368.757    1012.4038    8740.5598    95.423072    15.001074    27.928034 
 5185000    228.69851     114.8534    204420.41   -25732.373    1659.9561   -27392.329    888.18906    8742.8176    95.422981    15.007238    27.920152 
 5185200    224.05553    146.78824    204420.41   -25801.602    1626.2561   -27427.858    1024.7166    8742.4515    95.422571    15.010868    27.923636 
 5185400    228.61285    159.08983    204420.41   -25727.721    1659.3343   -27387.056    1055.3781    8742.4217    95.423057    15.013661     27.92099 
 5185600    223.60883     234.4845    204420.41   -25728.856    1623.0138    -27351.87    1337.7158    8740.0119    95.422167    15.015205    27.912031 
 5185800    229.14476    95.077445    204420.41   -25705.673    1663.1951   -27368.868    869.09412    8740.2501    95.421025    15.016606    27.900981 
 5186000    225.82358    67.448259    204420.41   -25724.108    1639.0891   -27363.197    699.70881    8737.7567    95.420313    15.018965    27.913445 
 5186200    226.38868    134.91343    204420.41   -25693.192    1643.1907   -27336.383    945.99276    8738.4442    95.420351    15.021074    27.916938 
 5186400    221.78342    88.695139    204420.41   -25729.945    1609.7645   -27339.709    770.31751    8741.0173    95.420802    15.024286    27.909585 
 5186600    227.66607    159.90809    204420.41   -25719.022    1652.4624   -27371.485    992.44543    8738.0018    95.421416    15.027203    27.896384 
 5186800    230.08111    96.470656    204420.41   -25722.895    1669.9914   -27392.886    856.59403    8741.9586    95.421337    15.025633    27.909978 
 5187000    230.80309    151.06151    204420.41   -25698.274    1675.2317   -27373.505    1017.4635    8737.3204    95.421657    15.024758    27.912962 
 5187200    225.55197    147.01187    204420.41    -25752.13    1637.1176   -27389.248    962.23009    8741.4224    95.421154    15.024338    27.914214 
 5187400    226.99525    145.39761    204420.41   -25776.581    1647.5934   -27424.174    989.15578    8739.1429    95.421807    15.021649    27.910435 
 5187600    228.50444    179.75774    204420.41   -25693.431    1658.5475   -27351.979    1075.4145     8736.067    95.421778    15.019544    27.907774 
 5187800    225.15001    5.5653891    204420.41   -25734.735    1634.2002   -27368.935    499.81787    8738.0715    95.422931    15.018047    27.898279 
 5188000    228.09648    284.65914    204420.41   -25679.946    1655.5864   -27335.533    1518.3607    8734.9971    95.423578    15.016881    27.891793 
 5188200    228.66169    45.772593    204420.41    -25717.11    1659.6889   -27376.799    634.34775    8741.0485    95.425138    15.014504    27.894489 
 5188400    228.99701    145.58929    204420.41   -25710.669    1662.1227   -27372.792    976.25596    8736.5424    95.425092    15.011478     27.89558 
 5188600    231.11025    116.65125    204420.41   -25747.576    1677.4611   -27425.037    912.71733    8739.2606    95.425526    15.009693    27.895446 
 5188800    222.25586    196.69211    204420.41   -25780.351    1613.1936   -27393.544    1170.5842    8732.9377    95.425968    15.009148    27.887402 
 5189000    229.36959    54.897579    204420.41   -25742.701     1664.827   -27407.528    643.09551    8734.7654     95.42504    15.006259    27.895752 
 5189200    217.24821    157.78521    204420.41   -25849.743    1576.8467    -27426.59    1068.2462    8736.6861      95.4247    15.003998     27.89218 
 5189400    222.11761     98.38381    204420.41   -25798.089    1612.1901   -27410.279    835.04195    8741.6883    95.424649    15.004257    27.895481 
 5189600    228.40695    18.480507    204420.41   -25718.985    1657.8399   -27376.825    552.65882    8741.7298    95.425259    15.003067    27.895836 
 5189800    222.02031    235.40443    204420.41   -25752.455    1611.4839   -27363.939    1301.4908    8734.5812    95.423332    15.004277    27.904224 
 5190000    223.91522    37.234435    204420.41   -25752.744    1625.2377   -27377.981    627.20913    8743.1247    95.421944    15.005845    27.913407 
 5190200    225.56949    149.20132    204420.41   -25768.244    1637.2448   -27405.488    1018.6181    8741.2393    95.422014     15.01024    27.914825 
 5190400    231.83599    116.00161    204420.41   -25670.368    1682.7288   -27353.096    875.71164    8743.5982    95.420778    15.013388    27.918016 
 5190600    225.63408    97.376953    204420.41   -25746.102    1637.7136   -27383.815     778.1259    8736.6774    95.421213    15.015225    27.916977 
 5190800    229.96488    127.40956    204420.41    -25729.82    1669.1477   -27398.968    964.82058    8740.0353    95.420475     15.01829    27.915435 
 5191000    226.24461    127.39762    204420.41   -25750.577     1642.145   -27392.722    923.27646    8739.1122    95.419386    15.019398    27.910635 
 5191200    226.57881    167.96696    204420.41   -25755.401    1644.5708   -27399.972    1051.1519    8739.5615    95.418797    15.020499    27.920655 
 5191400    232.20097    148.09225    204420.41   -25728.314    1685.3779   -27413.691    1021.2109    8744.0462    95.419186    15.020297    27.919282 
 5191600    228.46141     185.6455    204420.41   -25750.657    1658.2351   -27408.893     1131.133    8738.5316    95.419059    15.019553    27.922252 
 5191800    230.46389    118.86696    204420.41   -25695.474    1672.7697   -27368.243    927.27806    8740.4977    95.418817    15.019859    27.913708 
 5192000    226.68562    132.70542    204420.41   -25683.399     1645.346   -27328.745    926.15723    8739.9889    95.419609    15.017818    27.912813 
 5192200    228.26255    105.01743    204420.41   -25744.225    1656.7918   -27401.017     821.0708     8742.604    95.418804    15.017811    27.907508 
 5192400    221.92469    195.66003    204420.41    -25748.04    1610.7899    -27358.83    1188.0479    8738.5313    95.418247    15.017313    27.904489 
 5192600    217.93206    63.455751    204420.41   -25781.104    1581.8103   -27362.915    720.30692    8742.9101    95.419812    15.017824    27.905824 
 5192800    232.56102    203.70441    204420.41   -25725.531    1687.9913   -27413.522    1183.9458    8742.1225    95.421128    15.016199    27.905765 
 5193000    221.33129    85.111157    204420.41   -25799.383    1606.4828   -27405.866    731.98639    8746.0585    95.421445    15.014005    27.912361 
 5193200    225.26166    101.32721    204420.41    -25728.33    1635.0105   -27363.341     837.8897    8743.4026     95.42282    15.016332    27.915996 
 5193400     225.8658    166.82099    204420.41   -25728.476    1639.3955   -27367.871    1093.0227    8739.5473     95.42379    15.018588     27.91595 
 5193600    232.81875    130.05549    204420.41   -25722.237    1689.8619   -27412.099    918.72881    8741.9088    95.424873    15.022422    27.896771 
 5193800    224.55653    124.43752    204420.41   -25741.095    1629.8925   -27370.988    879.34594    8742.9375     95.42543    15.027039    27.904075 
 5194000    224.15852    161.08886    204420.41   -25855.985    1627.0036   -27482.989    1062.8821    8745.2604    95.424678     15.02945    27.911417 
 5194200    224.97177    158.10494    204420.41   -25799.572    1632.9064   -27432.479     1020.933    8745.7742    95.425035    15.032238     27.90415 
 5194400    226.94948    129.79718    204420.41   -25743.441    1647.2611   -27390.702    908.10574    8745.8458    95.424596    15.035242    27.914468 
 5194600    229.17165    223.95896    204420.41   -25704.284    1663.3903   -27367.674    1258.9226     8743.825    95.424234    15.039725     27.90754 
 5194800    228.07009    115.15087    204420.41   -25732.257    1655.3949   -27387.652     887.9838    8746.3924      95.4242    15.043553    27.910793 
 5195000    230.26676    121.10797    204420.41   -25741.949    1671.3389   -27413.288    875.21077    8745.6222    95.422995    15.047385    27.908369 
 5195200    229.33393    211.20764    204420.41   -25731.426    1664.5682   -27395.994    1235.8396    8742.1075    95.421876     15.04879    27.908908 
 5195400    230.17485    60.893292    204420.41   -25741.055    1670.6718   -27411.727    705.73635    8746.7795    95.422271    15.050763    27.907773 
 5195600     223.3626    206.85925    204420.41   -25783.033    1621.2266    -27404.26    1243.8552    8743.9947    95.422474    15.052985      27.9051 
 5195800    228.10387    178.84685    204420.41   -25679.918      1655.64   -27335.558    1096.5331    8745.9591    95.422528     15.05625     27.90455 
 5196000    226.52203    56.556433    204420.41   -25751.381    1644.1586   -27395.539    625.66374    8746.1061    95.422049    15.059957     27.90014 
 5196200     228.8888    271.85665    204420.41   -25748.324    1661.3373   -27409.661    1422.6759    8744.6707    95.421828    15.062817    27.912699 
 5196400    230.66504    84.942008    204420.41   -25739.491    1674.2297   -27413.721     786.4521     8750.227    95.422477    15.066933    27.911432 
 5196600     232.6748    266.24529    204420.41   -25726.522    1688.8171   -27415.339    1436.9673    8744.2924     95.42317    15.071651     27.89819 
 5196800    231.26484    127.80075    204420.41   -25728.331    1678.5833   -27406.914    945.31476    8744.7097    95.422747    15.076474    27.899696 
 5197000    230.91523    107.15975    204420.41   -25685.411    1676.0457   -27361.456    837.81466    8747.4367    95.421878     15.07929    27.902594 
 5197200    233.74894    146.83457    204420.41   -25780.123    1696.6135   -27476.736    990.65609    8747.7134    95.421526    15.082228    27.912296 
 5197400     225.5929    133.73202    204420.41   -25772.645    1637.4147    -27410.06    936.28559    8747.2687    95.421404    15.084293    27.912339 
 5197600    225.88949    143.63138    204420.41   -25804.658    1639.5674   -27444.226    948.02879    8746.9388    95.421689    15.086603    27.917996 
 5197800    219.23011    139.91233    204420.41   -25829.831    1591.2319   -27421.063     978.9819    8747.0421    95.420509    15.087625    27.913979 
 5198000    228.02566    155.69722    204420.41   -25701.994    1655.0724   -27357.066     1031.655    8746.8975    95.420354    15.087537    27.900739 
 5198200    229.53796    194.64624    204420.41    -25722.34    1666.0491   -27388.389    1160.9368    8748.1707    95.419007    15.088153    27.914959 
 5198400    226.23605    130.99587    204420.41   -25773.657    1642.0829    -27415.74    938.41928    8749.1838    95.419102    15.090461    27.910886 
 5198600    222.01935    181.48841    204420.41   -25828.365    1611.4769   -27439.842    1150.9327      8747.56    95.418497    15.094013    27.916368 
 5198800    225.17463    99.763659    204420.41   -25754.174    1634.3788   -27388.553    843.50137    8746.9638    95.417985    15.096118    27.914312 
 5199000    231.14141    214.69358    204420.41   -25703.457    1677.6874   -27381.145    1258.9026    8745.7339    95.418337    15.098344    27.920778 
 5199200    229.46722    125.97063    204420.41   -25763.491    1665.5356   -27429.027    907.16854    8747.8089     95.41847    15.098953    27.919009 
 5199400    229.71952    132.91363    204420.41   -25749.938    1667.3669   -27417.305    955.95288    8748.9199    95.419424    15.101284    27.925434 
 5199600    229.81657    137.02606    204420.41     -25731.2    1668.0713   -27399.272    960.55651    8748.2274    95.420439    15.103119    27.919593 
 5199800    224.50483    149.01668    204420.41   -25756.294    1629.5172   -27385.811    1006.1168    8747.1739    95.420877     15.10489    27.920721 
 5200000    225.46667    265.86008    204420.41   -25712.369    1636.4985   -27348.867     1425.623    8744.6511    95.421348      15.1088    27.922494 
Loop time of 6668.24 on 160 procs for 5200000 steps with 8482 atoms

Performance: 673.761 ns/day, 0.036 hours/ns, 779.817 timesteps/s
97.9% CPU use with 160 MPI tasks x no OpenMP threads

MPI task timing breakdown:
Section |  min time  |  avg time  |  max time  |%varavg| %total
---------------------------------------------------------------
Pair    | 0.23643    | 1590.6     | 5257.2     |4741.0 | 23.85
Neigh   | 0.33574    | 88.63      | 320.46     |1091.4 |  1.33
Comm    | 8.3911     | 1651.8     | 5351.8     |4464.3 | 24.77
Output  | 81.181     | 81.254     | 83.087     |   1.6 |  1.22
Modify  | 326.56     | 3156.8     | 6485.5     |4738.8 | 47.34
Other   |            | 99.09      |            |       |  1.49

Nlocal:    53.0125 ave 164 max 0 min
Histogram: 60 5 55 0 0 0 0 5 5 30
Nghost:    538.862 ave 875 max 0 min
Histogram: 18 2 2 2 16 32 23 13 27 25
Neighs:    0 ave 0 max 0 min
Histogram: 160 0 0 0 0 0 0 0 0 0
FullNghs:  5294.46 ave 20656 max 0 min
Histogram: 92 28 0 0 0 0 0 6 13 21

Total # of neighbors = 847114
Ave neighs/atom = 99.872
Neighbor list builds = 550348
Dangerous builds = 0
write_data 		${DIR}/data.${NAME}_run
write_data 		run_18/data.${NAME}_run
write_data 		run_18/data.ibeam_cooling_18_run
Total wall time: 1:51:22
