LAMMPS data file via write_data, version 29 Oct 2020, timestep = 25689

5032 atoms
1 atom types

0.0 189.98919 xlo xhi
0.0 26.9999 ylo yhi
0.21155364241145236 29.78844635758867 zlo zhi

Masses

1 18.015

Atoms # atomic

4878 1 0.9120726852062663 21.059344824991815 25.067092459753855 1 0 -1
279 1 4.108188032841553 2.428862985829548 1.0484149380454397 0 0 0
417 1 5.367825597340332 0.0668111063586392 2.738947845683474 0 1 0
78 1 11.824648816525936 1.9364190854157832 28.66196809420103 0 0 -1
198 1 9.253728087247495 2.4840325518565036 3.460390558349914 0 0 0
10 1 14.774211054084333 0.5893488098303858 1.0766142604669264 0 1 0
360 1 14.35245698187232 2.8499311173517343 29.222977789009654 0 0 -1
393 1 4.98503143938903 5.960966272874491 0.3916695589507072 0 0 0
30 1 7.611608951924296 8.225185826943223 3.2687727798799404 0 0 0
27 1 7.203451881539111 2.491553535365412 1.8423109783328013 0 0 0
7 1 11.382321661807687 6.913674243444003 28.76735727372422 0 0 -1
346 1 11.10411602752726 4.569990380737267 2.5987675375289885 0 0 0
425 1 13.289725635171797 5.207785428689533 0.5778089260686965 0 0 0
4898 1 4.199009405648292 10.50938060635352 29.620287579447332 1 0 -1
170 1 2.074504982320667 8.505099121779399 0.22365334787448163 0 0 0
257 1 5.565905149374359 10.043628236179096 2.3571152733805643 0 0 0
481 1 8.991415958336642 7.368291368040713 0.8017122456925385 0 0 0
86 1 11.236986770530153 10.585635230634368 2.903750213975088 0 0 0
324 1 10.558996390916002 10.274860216069529 0.30858002591866135 0 0 0
329 1 1.9470092272189803 11.593542254739075 3.070099999275565 0 0 0
4921 1 2.795072196443977 13.281064815459937 0.8308804714068577 1 0 0
37 1 5.5982187708636655 14.392893456891652 1.185456818876093 0 0 0
416 1 6.0918320232174965 12.721173824878973 3.224130658112914 0 0 0
277 1 8.809878917720638 12.824101397322352 3.801257471916689 0 0 0
98 1 11.91651615846986 12.582038427924104 28.707816434534436 0 0 -1
208 1 13.864672111669528 14.37719107912668 29.70572880828622 0 0 -1
594 1 13.611800438584432 10.121251752600712 0.4487190510867135 0 0 0
282 1 1.2168821982771942 15.868002802396427 1.9437428732305486 0 0 0
288 1 3.8316164384398537 16.935280520841623 0.9104377762432319 0 0 0
139 1 7.25088459562307 16.301875058885166 1.924576397969023 0 0 0
55 1 9.700648651946738 14.799462983631566 1.7751835181793771 0 0 0
332 1 10.65928267262981 17.56102109658732 1.7336371255771255 0 0 0
509 1 11.953478273262597 13.606069850985179 2.7087360895065897 0 0 0
285 1 13.11015391397323 16.36563803251757 2.7287608006738706 0 0 0
4950 1 3.862412413663146 19.508830480940485 1.9404787984042506 1 0 0
59 1 7.604930200153081 18.652402081318385 0.4676505910544853 0 0 0
349 1 7.914567236712237 20.284975118229603 4.301238115933477 0 0 0
535 1 12.815896389036709 20.773818550678055 1.4277553244650487 0 0 0
56 1 14.006579009079958 18.32393838018753 0.9597707604945109 0 0 0
409 1 0.16649605052362784 20.72549868669535 3.181688528877259 0 0 0
403 1 14.74897501546429 22.364762363327404 29.673365939626926 0 0 -1
41 1 6.36226890220441 20.610550203857827 1.983125690906101 0 0 0
72 1 6.129233212073342 23.03253358424568 0.6261608411399608 0 0 1
149 1 2.3179961590067064 26.262223809875067 0.5007761317278404 0 0 0
173 1 1.0593304097437923 6.034670691456846 26.297769968224134 0 0 -1
89 1 1.9515437596128233 25.911908154954368 5.118354178105874 0 0 0
104 1 4.279158288400904 24.47341309492563 2.247726534311501 0 -1 0
342 1 12.023629230589645 24.413948326882483 1.857798545100349 0 0 0
330 1 2.0651465963464557 5.006420248837964 5.215534226727659 0 1 0
142 1 5.186303659067757 2.1490976247657416 6.4411571532549985 0 0 0
273 1 5.637337670083994 3.58907689633656 3.789597106911427 0 0 1
632 1 9.782521166088165 1.7531503316218338 6.4073995839667255 0 0 0
542 1 15.404356312905222 13.658990632439213 8.613808919379602 0 0 0
470 1 13.536226132796358 0.9402430109144433 3.675179167616658 0 0 1
248 1 3.0574773287270425 4.682544415156644 2.59768362827818 0 0 1
293 1 2.242676292276005 7.399865465801424 2.8224791671139804 0 0 0
796 1 6.587979169368214 6.222831738511723 4.573548190384434 0 0 0
539 1 11.263104380060394 6.942160005062262 5.019642646692436 0 0 0
159 1 13.15449136131619 5.32883819016485 6.61909642212227 0 0 0
35 1 3.739402738317785 9.748588454862443 3.9946476814950063 0 0 0
21 1 9.739599475869094 9.298225568050455 4.583985004559501 0 0 0
162 1 11.891376497460742 7.680858338339874 2.376845714284234 0 0 0
214 1 12.89876143226315 9.059891911623955 6.737274521809389 0 0 0
4692 1 0.4288829555725142 9.996312344196706 18.58227579836046 1 0 0
241 1 1.761357186573561 13.354810308068917 4.982589119959859 0 0 0
4965 1 4.888048878663354 13.641540242389572 5.589416740569917 1 0 0
269 1 8.099092620120773 14.378050434356213 5.942251750186413 0 0 0
110 1 6.749306946735665 13.563441914216638 8.372657764798191 0 0 0
569 1 11.784321852041128 13.319171432942282 5.5862418622743215 0 0 0
475 1 14.014523523611796 15.035478349522805 6.4050111549638284 0 0 0
87 1 14.017210607175935 8.97289479968783 3.713942112259434 0 0 0
75 1 1.3025260851748803 15.95284735487517 4.556326513235572 0 0 0
107 1 3.9558658669381233 16.577914763910243 5.777674283787656 0 0 0
4818 1 8.759546770304011 18.231533265331088 6.19685417553536 1 0 0
4987 1 1.9782273950976268 8.758926569825249 7.325193888129469 1 0 0
145 1 2.3449594884101903 19.10552707253554 4.249424127414817 0 0 0
4824 1 6.833750689381997 16.346941525067237 4.756949362038207 1 0 0
121 1 5.324176894741593 19.17555854433962 4.844350322178608 0 0 0
308 1 12.680740944566013 17.874025314300283 5.068154824112388 0 0 0
351 1 11.040635219342 19.69850093171825 3.736472782969232 0 0 0
4625 1 1.3353222885256297 17.354819162492483 25.07448755747465 1 0 0
234 1 2.458657662333853 20.7486791389756 6.837265122050974 0 -1 0
85 1 1.891103372046655 23.278974430487736 3.6752270528397584 0 0 0
242 1 6.41772152255896 24.439004552464908 6.0940049881018785 0 0 0
113 1 8.57647101653372 23.279835253069837 4.200222712306546 0 -1 0
564 1 11.015047073174665 20.217319334433764 6.911224976424296 0 0 0
225 1 11.173711029896097 22.519112947396625 5.052383765978731 0 -1 0
501 1 13.409563112621024 22.611746500343887 3.470508661944334 0 0 0
228 1 4.6058472135802635 26.52884456428876 5.763103877636819 0 -1 0
216 1 10.949603542870294 0.8620144840449694 1.7034494099232196 0 1 0
156 1 10.264600765337573 25.60425808695255 3.715894544224744 0 -1 0
251 1 12.503768454391512 26.173015153031034 5.633082544787885 0 -1 0
256 1 15.029111159287108 10.20045047239212 12.415000627416672 0 0 0
301 1 3.4817082013888494 4.072032278455129 7.600192571432789 0 0 0
203 1 5.217313600131537 1.3769507137530166 10.204331051860631 0 0 0
267 1 7.897134331265669 1.374645772533961 11.056941112759446 0 1 0
58 1 9.097998163093841 4.688041165267342 7.843145803649101 0 0 0
69 1 11.916444880270612 3.2106397157571593 7.737447963900076 0 0 0
367 1 13.936280167144563 1.1384454104112585 7.751989652796978 0 1 0
4863 1 2.312966444373 1.1042826652155628 2.9016714085819566 1 0 0
410 1 12.583238303283167 25.391506326451637 27.591469420485332 0 0 0
372 1 7.001335159037158 6.40596219128918 7.593982111776966 0 0 0
14 1 3.857422561660046 7.106246643816092 5.706755222608918 0 1 0
167 1 9.197541266151585 5.170387538214075 5.0568424997500605 0 0 0
4959 1 10.747486309338033 7.420271028368314 8.040775044249756 1 0 0
4716 1 1.4570304127585758 7.396652936114625 9.796811701546515 1 0 0
747 1 10.252250413172781 26.461499994198864 27.259093202526095 0 -1 0
95 1 3.7677277653648455 10.812794961872665 6.719743099689187 0 -1 0
259 1 5.14771506640516 9.437753087339143 9.069172047270182 0 0 0
4793 1 8.2288599193133 10.804211550360488 6.490263011890773 1 0 0
5020 1 8.164604269036484 8.72042722053239 8.47502845601163 1 0 0
375 1 12.740243530488351 10.771479202412571 8.963951102739822 0 0 1
190 1 2.0601093831101394 12.613509134781054 8.204098689954597 0 -1 0
183 1 10.427401214029741 11.987233728311487 7.522614060815057 0 1 0
81 1 10.862375554851612 15.894849528040176 6.237611108885669 0 0 0
4627 1 0.13909067056801042 0.9268335039087483 8.10887268850307 1 1 0
307 1 0.5246950194746612 1.8446211695724548 24.553352369406223 0 0 -1
319 1 2.804111169181899 15.274152324565462 7.9059423088024285 0 0 0
130 1 7.043611457661963 15.801212488589103 10.497309950829298 0 0 0
336 1 6.1806764687995175 18.527979389155373 7.551213449316228 0 0 0
639 1 14.675176469834843 18.514120934623918 6.690330068312836 0 0 0
13 1 15.142584278489597 0.7384924110821103 16.984111447136016 0 1 0
4650 1 0.5436875652261658 19.363334817863162 8.061553931825097 1 0 0
4913 1 0.31155061017389024 16.561585034721293 8.042865722974724 1 0 0
48 1 4.743726541984594 20.55292929662502 8.69958452936918 0 0 0
79 1 11.046667981989197 16.645111555662893 9.056721755009434 0 0 0
401 1 12.386838062082981 19.143754998803097 8.901261030639414 0 0 0
133 1 15.33942109789232 21.266450097386237 7.4781277564270825 0 0 0
100 1 6.577511735972594 22.749672219500194 8.429148034073783 0 0 0
4756 1 9.079807425996838 21.606448925540644 8.56021546401313 1 -1 0
377 1 13.229636748980216 23.232541576451855 7.05737334302775 0 0 0
664 1 14.846076631344973 23.911777682121 20.277978270496547 0 -1 0
275 1 0.920534586391531 23.669492460633588 6.8099535613760604 0 -1 0
33 1 4.17974415514923 26.20043336872634 8.671059513042513 0 -1 0
4775 1 7.406823395407222 2.313381512528264 8.283331590628 1 0 0
4875 1 8.14167868782878 26.289272213240913 7.336194934529256 1 -1 0
5011 1 8.162559298626416 25.982208890928305 10.068526541022399 1 -1 0
374 1 10.83648470598635 26.089477712555748 7.892886687316281 0 -1 0
716 1 10.986413695632192 23.697196735666044 8.98280273177125 0 0 0
4755 1 1.3168402057406539 2.9941200476965375 11.854801704828521 1 0 0
4757 1 1.239851363719379 3.1556340514268366 9.184994113429873 1 0 0
20 1 4.009365994266437 1.6265765742119171 12.652457554807844 0 0 0
397 1 11.119903948439774 3.837501770362909 10.490111243294256 0 0 0
210 1 14.197795116766706 26.843486411854986 10.14744361516688 0 0 0
18 1 14.91922513241908 1.1605351979361251 12.661254713294802 0 1 0
101 1 8.822173527143775 26.327052545303946 0.2906597961315493 0 0 0
4753 1 4.915832520029673 5.663975635328674 12.457094645650681 1 0 0
169 1 4.394897493088446 6.6119985256525515 8.867493038868417 0 0 0
66 1 6.530808218054281 4.526782916657682 10.337308851430487 0 0 0
65 1 8.843944557254128 4.550479829348384 11.793468600028419 0 0 0
26 1 1.0148595331487757 10.464963421261782 11.39780193139754 0 0 0
4706 1 3.7181429443024077 8.479778394985727 11.702176528172359 1 0 0
4969 1 8.436100668600691 9.701201514042168 10.99372444731876 1 1 0
473 1 11.622084862639523 9.077077650071239 10.832105210496398 0 0 0
737 1 12.236024992981552 6.305218015926292 10.10791624966547 0 0 0
322 1 15.08135152309022 23.316976318085487 22.920941861599115 0 0 -1
5021 1 0.5609138233776133 6.614989972224462 19.000155667861893 1 0 0
230 1 14.122442037911364 25.120540774318073 29.67994077826422 0 -1 -1
4979 1 3.500858368220859 11.655060829557431 10.315289008029856 1 0 0
4667 1 2.6761855581787906 13.672412771087869 12.226237429261689 1 0 0
212 1 6.058985358315789 11.8741059361867 11.794649033438578 0 0 0
261 1 5.580682030323879 14.528601328864703 12.668422847474648 0 0 0
17 1 12.983218365176223 13.561389465928185 9.765378464478799 0 0 0
57 1 10.990232806245295 11.3304658144929 12.573751124462975 0 0 0
209 1 13.266073591687306 12.857413989709375 12.492802185387244 0 0 0
4816 1 2.7146367572293344 16.620577575699333 12.353728537212618 1 0 -1
74 1 4.438446258961867 16.96196842580737 9.650502699077387 0 0 0
666 1 8.759483358023259 12.955846806663331 11.534668882368095 0 0 0
590 1 9.64460272509587 14.006805373535695 9.215599278649378 0 0 0
333 1 12.841527855279608 16.29197203286208 11.187388569373871 0 0 0
806 1 14.837306219694959 16.742764112433424 8.987649138512692 0 0 0
398 1 1.0256999400628024 20.10648886745772 11.132157915621272 0 0 0
537 1 15.322704957572093 9.922010408171287 9.599333124146085 0 0 0
312 1 3.662367901442553 19.509112096524756 10.997641032281765 0 0 0
243 1 4.23322535827565 20.37110309021384 13.634661633953936 0 0 0
147 1 8.685299077174808 17.748129147325617 9.13233024030785 0 0 0
52 1 14.569983754148565 18.729239721383905 11.76998337189796 0 0 0
287 1 15.623199903229652 18.766495437271526 14.359514583577884 0 0 0
207 1 2.2581970537920006 23.41122867845491 11.277083427509966 0 -1 0
103 1 4.510915906217684 23.350301674558228 12.89271057179106 0 0 0
96 1 5.710040454249165 24.484955337259198 10.403573099630252 0 -1 0
109 1 9.199305129399704 19.784377471980164 10.66665666046542 0 0 0
396 1 11.690867210987355 19.918268037881145 11.659155889115166 0 0 0
280 1 12.181687669380509 22.694319331673324 12.293962745207574 0 0 0
315 1 0.8785915332795257 4.410917489991223 0.9955957853510193 0 0 0
124 1 0.5138445397634778 25.568177138435345 11.790160332428732 0 0 0
238 1 1.544179162928628 25.366109567668325 8.976818895421872 0 -1 0
4701 1 9.990892929085293 24.425747691913436 11.568904793007391 1 0 0
202 1 5.423049858736655 26.39175985119824 12.986333537066265 0 0 0
4690 1 10.94958869156775 0.8456587901596285 10.000586069454682 1 0 0
718 1 13.594990209005607 24.335529040257374 10.138492891530763 0 0 0
4662 1 2.664979368088895 1.0188339204861505 15.282862457572545 1 0 0
4498 1 5.525318190600069 3.3346666000377643 13.96819877607503 1 0 0
197 1 8.334836727250083 3.1381426299941197 14.269781403221637 0 1 0
218 1 12.657872584927674 2.8578358559767736 12.773740487521094 0 1 0
4877 1 11.119827972815063 2.4678138514530765 15.324350836755286 1 0 0
4750 1 2.1290871211860902 5.328554719751098 13.0878507160107 1 1 0
4720 1 6.669913970399291 7.450383882910382 14.06138890207193 1 0 0
155 1 13.594045283314841 5.567049185949847 13.613552451971056 0 0 0
4841 1 0.8344136104372364 8.270250973825055 13.065152169686254 1 0 0
4699 1 2.471395223599372 9.963901231101518 14.762131096322284 1 0 0
268 1 5.414275081233009 9.768569841482496 13.720361547718483 0 0 0
178 1 9.280890576233295 7.49687263283464 12.674138251751534 0 1 0
163 1 13.048469582649433 6.084514834083492 16.544103654636896 0 0 0
4942 1 10.522006898371357 7.184072399634987 15.183231468581173 1 0 0
151 1 12.804614445660315 8.520341038788874 13.37106368874593 0 0 0
4937 1 3.0177330432242826 12.863298806009196 14.915441985092242 1 0 0
51 1 10.013827364323507 10.016731673402294 15.038488060134116 0 0 0
60 1 7.180845088255238 11.101484320001575 15.283867713277651 0 0 0
12 1 14.303543034835643 11.238745032139102 15.280065134503575 0 0 0
182 1 3.687048099806383 16.040284138073822 15.119270230254218 0 0 -1
4710 1 8.668159012743244 15.599098323091678 13.005771060507977 1 0 0
187 1 8.073790218283639 15.10673848109615 15.649872553360998 0 0 0
4996 1 11.221076623138655 16.7319224488081 13.462231525355698 1 0 0
335 1 14.090378495560062 13.931337566756916 15.485138561416768 0 0 0
4910 1 0.5442958881655309 15.547455556226927 21.085427485261732 1 0 0
317 1 13.190961002543796 3.5636915449108058 3.824312640541268 0 0 1
359 1 4.874481104423159 18.543998811715014 15.513798575204618 0 0 0
348 1 7.010334974960598 20.40795250633237 12.362951294152717 0 -1 -1
408 1 10.922368952351583 19.321969607981725 14.424260744674253 0 0 0
347 1 13.831848687425708 20.466465187061267 15.56972288781946 0 0 0
4944 1 1.5839088439015718 21.454698528748334 13.811965706353853 1 0 -1
608 1 7.4764089520988595 23.18137497489917 12.637786598946512 0 0 0
338 1 8.309370517475857 22.844641276723106 15.685469364129286 0 -1 0
217 1 8.421513720042848 19.86349055878817 14.641572756985077 0 0 0
125 1 12.139286711369943 23.554214051206817 14.883591341510146 0 -1 -1
4609 1 1.1551441483663791 24.26624496501035 14.308649600805762 1 0 0
341 1 15.354379515612138 25.009723314337425 6.3005800269529475 0 -1 0
296 1 3.692913976989654 25.377081858036767 15.120335809957197 0 -1 0
387 1 7.933936406832054 0.44573518792771255 13.697455498693591 0 0 0
405 1 10.71422719003446 26.927252693348066 12.733372890344278 0 0 0
579 1 14.930855261376717 22.954584269824533 14.667361173004775 0 0 0
25 1 15.181659645733177 26.205642813026145 14.45559672775638 0 0 0
134 1 1.6966327807091197 0.8314636612256208 17.630223920076496 0 0 -1
219 1 4.775114032981646 25.707198100190613 26.949387315837622 0 -1 -1
284 1 3.9472392976081028 3.426854415918823 16.36155736129244 0 0 0
168 1 7.457202364085775 4.185788037150456 16.751906058284444 0 0 -1
4982 1 6.090778434206291 2.280573723543694 18.758733867146482 1 0 0
310 1 12.281130976542089 26.588938870743576 15.008625641608813 0 -1 0
164 1 9.408099123860566 4.22823503529381 18.724446091218876 0 0 0
824 1 12.046237371506468 0.42534288176968793 17.81691797710784 0 1 0
4872 1 1.8501809155227864 5.066923150495364 16.114506850229112 1 0 -1
141 1 3.302183026732839 6.694329725426289 17.67112615397015 0 0 -1
117 1 6.287720746578141 6.941653604170985 16.624451178639912 0 0 0
53 1 13.593789800983755 4.209828306698635 19.54441335347942 0 0 0
258 1 11.70035659051968 3.599407646504793 17.493248207184454 0 0 -1
245 1 2.924216810866897 9.463219253708937 17.36619010873013 0 0 0
353 1 1.1959884528338405 11.340081674115998 20.91075316036344 0 0 0
300 1 8.8464918014313 7.820263267071802 17.271869212203146 0 0 -1
4900 1 6.809362489920988 9.837472251798108 17.593299873860534 1 0 0
388 1 12.823837889109697 9.094653298107046 16.501061125042426 0 0 0
471 1 14.051540179317836 8.98772476161618 18.940467280737742 0 0 0
4741 1 1.04402196920728 14.189570247965522 16.881503606234755 1 0 0
201 1 5.699997646028618 13.594267299189426 15.662445772010518 0 0 0
4682 1 4.468822222524988 11.588392984791357 19.04868030360859 1 0 0
264 1 6.091454312967237 13.840205861728087 18.43647211044056 0 0 0
274 1 10.903271236651308 11.02535888010094 17.860535300953813 0 0 0
325 1 12.51702642657625 12.746729636481156 19.927467070877423 0 0 0
180 1 2.624442614911658 17.050734104479623 17.520752701059305 0 0 0
4981 1 4.5677698695679 15.862847653612242 19.338528994638857 1 -1 0
384 1 10.367121475558715 15.717127075221459 19.99159980794957 0 0 0
295 1 11.735527016722198 15.704192285923911 16.17358817857904 0 0 0
326 1 9.946487121482804 14.036024321871883 17.522910548327033 0 0 -1
224 1 14.189500005166558 14.023933433838753 18.16848882351315 0 0 0
62 1 4.088102024139481 19.407169240939613 18.165170621065364 0 0 0
83 1 7.320949756858576 17.82386210983043 16.349873430241587 0 0 0
144 1 9.280658893067901 18.12605983380681 18.652749352500376 0 0 -1
226 1 11.840988997565512 18.682816726802404 17.36787302541815 0 0 0
99 1 13.171690755361205 16.605567491684383 18.802745700750393 0 0 0
73 1 1.8627364155005193 20.960837720219775 18.42574334396772 0 0 0
137 1 5.357554387923241 23.69779996881183 19.4695777399517 0 0 0
158 1 6.245137862582753 21.830925139018902 17.78574618317114 0 0 0
302 1 10.720758076483081 21.713822756873416 16.396872868668307 0 0 0
413 1 14.851962974736297 20.104726172586517 18.155507579786615 0 -1 0
4835 1 0.3711222084698721 1.771645356314548 29.761030495177074 1 1 0
231 1 5.519018471049235 25.663006118479764 17.41067039811312 0 -1 -1
140 1 3.9801034111315867 0.26127718650790144 19.070386785163564 0 0 0
4977 1 7.87435657235301 25.790491429102303 16.244732822113814 1 0 0
411 1 9.439538881952961 26.275532217813613 18.594518596665182 0 -1 -1
404 1 1.320012169544716 3.3937262596840476 20.263050064686805 0 0 -1
4731 1 2.3075828880669906 0.9137730200484174 21.835627181234 1 0 0
732 1 4.165666496125842 3.6716044054481682 19.900890367710613 0 0 0
4920 1 4.473051314249254 2.7576945150157672 22.51579633562328 1 0 0
343 1 7.7132866176499455 1.1712511455103036 24.347289468774257 0 0 -1
4781 1 8.86649475625347 1.6635428872812352 19.918915187219426 1 1 0
448 1 10.756118284098063 1.8148343916952223 22.12306159882269 0 0 0
687 1 13.732413919116226 1.8730007495284515 21.427678313884407 0 0 0
153 1 0.32424339885177017 5.595388378727601 21.800247643085044 0 0 -1
191 1 2.8907530967981803 6.839191183991574 22.38186073640082 0 0 -1
272 1 4.411839802361834 6.4443128455476035 20.16896742904185 0 0 -1
363 1 6.953307702412543 6.505263314263725 21.221410914921506 0 0 0
376 1 11.90617630050937 6.341886800387662 20.88318498381592 0 0 0
262 1 15.153479536173 6.520643372440114 20.377016024325687 0 0 0
29 1 13.98794813591775 7.590887142204391 22.79479695487361 0 0 -1
4886 1 4.723790938752083 11.040020529813857 21.6407080906855 1 0 -1
138 1 9.457566362305244 6.908585457148974 19.955179158931333 0 0 0
148 1 9.065031265510783 9.332359159434803 21.475721587295915 0 0 -1
802 1 11.959665312356933 9.206675077730175 22.650601243982198 0 0 -1
129 1 2.372500469100926 13.568512904755483 19.36737219695049 0 0 0
92 1 1.1005277998624017 12.504505047840238 23.765816075559428 0 0 -1
172 1 8.417569825550949 13.44560252781445 20.081260095765675 0 0 0
395 1 8.657010319496946 10.952351592500674 19.221068882292425 0 0 -1
54 1 13.939572962699714 10.902567002313603 21.07166881262095 0 0 -1
294 1 3.339228668958955 15.387967604731022 21.908043549068744 0 0 -1
222 1 9.528468822761015 17.180799070007872 22.167153541740728 0 0 0
23 1 12.208388327891381 14.781037020938939 21.942089643397654 0 -1 -1
381 1 13.863827161032843 16.85703042964722 21.84368061553661 0 0 -1
828 1 15.008193948025644 7.507597684421707 7.1836189295730515 0 0 0
131 1 3.651097912056381 17.800793390083832 23.422732552011272 0 0 0
2 1 6.48120896101674 17.94770017649304 19.52770364739775 0 0 -1
331 1 10.004812644715878 19.741920095440488 21.052031915264035 0 -1 -1
337 1 14.991701122710039 20.4600062525326 22.194758283772398 0 0 -1
6 1 5.959640197956517 20.61472888068557 20.66006266929923 0 0 0
406 1 9.004932786721103 21.78134585744868 19.14146702433896 0 0 0
323 1 12.740879371518785 19.705295272781697 20.4971013814721 0 -1 0
817 1 12.29670153773867 22.118192238570476 18.836905296534464 0 -1 0
4891 1 0.5549707400883624 2.171239017896842 5.351709875950563 1 0 0
4641 1 2.614022296805625 23.580936443309994 19.72520654076432 1 -1 -1
82 1 6.013523095436413 24.98712017860049 21.794488805882974 0 -1 0
286 1 2.623188813670365 25.086237304472004 21.962374654235727 0 -1 0
657 1 10.164311684450949 24.069747974786118 20.066054699587603 0 0 -1
327 1 6.640721551231191 0.6475104645852398 21.835062955805142 0 0 0
412 1 9.690712220844656 24.06406664434658 22.842610025718113 0 0 -1
152 1 12.22957800437486 25.870136387112392 23.345282986249735 0 -1 -1
50 1 12.842437763528023 25.961672706178966 20.46860383196029 0 -1 0
418 1 3.3423675992950757 23.614713491013553 28.609121739060527 0 -1 -1
239 1 2.2619785834987836 3.9324774857935454 23.722975446284032 0 0 -1
373 1 10.583752991762625 0.7764537081934316 24.718513860337854 0 0 -1
106 1 7.620874253608854 4.00657183068574 25.356660635763827 0 0 0
165 1 14.42597252824243 3.177780012399653 23.81882187570237 0 0 0
583 1 14.567035644544754 2.0877449104852674 26.373435823583776 0 0 -1
392 1 5.651663680247173 5.257865988270693 23.271677139865947 0 0 -1
229 1 3.840069249604903 5.408459620178424 25.520746126991963 0 0 -1
63 1 11.13874652744407 4.5407372238117825 22.866583475346452 0 0 -1
461 1 13.223828548250713 5.515259742784343 24.973986875159213 0 0 -1
250 1 0.02275983228317314 17.626534099932393 12.278799809229156 0 -1 0
533 1 8.722050866914708 23.641126303626628 1.2848606679303383 0 0 0
195 1 2.5936648613125177 9.669331456165754 22.715716633538776 0 0 -1
321 1 2.518416858254983 10.287891354641308 25.3505546521267 0 0 -1
320 1 7.339989767975364 8.799662038656072 23.582113789390764 0 0 -1
298 1 4.716046800212953 8.112235414554897 24.80640225881251 0 0 -1
32 1 8.824971774015388 8.313798300741574 25.84744934848381 0 0 -1
479 1 3.964744586958671 13.10774186838797 23.319323163888313 0 0 0
4893 1 3.814599237442288 12.918535719679667 26.223678563169912 1 0 0
122 1 7.0350161226907675 11.483118558026653 23.899802626787153 0 0 -1
105 1 8.350525567121412 13.840933604102164 22.720701474449097 0 0 0
503 1 12.701319239931095 12.06584488611201 26.109711589477367 0 0 -1
67 1 11.763980021209212 14.381257294649563 24.601355478573968 0 0 -1
380 1 3.013749640835432 15.604515192070963 26.283524380629128 0 0 -1
160 1 6.142150851722202 15.330036049132266 23.693132551131736 0 0 0
355 1 9.554290914475748 16.490064858404857 24.66284661718598 0 0 -1
188 1 14.018429090746766 16.423387644298806 24.862250565642835 0 0 0
4695 1 1.2600280993480695 21.95177790864462 22.370170657558564 1 -1 -1
61 1 6.8592742433888 18.08954017667547 22.689496759828142 0 0 0
42 1 6.87109434140942 19.744549632251015 25.07235256883348 0 0 0
36 1 4.726410824668004 21.370994374935904 24.83471909606476 0 -1 -1
4 1 10.965767185448977 18.72523887330381 25.74772672840012 0 -1 -1
126 1 12.059686618595054 20.349607206769036 23.45752919333131 0 0 0
532 1 13.861542110144466 19.245392999119236 24.946643019508898 0 0 0
385 1 11.063078698458085 22.15863113165882 29.48987135768416 0 0 -1
247 1 3.8167388271037272 20.499098218395872 22.542588075545137 0 -1 0
4949 1 1.7883691246117102 25.391596556037225 24.873434169244273 1 0 -1
306 1 4.457137805922734 24.294362414590253 24.066817561907776 0 -1 -1
237 1 9.131435359951245 20.971919739651526 25.492897699952636 0 0 -1
166 1 8.09537049252889 21.400522212139986 22.414106395097384 0 0 -1
365 1 12.007550464868297 22.825753813986672 26.95540862100842 0 0 -1
123 1 12.206436887637638 22.81068691364413 24.009710936263883 0 0 -1
11 1 6.9267380384290655 25.595980828396055 25.125990101957306 0 0 -1
526 1 9.049088927592653 23.689276468031924 25.882585536734286 0 -1 -1
127 1 14.016526843482772 26.382390266993553 25.3744644764825 0 -1 -1
90 1 0.430696198554007 25.21380594709623 18.447598116969857 0 -1 -1
154 1 2.7133743224952043 2.090354948566589 28.326415045092368 0 0 -1
143 1 6.222578609795469 0.23377571495590563 28.966900998337373 0 0 -1
3 1 9.846344497750561 5.637899815320413 25.43733068464212 0 1 -1
366 1 11.615024372203889 3.0813098408093933 26.026551471675578 0 0 -1
263 1 15.503636070273005 3.7096509210092385 7.9026609478784335 0 0 0
136 1 1.2409684231151636 23.43326093309327 26.56886667034535 0 -1 -1
4968 1 2.3973322637334658 5.894365604452256 28.796776769155382 1 0 -1
4907 1 4.8282045144942165 4.240385156070675 27.720712081049697 1 0 -1
200 1 9.9961055631246 4.573937592290529 28.28666118082108 0 1 -1
303 1 7.241817865884955 2.9797747577573834 27.896017013961725 0 0 -1
38 1 15.802055971105887 6.598197175491411 25.65059181178162 0 0 0
4850 1 7.605653149515961 4.9664772788298395 0.4225608219723418 1 0 0
339 1 5.687882369421981 9.782383677809346 27.400045984207914 0 0 0
19 1 8.236534417575644 9.25266287922272 28.20107649045913 0 0 -1
819 1 11.360010393907972 9.506354316131281 25.432021618896375 0 0 -1
477 1 12.997695530319689 7.97254830784873 26.797480676934832 0 0 0
194 1 15.440433344843774 11.578182442675185 26.37727243762371 0 0 0
641 1 15.330548090726161 9.327342311958285 27.688701240992724 0 0 0
278 1 1.218414337123943 13.74869820255919 28.06658758600582 0 0 -1
407 1 6.823923846165357 13.958947617484007 28.39003971207865 0 0 -1
361 1 6.382512578047943 12.15151299919272 26.458729919077072 0 0 -1
414 1 9.635007870849343 14.64468178163394 28.510829672407453 0 0 -1
391 1 6.407146636687338 18.261338848408617 27.51941922781071 0 0 0
146 1 3.8768893788741075 17.424267624143077 27.913681573274328 0 0 -1
84 1 7.285060836559811 15.788097536038821 26.241052380244717 0 0 0
64 1 10.704739854730384 17.3714796647249 28.5650988313656 0 0 -1
438 1 12.950870092681036 16.075580035644535 27.6204641238115 0 0 -1
371 1 0.06726129344612412 8.866478479001584 25.991825227966785 0 0 -1
189 1 2.7701285917412775 19.900450202772202 26.82284117760376 0 0 -1
91 1 2.8296849328403475 0.49778602033864494 25.893870144714544 0 0 -1
46 1 9.55722276847354 20.251185485097892 28.343279150492524 0 0 0
441 1 14.965456312461288 18.292210322309547 27.926109747251953 0 0 -1
102 1 14.549240991444206 21.169886331253547 27.234720599562976 0 0 0
157 1 14.953886401689694 7.057664360114844 10.078028034358782 0 0 0
5028 1 1.154846035566451 18.346078329818287 29.643034121544368 1 0 -1
314 1 2.3839434353849605 20.9912703028982 29.473197728810845 0 0 -1
255 1 6.241084498593989 23.05652818537651 27.268515542572832 0 0 -1
783 1 14.722304569903171 12.446275127338787 2.5681813600577326 0 0 1
304 1 14.97045159137494 7.569902873053973 0.9249083398593786 0 0 0
631 1 15.71417477978025 15.628820798578957 4.195281876879761 0 0 0
580 1 13.923116146278302 11.461540339474302 5.20512414308686 0 0 0
45 1 15.11246168240923 22.31334078940919 11.918241048892726 0 -1 0
813 1 15.744956689829822 3.23020741004817 17.847284554174948 0 0 0
252 1 15.466031747951597 4.669081425896905 3.1425268068677914 0 0 0
4807 1 0.36145017733539947 1.1221340701995048 13.72749333643023 1 0 0
43 1 0.39138969250971883 19.790245813808767 16.327326376228662 0 0 -1
4971 1 0.04175057739014389 24.89782106817046 0.7925041452064389 1 -1 0
233 1 0.47120904344823267 20.27734047676076 20.587611313836845 0 0 -1
132 1 19.827421147560297 1.152920028570935 0.34405117040184396 0 0 0
541 1 23.536606330322652 2.9176999775723567 3.885688602994457 0 1 0
742 1 25.302432188337693 1.1183535345567266 4.895423742298087 0 0 1
1191 1 29.793737297206007 2.7694147972633383 1.934242772974543 0 1 0
500 1 18.554166598883917 6.111227326953376 2.041374021851448 0 0 0
276 1 16.895671810054854 14.243585374770321 14.90690648363551 0 0 0
714 1 21.276178904894934 5.488886023501637 2.323690076105801 0 0 0
254 1 24.85119714286224 5.274393108727469 3.184161707362611 0 0 1
722 1 27.90453365228754 4.847349977093285 4.26349395595784 0 0 0
1163 1 30.20066351256932 5.907883614399562 2.803052979612112 0 1 0
313 1 17.653476279094964 8.215899961733948 29.250612294385615 0 0 -1
751 1 16.65180147596687 10.756414746501823 1.1768079270617529 0 0 0
510 1 20.34700231806197 9.035036693147461 2.9072747960115786 0 0 0
678 1 23.472694008805643 7.4715162425536805 1.7423783363753707 0 0 0
743 1 22.368623023268242 8.230689743714889 5.076097729795306 0 0 0
685 1 25.462253025884102 7.676397721755902 5.129966376004268 0 1 0
699 1 18.44545896209471 12.605266517749028 5.949250326498072 0 0 0
454 1 21.217063292031863 13.518561006255972 4.587386358715371 0 0 0
731 1 24.727019230991427 15.381973473836961 0.7701190819923767 0 0 1