LAMMPS data file via write_data, version 29 Oct 2020, timestep = 35689

2531 atoms
1 atom types

0.0 189.98919 xlo xhi
0.0 26.9999 ylo yhi
0.21155364241145236 29.78844635758867 zlo zhi

Masses

1 18.015

Atoms # atomic

305 1 46.336796044394845 5.548194834734 23.748542930533166 0 1 0
85 1 46.43090313077181 0.6321156920680706 8.721007763587737 0 0 0
121 1 46.49946820082455 18.812487349136486 10.346277382195584 0 -1 0
117 1 46.114260555003405 16.212743208803754 10.731645508004668 0 0 1
48 1 46.98025417441632 1.588523608152945 0.4175346173476472 0 0 0
412 1 47.15651759853525 15.749663832207663 13.060728615130191 0 0 0
148 1 46.16618602896095 4.326251374179853 13.400043576207926 0 0 0
80 1 47.124034434202514 14.30440205330992 8.597842719205012 0 0 0
368 1 46.741938454175795 4.081406803688713 21.61819680843378 0 0 0
151 1 47.29691397311373 11.320756384921971 9.520791749335544 0 0 0
209 1 47.26010416694662 24.582979355978264 14.391349204619107 0 0 0
413 1 46.8721364013123 5.129027814190396 10.590281300611403 0 0 0
278 1 46.2801791569814 8.384909540150646 24.017961827339292 0 0 0
243 1 47.30925663849158 7.123241141953035 13.847189651489415 0 0 0
298 1 47.46895642173091 26.594995953634058 23.674728610107575 0 0 -1
18 1 51.08264143774507 2.8726644107651755 2.687164009306881 0 0 0
84 1 51.90747830278873 1.183003814378131 0.7142938935564825 0 0 0
37 1 54.63854131235402 1.2996456413877946 1.1226100308059834 0 1 1
372 1 56.12808908333903 1.0531315587069263 3.2643122202799097 0 0 1
55 1 58.409204913208086 1.2908910019116528 1.8137720546538247 0 0 1
158 1 47.68411382653543 18.025485739218276 14.626578788272731 0 0 0
51 1 49.18966765279225 4.258762704062801 1.2545095312563228 0 1 0
4 1 60.15681374293052 25.822860398514823 0.5308590571872003 0 0 0
153 1 53.6667436210633 6.051568224143478 1.80602628040508 0 0 0
54 1 59.467136796972326 4.257769708893738 2.226801418184572 0 1 0
65 1 61.08090661369424 2.6221718317933913 1.0768513110538316 0 0 1
100 1 48.85440875596823 7.118426683476449 2.0682384271497973 0 0 0
111 1 48.29352545463823 9.305271119345905 0.4455831628494865 0 0 0
57 1 52.237691090275256 10.291924371682992 5.675130265339075 0 0 0
62 1 51.576573132905125 7.909631490504102 1.8001368002869285 0 0 1
14 1 55.36173064791664 6.556727980207818 3.765233444620992 0 0 0
68 1 57.582968524382245 6.8276432325048955 2.2147967634462264 0 0 0
480 1 60.68805454000169 8.225556980429063 0.3461331741813603 0 0 1
350 1 52.288447684633 23.808598770888405 28.338721172630823 0 0 0
27 1 49.255521559025055 11.349386481447944 2.1092965722041725 0 0 1
19 1 51.48043483207351 12.764125483649307 1.3276429387861481 0 0 0
106 1 53.54420372696442 10.619390489316999 1.3326592856275066 0 0 0
20 1 55.82591224801353 8.800568744796891 0.4216737406922428 0 0 0
392 1 57.45169697451275 10.968469605714466 29.463700145114906 0 0 0
447 1 58.0797185537724 11.545658833053215 2.779034141308904 0 0 1
119 1 60.5675637064933 10.549908697854796 3.537037018207583 0 0 0
82 1 51.57935447639942 15.825958884054698 0.9906472222813222 0 0 1
49 1 62.90665811603067 26.715193644525687 1.0040450176814695 0 -1 1
29 1 57.5803065727164 14.217186104305544 2.0588856019082264 0 0 1
123 1 54.71208412726765 13.374669515258782 2.02703804109669 0 -1 0
61 1 58.655692225152144 16.20079627479656 3.9128930333127516 0 0 0
24 1 49.36435127621952 17.533236682401775 3.6402456237226084 0 0 0
67 1 51.40893566898469 19.221904685130383 2.333325686665652 0 0 0
131 1 53.39281478633057 18.794403856233384 4.149587240420202 0 0 0
31 1 58.34972456022163 20.22379683480529 28.73511655191871 0 0 0
434 1 55.69199269966977 18.797361145373113 2.438232041744502 0 0 1
806 1 61.04991187284229 19.722817562734136 3.522288473908983 0 0 1
355 1 50.203055778780545 23.54950393421675 26.572139670693296 0 0 0
74 1 52.57806182690697 21.142193193552142 29.712002853463567 0 -1 -1
175 1 56.360241691363896 21.408041612922595 2.9132970569702072 0 0 0
38 1 56.54373512456985 22.560160706680776 29.668726174547995 0 0 -1
405 1 59.033540819120766 23.29388400746651 28.802696488476023 0 0 0
394 1 48.134080019810334 24.913473093810723 1.6383764177909665 0 0 0
36 1 50.7384346064766 25.68054409525694 0.3685613021005571 0 0 0
39 1 51.68329082972102 24.093792105348072 2.7788734339737977 0 0 0
96 1 54.72716620712395 24.767180132640558 1.1347340659878982 0 -1 0
3 1 56.202490769289255 25.17172491862159 3.4518175846753474 0 -1 0
47 1 49.495716515289175 1.783178329865568 4.651196926465142 0 0 0
89 1 56.329311602770936 0.6696099147275173 6.74448735334274 0 0 0
191 1 58.9018178938439 26.610900333156387 6.414966092181401 0 0 0
92 1 60.24691963165891 1.0773512927676843 4.289128178830041 0 0 0
52 1 52.68069699265414 4.626591452561878 4.118526643087061 0 1 0
6 1 51.66357883091471 7.270185829560514 4.618643778387496 0 0 1
102 1 54.74780778476498 2.740154150628034 5.165992280483197 0 0 0
60 1 56.18896851367217 4.99600143484582 6.137721639497826 0 0 0
134 1 60.3646828161547 3.842936723639586 4.656503675577596 0 1 0
56 1 47.52637999863459 20.412014229130587 21.6672112122954 0 0 0
139 1 48.900089881053866 7.692562902874641 4.706523539716112 0 1 0
103 1 53.68660494184225 8.647757221453826 7.706045153648155 0 0 0
66 1 60.2440610261355 7.686531410187859 3.2113670058641604 0 0 0
108 1 54.29878965476254 9.320811314106027 3.6382539911158864 0 0 0
826 1 62.33350421407371 5.98162106325121 3.3954732613043377 0 0 1
63 1 47.76300521768003 16.326990738901962 1.956592851580498 0 0 1
125 1 47.540081774229286 22.96886332661609 7.94810472356531 0 0 0
77 1 56.26000380146855 11.037903539555412 4.710374289259356 0 0 0
330 1 61.69841521226848 12.154351250606915 5.6743991056530465 0 0 0
105 1 49.119972842157246 13.886932825009378 5.339055358023514 0 0 0
69 1 51.70185298871875 13.248072907520326 4.229693657875852 0 0 0
168 1 52.8560686124291 12.710545825531577 7.384569916392557 0 0 0
112 1 54.52024357330768 13.620493842519181 4.879493454421194 0 0 0
453 1 61.53733435096556 16.877068713256858 3.773950606987606 0 0 0
536 1 62.78109612446671 16.04620790944641 6.222715323966933 0 0 0
334 1 62.416229892151044 3.8184913410370833 26.369580478220566 0 0 0
128 1 48.422140287920186 15.971309024080556 6.8260769541080775 0 0 0
124 1 51.680328839331544 16.302429733774733 4.323570474748755 0 0 0
42 1 53.597359782723075 21.585907768342874 2.9412203493445355 0 0 0
35 1 58.75535703750063 20.985362533565336 4.597459475178968 0 0 0
225 1 54.72829766738145 16.498898751846998 5.836674505484302 0 0 0
75 1 56.91151981734029 18.26083680648381 5.115253695962226 0 0 0
389 1 48.90443576346724 20.708496672990755 3.599453747957803 0 0 0
28 1 49.671850637084184 22.661876383172444 5.792527803352442 0 0 1
33 1 55.95142239155753 23.408794948254396 5.607071622650456 0 0 1
173 1 54.225229437592354 21.13082980323157 6.284939415937507 0 0 0
122 1 59.00824516146851 25.563604925283403 3.243649602421668 0 0 0
357 1 60.59775028277959 23.355945448815923 3.8619621054412145 0 -1 1
347 1 54.65455581861073 17.08982818577292 27.992194246586735 0 0 0
81 1 48.31359624595303 26.202326848670253 4.180755871117813 0 0 0
91 1 50.74173917413507 24.970330502143305 4.886957477544323 0 0 0
187 1 58.668252518619276 23.884389093304748 6.1450948011325055 0 0 0
44 1 57.72098493702108 24.94254970407343 26.454174136526667 0 0 0
23 1 49.94250941758273 3.3410724229950017 7.087215638473056 0 1 0
414 1 47.96487025644631 20.140815326276513 8.099487495241673 0 0 0
184 1 52.28181558392912 26.348331484376107 6.747135609947002 0 -1 0
8 1 51.27150081973184 26.172205107554415 9.3420033692971 0 -1 0
242 1 56.232713323771264 1.7514854745436212 9.596575095521313 0 0 0
231 1 59.160373795074385 0.927897115771521 9.033021603208377 0 1 0
130 1 62.66651428469577 23.0732749823367 5.798393697823326 0 -1 0
141 1 48.43799793653407 5.730241399018909 7.152534785167807 0 1 0
133 1 52.250426089751485 1.9761290797825408 5.929195101908334 0 1 0
146 1 58.81983820110348 4.991442429115795 6.863317647966417 0 0 0
135 1 59.92018774793496 3.6773861146444133 9.289213462631148 0 1 0
516 1 62.33043360176232 2.585657497024674 8.751580714193592 0 1 0
142 1 51.9823489599409 6.616471763425896 7.272067376620193 0 0 0
88 1 53.03834660522237 4.166819815537771 7.876447836260546 0 0 0
109 1 56.103232057499866 7.253857744670311 7.643567996402902 0 0 0
113 1 57.81949868255413 9.290714954013549 6.706516937553004 0 0 0
104 1 59.85603430770774 7.521022325349147 6.19196798265497 0 0 0
167 1 48.484928452453914 11.514816699814096 6.802656002473989 0 0 0
147 1 49.578469579960036 7.884501330486488 8.884427039542517 0 0 0
150 1 49.67078796851934 10.248423792278018 4.751203021949963 0 0 0
157 1 50.62249877404699 10.765846431472353 8.33128620618522 0 0 0
234 1 53.51124398126446 9.913779425221264 10.075653327194102 0 1 0
244 1 57.50636356175568 11.754875530935362 10.850187299957932 0 0 0
572 1 58.82322947946229 11.047411696336846 8.422614834697512 0 0 1
571 1 61.763748878006275 10.385189039831095 8.06906170810061 0 0 0
99 1 47.91981147750792 9.8425015413413 22.186936955606615 0 0 0
403 1 48.69376307468749 25.911452444289566 26.198979159006118 0 -1 0
76 1 51.63498456754998 15.028230168519631 8.753534162481126 0 0 0
16 1 54.095277112679256 14.785405202395697 10.296378368539402 0 0 1
94 1 57.1011699003342 12.714354088263358 7.04958687157993 0 0 0
159 1 58.40678842100292 14.938259495224248 6.31691075333758 0 0 0
107 1 60.804939018084525 14.595551560763154 7.226607089680584 0 0 1
190 1 48.897095657513276 5.518236079708547 15.484852686406036 0 0 0
127 1 51.1183832339905 16.932075106372103 7.153384940936654 0 -1 0
227 1 50.44192873702506 19.22385098565237 8.797139033948604 0 0 0
217 1 55.52311769083729 17.06841758605499 8.34892247207942 0 0 0
493 1 60.42314495221236 21.078480457306526 9.584670587571441 0 0 0
362 1 62.34668476184275 25.521175265845457 25.909474740298617 0 0 0
129 1 51.47473233862509 21.52645100138023 7.509191299089258 0 0 0
219 1 55.647306232290596 19.942593665972627 8.36144875212814 0 0 0
445 1 58.18781149177487 19.805938471395606 7.473221383537814 0 -1 0
5 1 62.3599063717471 0.5843116483452674 28.05687818400341 0 0 0
319 1 51.709577461624775 23.466225405427725 9.353094949419788 0 0 -1
230 1 55.08285820003995 25.505744768618776 7.199046420255096 0 -1 0
165 1 54.461496877439274 24.246748595187952 9.777278242250034 0 0 0
182 1 61.36085391235782 25.494910399152072 9.065751511641468 0 0 0
95 1 60.72942898090718 23.14245402488765 7.526887700577599 0 0 0
115 1 48.81251696539454 26.587445756956317 13.103423637589854 0 0 0
178 1 47.9918149335097 2.748444327087993 9.987435331472943 0 1 0
271 1 52.208462010512655 1.0399362111125439 11.216403571576976 0 1 0
291 1 54.74278015012375 26.865285939860925 10.77240363174237 0 0 0
659 1 57.613624103397406 3.2196875758915744 11.975843810556336 0 1 0
292 1 60.03612659529938 0.05395684230179966 11.558582386405458 0 1 0
338 1 61.66694032136356 3.4701594961400963 14.476071017840626 0 0 -1
179 1 50.92954623626458 3.4763140874011547 10.146661169223375 0 1 0
501 1 60.77762425581419 21.912201779668735 1.4765106721273225 0 0 1
415 1 60.286463560326766 18.62260495944304 1.1343126032596789 0 0 1
171 1 49.89685651368319 3.310438626496493 14.430647881651124 0 1 0
193 1 53.67806783345093 4.272396057548051 12.51260143689424 0 0 0
192 1 54.57423957748736 3.849991694672976 10.104834189912097 0 1 0
143 1 60.28591780426686 4.533820733018409 12.053018199657854 0 1 0
821 1 60.78872538311848 7.74912760632601 8.831988708718063 0 0 0
114 1 48.750789259485316 6.971925219388975 11.353876088872104 0 1 0
238 1 50.634340325464805 5.197794901212115 12.277178107394677 0 1 0
140 1 56.14280881664837 5.902463688261565 10.048619367984166 0 0 0
207 1 54.776532994378044 8.047187421214774 11.470552956847891 0 0 0
261 1 58.4441625150591 9.148343958557998 12.095078915500116 0 0 0
286 1 58.91499290548492 6.589014500888346 10.600090208849966 0 0 0
101 1 48.31944498167881 9.986535409282299 11.836344114571117 0 0 0
204 1 51.45878071973967 12.863856669291799 13.409588729281344 0 0 0
97 1 51.00926732056278 10.781572038194772 11.484166506236296 0 0 0
152 1 55.097432383724275 12.286182024804674 9.031040198833256 0 0 0
176 1 59.75276875477045 13.685680278519111 12.124576677043823 0 0 0
145 1 49.56236872130867 13.095947165363066 9.77742647370935 0 0 0
210 1 49.75970784470787 14.863782304168474 12.078915282252975 0 0 0
116 1 54.169680981973 13.98770807525272 12.926151151351185 0 0 0
205 1 56.327420553164885 16.62191012526248 11.234277769939203 0 0 0
622 1 57.09702929053924 14.752415751574237 13.180121950848813 0 0 0
404 1 58.181738909419295 0.48442871581221564 28.711319831383612 0 1 0
677 1 60.9198683228467 15.235325296862062 9.889775559530731 0 0 0
265 1 51.378166942046775 17.282747768654826 12.656932723632387 0 0 0
212 1 53.87754979488407 18.11687552264781 12.322300013823224 0 0 1
170 1 58.246396908119216 17.190591768124666 8.445946136685713 0 -1 0
590 1 57.97558409931512 18.887535674846788 11.857604939723076 0 0 0
541 1 60.41896570642837 17.548862958727508 11.101281843580612 0 0 1
164 1 48.01615813534933 19.763385747671055 12.410744559590382 0 0 0
223 1 48.487997575640705 22.563848022192396 12.97595044697086 0 0 0
73 1 50.605390485245756 19.71939337787285 11.622112028238211 0 0 0
166 1 52.01347643491939 22.16941266678567 11.875078780695505 0 0 0
222 1 54.27107025016719 20.73206414373738 11.845147241119136 0 0 0
185 1 56.00519092583404 22.036462325885378 10.222091690446472 0 -1 0
188 1 58.49307316726487 21.331198340108465 11.719818719381697 0 -1 0
79 1 52.29205963719525 20.573994304581504 26.61062236975275 0 0 -1
599 1 62.65796523138963 22.252592820949747 11.0351522296588 0 -1 0
224 1 48.36637915608074 25.925624185059043 10.386490902283118 0 0 0
126 1 48.91957067576464 23.217898354641633 10.320915893652515 0 0 0
312 1 51.56853184672348 25.76277734371951 13.54419385955021 0 0 -1
180 1 61.80895824105181 24.731183398455126 12.56504306787436 0 -1 0
83 1 47.86608875753699 2.2900154303453646 12.80137011183246 0 1 0
270 1 52.40719622646958 2.029666258962689 13.79878232460495 0 1 0
274 1 54.355348177288654 0.6522239099304976 15.304137593426853 0 1 0
272 1 58.727683619495565 2.146072555411172 15.97570050889428 0 1 0
226 1 58.030170195662535 1.0210681183776165 13.561375437504795 0 1 0
40 1 62.117533119821736 18.906007248080112 9.778744670444764 0 0 1
407 1 49.816792254964746 22.529234542558143 1.3834745850098191 0 0 0
333 1 56.156994160517534 4.582288009687303 14.145051807032125 0 0 0
321 1 54.354572644903826 6.598332335003104 15.568997577555777 0 1 0
280 1 58.7331480657908 5.799926650819007 14.004899000931447 0 1 0
707 1 62.42160797573659 6.595734926426941 12.548701802890482 0 0 0
241 1 60.87732795255164 3.781215435918715 17.177422839036183 0 1 0
524 1 62.66541568244437 8.960480286227023 5.254864526670812 0 0 0
186 1 51.34661321674241 9.207631410199564 13.837155177641634 0 1 0
295 1 52.850824583337655 6.87356823256514 13.123581989586969 0 1 0
160 1 56.44993148265091 8.538697167674972 16.04077276715554 0 -1 0
410 1 60.525092126930815 8.651280552768572 13.521657811548927 0 0 0
197 1 48.2646566988841 11.741948508486011 16.968603673224237 0 0 0
198 1 48.69358808545129 9.870363372796165 14.726417257787844 0 0 0
206 1 49.86027063578902 13.531425901395565 19.01613967609902 0 0 0
199 1 52.58200295790332 10.972479747436667 15.990722489562067 0 0 0
268 1 55.170995337417516 11.851796242007216 14.460963571096208 0 0 0
200 1 56.2112026091098 9.314770336375748 13.500897604480201 0 0 0
213 1 59.1898535995644 12.448193770099111 17.87328854856594 0 0 0
529 1 61.27802503274828 13.23537948822691 14.29810625833342 0 0 0
624 1 62.23766907658162 10.657162723996267 14.399157015613852 0 0 0
71 1 48.77874686988891 13.421766634653201 14.756419412860023 0 0 0
264 1 52.495048357205505 15.61958873873686 14.737257249409465 0 0 0
249 1 50.36364502925001 15.125516153307844 16.704390150808926 0 0 0
254 1 55.43644602843618 13.149037615545458 16.63208339712563 0 0 0
251 1 60.961121340229965 14.22015269055834 16.84830365514332 0 0 0
653 1 62.90912151733152 16.465671546808316 16.879264270620723 0 0 0
390 1 48.95487146274762 21.76913520272209 28.322839356887197 0 0 0
137 1 50.18834713508756 17.61542576305833 15.58490084622273 0 0 0
214 1 54.699369221232125 17.6396908997358 15.10384118732733 0 0 0
584 1 57.198250504161464 18.903765488174205 14.330757517342507 0 0 0
169 1 56.724659273289724 15.515429845923896 15.730401144800615 0 0 0
595 1 61.43879314384605 18.64561003055233 13.405239553309078 0 0 0
353 1 61.683911663966406 17.19152809572334 28.577258228643068 0 0 0
259 1 50.443253351522856 21.819840375058728 16.887315743522286 0 0 0
267 1 55.58529707181654 21.210500383422467 14.233049945840314 0 0 0
162 1 59.73562449794098 19.106308421913134 15.49261192311222 0 -1 1
585 1 60.8520578165138 21.749816703919308 15.563326755868964 0 0 0
32 1 47.6453050813074 13.375825700039918 3.1541778440090367 0 0 1
406 1 61.70832404180127 22.13422093303943 24.229561999314974 0 0 0
229 1 51.09675363399626 25.773470709387453 16.20761165712567 0 0 0
393 1 51.13034499080205 22.878376816412235 14.273888982745708 0 0 0
313 1 56.6787951168373 23.95675093951115 14.63236277809085 0 0 0
194 1 59.56473627285567 23.126986312789764 13.663126577441513 0 -1 0
665 1 56.0852804749933 26.39516773669603 13.348544163779705 0 -1 0
273 1 60.54277826577097 26.618115954879926 14.73775211326498 0 -1 0
276 1 50.09840743222567 1.5817963592259434 16.655072672418395 0 0 0
138 1 49.85075400795757 0.9760607049325706 19.4534941518021 0 0 0
329 1 52.4769262099745 0.9291523311428472 20.083750235301373 0 1 0
235 1 52.74575514230717 2.3320145864533988 17.340741126953347 0 1 0
327 1 58.57618673311383 0.611772962892711 18.199658679286582 0 0 0
388 1 52.29075217729442 18.303658227734548 29.01804512800272 0 0 0
400 1 60.48075851229798 20.793990937848815 26.45277751973911 0 0 0
332 1 50.065777052037575 6.203069396372619 18.001835065550374 0 1 0
177 1 52.87197037262943 5.448497439330642 17.722804909043766 0 1 -1
379 1 56.420322254080276 3.628091671791209 18.975118670554707 0 1 -1
363 1 55.967960528288856 2.910651414859342 16.22693523836812 0 1 0
840 1 62.48518835663714 2.4929041868452906 19.148331158221033 0 0 0
203 1 50.34294918029725 9.145511464972103 17.305887560417656 0 0 0
239 1 57.72284648780671 6.169752376088925 19.823354284535373 0 0 0
287 1 55.95111097153271 8.042898821471942 20.25997636572078 0 0 0
518 1 59.10822399080347 7.8182764288153415 15.888004950331903 0 0 0
253 1 60.052709906360235 6.219670435022937 18.021119636552772 0 0 0
768 1 63.18364999792731 7.252579633033627 18.116084915369417 0 0 0
284 1 52.72196671559504 8.026196643474776 19.013593702445764 0 0 -1
250 1 56.697007555163374 12.330987147905557 19.322498380085353 0 0 0
331 1 54.78779519306729 9.986820138021429 17.989712183784718 0 1 -1
118 1 59.51215497763259 9.623212390634189 18.188020083109496 0 0 1
34 1 57.58247287931595 22.180781813789658 26.284986846230684 0 0 0
248 1 52.857159248487235 13.911229210353609 17.729209422044466 0 0 0
161 1 58.28647297612155 15.817936798553662 17.82361201431177 0 0 0
633 1 60.22755153054851 12.814287438419933 20.387895953349602 0 0 0
256 1 51.61647392257753 19.39012598623932 17.327374163145283 0 0 0
306 1 49.27577563817473 21.98395275171021 19.89733824470772 0 0 0
156 1 53.97042174118952 15.684243748273484 19.513553086942984 0 0 0
266 1 54.16642902279951 20.048496823141495 16.409834886449982 0 0 0
262 1 60.691855583074805 17.47983300828072 17.951331309423647 0 0 0
216 1 52.80837866523978 23.42845947694287 17.705891276263372 0 0 0
279 1 55.355006661989314 21.977577436878693 17.96729716531822 0 0 0
308 1 59.950702922201096 22.968785113086163 17.697473339906967 0 0 0
215 1 49.597383530865024 25.01752297770792 19.585317299119886 0 0 0
260 1 48.91182696684661 24.114437171069675 16.67068160429921 0 0 0
314 1 53.77882708400145 26.314152580297915 17.82668429958036 0 0 0
360 1 56.400417843458435 25.924763384259183 18.677224871545405 0 0 0
479 1 57.1304347831824 23.819073369190896 17.214404260548452 0 -1 0
381 1 49.90135788139125 19.129448001456215 27.983623422053864 0 0 -1
652 1 62.672574602623094 1.0328143392800697 14.313816601897022 0 0 0
233 1 48.26612410534405 1.9644950203371419 21.96136534088564 0 0 0
349 1 53.258718911126515 0.3260775530644699 22.620604804401818 0 1 0
398 1 58.731811302588 2.315255621487403 20.37831049503506 0 1 -1
359 1 61.35073795773196 25.308897846771025 20.731689435698062 0 -1 -1
380 1 54.889377245932835 24.222493773178034 27.208629052129 0 -1 0
277 1 48.80288828366877 5.879880190869428 20.796515050832596 0 0 0
408 1 61.71698699207095 23.235441931979143 27.746261650838203 0 0 0
237 1 53.86251656560183 3.6341349859285135 20.009848075416947 0 0 0
336 1 50.89718963065337 6.386060944611189 22.285118076600806 0 0 0
325 1 52.44489398948712 4.033271607375056 22.594887233403682 0 1 0
245 1 57.609319848685296 1.005868284078994 22.684962968908284 0 0 0
283 1 57.22343896301835 6.062269329316614 24.16426617407555 0 1 -1
322 1 61.26407256296235 1.2760010731916855 21.200235958045454 0 1 0
296 1 61.376861359662804 5.478600861628291 22.022131114491106 0 0 0
41 1 48.43710125279343 8.551313656676724 19.72350668759071 0 1 -1
377 1 53.86970446812057 7.280247582120586 22.099725185433964 0 0 0
154 1 58.840179355860776 4.82820559800066 21.767835440707923 0 0 0
218 1 57.76655479589368 10.050859488645692 20.73504455134143 0 0 0
45 1 62.93091599728683 0.5885294040385213 3.7680359709680014 0 0 1
399 1 63.22049027459929 7.3028900155756675 29.44275472936643 0 0 -1
289 1 51.734581961085205 11.493092918054135 18.84163360489617 0 0 0
258 1 51.13596993746087 8.942520170442148 20.906118849066637 0 1 0
149 1 57.878844706485694 13.543928415507645 21.957893305878663 0 0 0
371 1 54.13905802309228 10.908150012405425 20.605477394795415 0 0 0
202 1 62.15427067906682 9.715851607429226 18.941855895458115 0 0 0
812 1 59.848316005359145 9.135122507683135 22.24180674517528 0 0 0
293 1 48.96742288088044 15.527023068319956 23.46917449639847 0 0 0
341 1 48.91941115367731 16.031101113410013 19.806839810976406 0 0 0
375 1 53.26653259692685 13.575411568158088 21.39313482234553 0 0 0
255 1 54.995092236612415 14.584219204384727 23.17954952345887 0 0 0
208 1 57.59821399814459 16.44469306158392 22.727764296326836 0 0 0
637 1 62.05041684163662 15.22053902762353 20.014925067962057 0 0 0
269 1 61.55216580055483 11.494858537547197 22.37778851693137 0 0 0
110 1 49.230324066770365 18.157452941498942 22.44867615131353 0 0 0
301 1 51.53290378681288 17.231901568463726 19.34967686886398 0 0 0
307 1 56.68129154210051 16.787989466832393 19.742985544055614 0 0 0
411 1 55.39539865899377 18.986950698665353 21.207099774386734 0 0 0
318 1 59.87889352494703 17.993025204792723 22.656893564385438 0 0 0
632 1 61.00178488125192 18.611900348705877 20.33147140722911 0 0 0
12 1 47.990097550488976 22.360772148499205 23.55101929283446 0 0 0
469 1 62.834682561048226 4.311677918131266 6.216506553744541 0 1 0
395 1 51.71740330004762 21.258779000398558 21.201400268608943 0 0 -1
315 1 54.38401270125319 21.436473805774497 20.362436783553214 0 0 0
316 1 57.98340464354662 20.950187702180365 21.47933521560925 0 0 0
616 1 62.02778034944213 0.378973768671873 7.048353070624882 0 0 0
275 1 60.426938166976726 21.425746567109577 19.839449107351342 0 0 0
288 1 52.00703620018446 24.175119685859734 20.219203319887843 0 0 0
320 1 50.72718696688113 26.191850034925057 23.287380679969434 0 -1 0
86 1 54.44655332459944 25.364941701489773 20.948167989198804 0 0 0
351 1 55.94136632833059 22.985715207957387 22.09271310620365 0 0 0
753 1 60.73899397011036 25.640946314611167 17.836642203468138 0 0 0
402 1 50.359901967449154 2.5353930642751465 23.636927633810693 0 1 -1
361 1 51.09156498355894 0.4282931680203009 25.865286607412237 0 1 0
326 1 57.83524946405354 25.356667906790104 21.20311684847716 0 -1 0
2 1 53.84868964110466 26.34990739995187 25.73884723142663 0 -1 -1
1 1 57.303042356015354 2.799535911284632 27.157599683750018 0 0 0
365 1 62.5582077181064 3.5325512439686486 23.798586992975412 0 1 0
502 1 60.19272960699866 1.2368814342424825 24.068970489010656 0 1 -1
562 1 62.38361862429016 2.035819766509423 11.53398815139887 0 1 0
370 1 48.590052657092556 4.3839166904899995 25.10354560566378 0 1 0
324 1 55.01881314534735 2.5628207684901536 23.29564477761298 0 1 0
290 1 59.233639479170854 3.84528508647006 25.160914084453438 0 1 0
364 1 50.23686317783214 6.604502611278796 25.07372678175388 0 1 0
13 1 48.82073432844694 9.1722715949921 25.021204342565397 0 0 0
72 1 53.51230023245286 9.377548943698233 24.089930959248292 0 0 -1
385 1 57.87252660936782 9.218875413364493 24.010332738240088 0 0 -1
366 1 54.52257366060112 5.545437666205328 24.278526297383706 0 0 0
374 1 61.60733784597098 7.55298439872547 23.909586666356333 0 0 0
811 1 55.139497987920194 20.00843799241498 29.061524403854072 0 0 0
376 1 50.86289881275376 10.281050359438277 23.574028937153688 0 0 0
342 1 55.6673171873587 10.448306571828441 23.13721112851563 0 0 -1
247 1 55.15812012007745 12.520196044639926 24.993754956992387 0 0 0
343 1 61.625214641743185 12.33977166893606 25.255746148317076 0 0 0
340 1 51.00129619438339 13.093923276587686 22.904062827790792 0 0 -1
252 1 51.45761987179382 15.216468651121275 25.38628019835594 0 0 0
257 1 57.790425233752956 14.338634014089571 25.052072345521257 0 0 0
719 1 60.37018928760661 14.858141056759662 25.681321472369245 0 0 0
263 1 55.158019718141134 20.596432652454155 26.29545390515175 0 0 1
299 1 49.85693654689527 18.52258366846628 25.015853782527255 0 0 0
643 1 51.96461589162953 18.47069865501455 21.82285248025174 0 -1 0
391 1 52.768511480728286 18.030468310994625 25.679811406038134 0 0 -1
294 1 54.33204997387204 17.458099238938306 23.270285720660247 0 1 0
183 1 61.684664127209395 16.25117179835074 24.02765499501308 0 -1 0
492 1 62.251864047420234 18.595675019452727 26.071710052094275 0 0 0
345 1 50.31710629686763 21.56485438315969 24.710384732127565 0 0 -1
356 1 51.837597239745996 23.479781051284327 23.18528586032471 0 0 0
397 1 54.48001494984865 22.735654736627566 24.45152551232655 0 0 0
346 1 56.75047143602893 18.546304937935464 24.93729850601218 0 0 -1
317 1 58.914996188372534 20.19686005391297 23.86824538814895 0 0 0
367 1 59.95477601411552 23.662823092712376 22.286554955281005 0 -1 0
823 1 63.09473877163373 0.14286825697542857 18.166192735449798 0 0 0
43 1 56.0530228703981 25.625306963389754 24.08028834591209 0 -1 0
459 1 59.6716399804144 25.67703403285352 24.656435013354034 0 -1 0
46 1 48.042644724111824 26.274250521754702 28.925282443664347 0 -1 -1
401 1 51.196783532952146 2.2634222430945066 27.809521244892327 0 1 0
120 1 54.88311545181195 2.0491616022656554 25.976710247952674 0 1 -1
53 1 55.44303998279263 26.736235986588678 28.6557042473417 0 -1 -1
93 1 60.40306567433753 2.694437907973249 27.692359599692267 0 1 -1
90 1 48.62159983051593 3.617908902320303 28.454420821225785 0 0 -1
7 1 53.44433858569104 3.831080158108369 27.302712502887456 0 1 -1
221 1 52.81162261523908 6.259044853726585 26.31965606541096 0 0 -1
58 1 54.633582963846315 3.8672291759127524 29.735391005271076 0 0 -1
9 1 57.30335312542922 4.921244553273866 29.251405536264702 0 1 0
378 1 60.1998044579326 5.429044460142665 28.85187894370127 0 0 0
59 1 49.89539021729001 9.940819806199993 27.87783710871867 0 0 -1
383 1 52.329520255398116 9.076430313534816 28.645871042215536 0 0 0
297 1 56.402307443347645 7.305134455936599 27.651742778015482 0 0 0
369 1 54.052857302835875 8.657062293367238 26.71015717306902 0 0 0
22 1 58.58290770676702 8.430094995736217 27.01796602066954 0 0 -1
64 1 60.29215121729958 6.549271219052903 25.955909185218708 0 0 -1
396 1 57.47126955199777 17.577486818100574 27.579333466799064 0 0 0
285 1 52.84370166317505 13.349559347478744 27.128796813103573 0 1 0
11 1 50.186764418711036 12.569103765357449 28.582358465270147 0 0 -1
344 1 60.11842587067594 10.536574779772417 28.405192926367047 0 0 0
475 1 61.83625185310276 12.228873417463973 0.9631863595624862 0 0 0
354 1 48.481765447776986 24.43397137579892 22.16506521554684 0 0 0
382 1 49.345063009415426 14.930408277697735 27.00410655954779 0 0 0
300 1 49.35574385445428 16.586061432826188 29.15199613960423 0 0 0
30 1 53.86479133651856 14.885662914290323 29.34766087905267 0 -1 -1
386 1 55.86151072029694 13.078021561787747 28.417909695029564 0 0 0
409 1 57.77065973606261 17.56190273208667 1.19180584608652 0 0 1
304 1 58.71862460691048 11.514548768035457 25.727911511412312 0 0 0
211 1 58.08147800818347 14.935889425111624 29.0263712851229 0 0 0
26 1 60.85672268331625 14.361742814007163 28.589140783416855 0 0 0
358 1 63.24198332190561 14.454681939526749 22.69254349949873 0 0 0
530 1 63.05243004997662 6.689799723813209 26.942393148684967 0 0 -1
281 1 63.12539749240686 23.601504578133984 18.513173968516885 0 -1 0
172 1 47.64963232670053 25.648572373363404 7.112291162730831 0 0 0
626 1 62.90631158233999 11.39650944226042 17.046015857977796 0 0 0
568 1 63.26229152467958 7.107575264726515 9.914173281993099 0 0 0
758 1 63.31240648985371 11.615331746994908 10.145676592907547 0 0 0
817 1 63.22714389960701 15.433989809266523 2.012573658645602 0 0 1
535 1 63.290507081430036 14.324597393435237 13.0741632722491 0 0 0
311 1 47.602282692242746 18.7587922539254 5.612028399782721 0 0 0
163 1 47.5481770961938 3.0418383565241176 3.0354481630784047 0 0 0
98 1 64.00549304448711 2.8599942536266103 1.562410845180096 0 0 0
482 1 66.7106062279163 1.4863529050700737 0.5936177758939524 0 0 0
820 1 66.54757496916042 26.20496956114701 28.674310856511372 0 0 0
545 1 70.24190757974615 26.088587745484368 1.5504352077179073 0 -1 0
795 1 72.38636219610633 0.7255069170181031 29.641556217220085 0 0 -1
458 1 75.99075218260658 1.1342167724225556 1.5737716023906219 0 1 1
417 1 69.40455816690734 2.605956025973894 1.1976118812971794 0 0 1
507 1 70.801131303572 7.495957035031496 0.6417364412928309 0 1 1
522 1 71.35276735199092 4.480295660726851 0.618259187165533 0 0 0
1250 1 73.70490530286338 5.444440473379929 1.9374828189746578 0 0 0
427 1 77.90086262619305 5.137586128956859 1.2690205461903652 0 0 1
573 1 64.5889930143262 10.05543747169355 12.762685221409596 0 0 0
477 1 67.87341533082184 8.051146886829569 3.0831491758952163 0 0 1