
# Create simulation box
#
region 	     all block 0 ${XDIM} 0 ${YDIM} 0 ${ZDIM} units box
region 	     all block 0 189.98919 0 ${YDIM} 0 ${ZDIM} units box
region 	     all block 0 189.98919 0 26.9999 0 ${ZDIM} units box
region 	     all block 0 189.98919 0 26.9999 0 30.0 units box
create_box          1 all
Created orthogonal box = (0.0000000 0.0000000 0.0000000) to (189.98919 26.999900 30.000000)
  12 by 1 by 1 MPI processor grid

# fill box with randomly distributed atoms of number density 0.0327 N/A**3
#
create_atoms        1 random 5032 63782 all
Created 5032 atoms
  create_atoms CPU = 0.001 seconds
mass                1 18.015

# Define potential
#
pair_style          sw
pair_coeff          * * ML.sw mW
Reading sw potential file ML.sw with DATE: 2019-02-27

# Run minimization
#
minimize            1.0e-8 1.0e-8 10000 1000
WARNING: Using 'neigh_modify every 1 delay 0 check yes' setting during minimization (../min.cpp:187)
Neighbor list info ...
  update every 1 steps, delay 0 steps, check yes
  max neighbors/atom: 2000, page size: 100000
  master list distance cutoff = 6.0032907
  ghost atom cutoff = 6.0032907
  binsize = 3.0016454, bins = 64 9 10
  1 neighbor lists, perpetual/occasional/extra = 1 0 0
  (1) pair sw, perpetual
      attributes: full, newton on
      pair build: full/bin/atomonly
      stencil: full/bin/3d
      bin: standard
Per MPI rank memory allocation (min/avg/max) = 4.210 | 4.214 | 4.218 Mbytes
Step Temp E_pair E_mol TotEng Press 
       0            0    4934030.8            0    4934030.8    3106507.5 
     689            0   -54325.414            0   -54325.414   -760.54387 
Loop time of 1.00954 on 12 procs for 689 steps with 5032 atoms

99.6% CPU use with 12 MPI tasks x no OpenMP threads

Minimization stats:
  Stopping criterion = max force evaluations
  Energy initial, next-to-last, final = 
      4934030.82736667  -54325.3484069832  -54325.4139707701
  Force two-norm initial, final = 23717185.0 2.1041847
  Force max component initial, final = 8348995.6 0.61524765
  Final line search alpha, max atom move = 0.12619836 0.077643246
  Iterations, force evaluations = 689 1001

MPI task timing breakdown:
Section |  min time  |  avg time  |  max time  |%varavg| %total
---------------------------------------------------------------
Pair    | 0.74082    | 0.81635    | 0.9252     |   5.5 | 80.86
Neigh   | 0.022365   | 0.023677   | 0.024802   |   0.5 |  2.35
Comm    | 0.021043   | 0.074432   | 0.13948    |  14.3 |  7.37
Output  | 0          | 0          | 0          |   0.0 |  0.00
Modify  | 0          | 0          | 0          |   0.0 |  0.00
Other   |            | 0.09508    |            |       |  9.42

Nlocal:        419.333 ave         435 max         406 min
Histogram: 1 1 1 1 4 1 1 1 0 1
Nghost:        1089.25 ave        1139 max        1045 min
Histogram: 1 1 0 3 4 0 0 1 1 1
Neighs:        0.00000 ave           0 max           0 min
Histogram: 12 0 0 0 0 0 0 0 0 0
FullNghs:      11782.2 ave       12628 max       11159 min
Histogram: 2 0 2 3 1 1 1 1 0 1

Total # of neighbors = 141386
Ave neighs/atom = 28.097377
Neighbor list builds = 31
Dangerous builds = 0

# Add velocity/set timestep
#
velocity            all create ${TEMP} 120598 rot yes dist gaussian
velocity            all create 240 120598 rot yes dist gaussian
timestep            5.0

# Define output
#
compute	            1 all msd
thermo	            100
thermo_style        custom step temp press vol etotal ke pe c_1[4] density

# Neighbor lists
#
neigh_modify        delay 0 every 1 check yes

# Set fixes
#
fix                 1 all momentum 10 linear 1 1 1 rescale
fix                 2 all nve
fix                 3 all temp/csvr ${TEMP} ${TEMP} 500.0 928347
fix                 3 all temp/csvr 240 ${TEMP} 500.0 928347
fix                 3 all temp/csvr 240 240 500.0 928347
fix                 4 all press/berendsen z ${PRES} ${PRES} 1000.0 modulus 20000
fix                 4 all press/berendsen z 1 ${PRES} 1000.0 modulus 20000
fix                 4 all press/berendsen z 1 1 1000.0 modulus 20000

# Run equilibration
#
dump                1 all custom 1000 whole.${NAME}.dump id type x y z vx vy vz
dump                1 all custom 1000 whole.Ibeam_MLmW_240K.dump id type x y z vx vy vz
run                 25000
Per MPI rank memory allocation (min/avg/max) = 3.461 | 3.464 | 3.468 Mbytes
Step Temp Press Volume TotEng KinEng PotEng c_1[4] Density 
     689          240    308.56125    153890.67   -50726.265    3599.1493   -54325.414 2.0351055e-34   0.97816396 
     700     115.2228    451.66709     154008.2   -50544.263    1727.9335   -52272.196  0.048314544   0.97741748 
     800    166.78213   -91.292449    153738.03    -49144.28    2501.1407   -51645.421   0.45806266   0.97913515 
     900    197.95453   -60.572361    153568.56   -48371.103    2968.6163   -51339.719   0.89126138   0.98021565 
    1000    210.63426   -323.80133    153301.99   -47924.878    3158.7673   -51083.645     1.378619   0.98192017 
    1100     221.4112     -142.642    153177.51   -47600.882    3320.3832   -50921.266    1.8905157   0.98271808 
    1200    231.37586   -35.360413    153000.14   -47378.193    3469.8178   -50848.011    2.4458491   0.98385734 
    1300     239.2344    135.56684     152814.2   -47179.806     3587.668   -50767.474    3.0465261   0.98505448 
    1400    237.77411    68.624769    152894.86   -47203.981    3565.7689    -50769.75     3.688957    0.9845348 
    1500    244.03864   -35.772807    152684.97   -47126.155    3659.7146    -50785.87    4.3003295   0.98588823 
    1600    240.90091    32.754884    152694.18   -47179.927    3612.6597   -50792.587    4.8806941   0.98582874 
    1700    240.56146   -274.77855    152670.07   -47217.148    3607.5692   -50824.717    5.4290515   0.98598443 
    1800    243.25443    -183.1862    152466.19   -47196.608    3647.9541   -50844.562    5.9876105   0.98730287 
    1900    241.32902   -47.574185    152302.45   -47191.444    3619.0799   -50810.524    6.6909834   0.98836434 
    2000    239.25051    9.1085018    152229.91   -47141.305    3587.9096   -50729.215    7.4267595   0.98883529 
    2100    238.62667   -31.470887    152165.64   -47234.976    3578.5542    -50813.53    8.0657866     0.989253 
    2200    237.82621    205.32176    152093.69   -47270.012    3566.5501   -50836.562    8.7629915   0.98972093 
    2300    235.20334   -59.372671    152083.48   -47217.496    3527.2164   -50744.713    9.3658954   0.98978742 
    2400    240.37718   -22.156347     152079.6   -47237.862    3604.8056   -50842.668    10.128396   0.98981263 
    2500     242.3295   -108.46579    152041.66    -47231.03    3634.0835   -50865.113    10.804485   0.99005962 
    2600    240.63809    120.49885    152098.63   -47206.056    3608.7183   -50814.774    11.486752   0.98968882 
    2700     243.5242     192.4719    151903.77   -47164.133    3651.9998   -50816.133    12.189111   0.99095839 
    2800    237.27814   -18.933501    151965.78   -47296.796     3558.331   -50855.127    12.811837     0.990554 
    2900    238.81936    37.693546    152060.67   -47271.722    3581.4438   -50853.165     13.45806   0.98993586 
    3000    241.84384   -143.45349    152053.08   -47214.674    3626.8004   -50841.474     14.15571   0.98998526 
    3100    238.25119   -146.14424    151923.41   -47207.945    3572.9233   -50780.868    14.606204   0.99083022 
    3200     241.6611    197.69192    151860.67   -47237.708    3624.0598   -50861.767    15.200048   0.99123963 
    3300    240.56085    99.637946     151760.2   -47281.153      3607.56   -50888.713    15.708222   0.99189583 
    3400    240.18982   -38.531636    151776.17   -47241.986    3601.9959   -50843.982    16.200083   0.99179145 
    3500    242.97365   -44.504998    151917.99    -47150.46    3643.7436   -50794.204    16.863208   0.99086563 
    3600    243.71932    171.98296    151870.53   -47146.084    3654.9259    -50801.01    17.274619   0.99117523 
    3700     241.5184    76.764255    151716.68   -47203.928    3621.9199   -50825.848    17.825581   0.99218039 
    3800    239.66512   -120.70397    151692.32   -47189.103    3594.1272    -50783.23    18.339982   0.99233969 
    3900    236.27276   -68.791093    151585.09   -47276.456     3543.254    -50819.71     18.64691    0.9930417 
    4000    238.69345    115.42646    151278.81   -47319.625    3579.5556   -50899.181    19.090342   0.99505221 
    4100    242.80055   -46.579235    151208.31   -47269.381    3641.1476   -50910.528     19.51334   0.99551611 
    4200    241.61802    57.226095     151170.3   -47263.872    3623.4139   -50887.286    20.068281   0.99576642 
    4300     241.7515    178.02682    151157.13   -47256.623    3625.4156   -50882.039    20.605427    0.9958532 
    4400    240.83498    231.70886    151174.56   -47255.264    3611.6711   -50866.935    21.179852   0.99573834 
    4500     245.8721    55.528662    151326.19   -47207.993      3687.21   -50895.203    21.737856   0.99474065 
    4600     238.3877    244.92921    151501.12   -47270.296    3574.9706   -50845.267    22.557735   0.99359206 
    4700    238.53737    62.661794    151546.61   -47296.629     3577.215   -50873.844    23.339369   0.99329384 
    4800    239.99183    129.30506     151665.7   -47251.898    3599.0267   -50850.925    24.150029   0.99251387 
    4900    239.39934    312.22378    151714.01   -47244.477    3590.1415   -50834.619    24.808173   0.99219781 
    5000    238.33119    400.27043    151800.75   -47339.639     3574.123   -50913.762    25.404947   0.99163087 
    5100    240.64282     96.84154    151977.13   -47273.635    3608.7892   -50882.424    26.247321   0.99048004 
    5200    235.88085   -172.55767    152043.41   -47330.636    3537.3766   -50868.013    26.738851   0.99004821 
    5300    236.24038    24.895611    151759.79   -47346.218    3542.7683   -50888.986    27.366617   0.99189849 
    5400     242.9748   -158.22149    151792.78   -47261.385    3643.7608   -50905.145    28.186754   0.99168293 
    5500     243.2303   -129.51732    151869.08   -47204.536    3647.5924   -50852.129    29.196737    0.9911847 
    5600    244.85391   -275.89658    151972.36   -47145.335    3671.9407   -50817.275    30.007322   0.99051111 
    5700    239.12778    6.1346843    151717.46     -47271.2    3586.0691   -50857.269    30.827755   0.99217527 
    5800     240.6343   -51.994201    151703.33   -47193.061    3608.6615   -50801.723    31.787552   0.99226765 
    5900    236.27645    27.212395    151587.02    -47283.71    3543.3093   -50827.019     32.98254   0.99302904 
    6000    240.75318   -136.91201    151424.64     -47327.3    3610.4444   -50937.744    33.899442   0.99409389 
    6100    239.31396    9.8955093    151574.33    -47340.93    3588.8612   -50929.792    34.612019   0.99311215 
    6200    236.53731   -178.74119    151567.41   -47348.409    3547.2212    -50895.63    35.412539   0.99315752 
    6300    234.98749    101.10575    151528.54   -47377.575    3523.9794   -50901.555    36.343487   0.99341227 
    6400    240.56682    205.70654    151558.18   -47324.584    3607.6496   -50932.234    37.284808   0.99321801 
    6500    239.74976   -64.561806    151640.39   -47299.028    3595.3965   -50894.424    38.136854   0.99267954 
    6600    238.63906    13.044213    151608.38   -47353.576    3578.7401   -50932.316    38.974173   0.99288912 
    6700    236.42726     18.73995    151631.22   -47328.069    3545.5709    -50873.64     39.72595   0.99273956 
    6800    235.69835   -58.407066    151838.22   -47418.898    3534.6397   -50953.537    40.520333   0.99138617 
    6900    240.52132   -99.130737    151796.58   -47356.947    3606.9672   -50963.914    41.261646    0.9916581 
    7000    245.79577   -8.7630023    151778.19   -47279.238    3686.0653   -50965.304    41.984377   0.99177827 
    7100    238.75264    13.714845    151749.25   -47403.847    3580.4433    -50984.29    42.962918   0.99196744 
    7200    238.38913    4.8518298    151695.41   -47410.522     3574.992   -50985.514    43.526533   0.99231951 
    7300    238.09761    175.44565    151630.71   -47421.101    3570.6202   -50991.721    43.835248   0.99274289 
    7400    237.50426   -116.25515    151634.35   -47466.294    3561.7221   -51028.016     44.18954   0.99271908 
    7500    237.65016   -101.97295    151722.91   -47405.735      3563.91   -50969.645    44.660837   0.99213961 
    7600    239.40271    164.94345    151745.98   -47350.141    3590.1921   -50940.333    44.960469   0.99198881 
    7700    239.78742   -7.0163024     151731.4   -47299.343    3595.9614   -50895.305    45.301803   0.99208413 
    7800    239.78864     248.4829    151696.84    -47346.33    3595.9797   -50942.309    45.571656   0.99231012 
    7900    237.40365    489.94592    151893.78    -47414.16    3560.2133   -50974.374    45.879199   0.99102355 
    8000    240.85913    118.17076    152027.39   -47458.173    3612.0331   -51070.206    46.272146   0.99015256 
    8100    239.69961    237.58766    152208.81   -47393.097    3594.6445   -50987.741    46.771773   0.98897236 
    8200    241.37667    194.43529    152276.46   -47402.744    3619.7945   -51022.538    47.258367   0.98853306 
    8300    236.09366   -126.18041    152304.45   -47399.555    3540.5681   -50940.123    47.350203   0.98835134 
    8400    240.25884    123.29959    152135.84   -47437.606     3603.031   -51040.637     47.47596   0.98944677 
    8500    238.58166    46.768253    152204.63   -47509.285    3577.8792   -51087.164    47.678407   0.98899953 
    8600    245.48841    104.33508    152192.64   -47424.217    3681.4559   -51105.673    47.892463    0.9890775 
    8700    236.25978    229.75972    152269.66   -47393.604    3543.0592   -50936.664    48.275748   0.98857718 
    8800    239.78452    55.806315    152273.05   -47307.408    3595.9179   -50903.325    48.518197   0.98855518 
    8900    234.58449   -487.45854    152140.01   -47354.151    3517.9358   -50872.087    48.977422    0.9894196 
    9000    242.28073   -111.40823    151876.88   -47269.809    3633.3521   -50903.161    49.272076   0.99113382 
    9100    239.87276    147.43165    151935.78   -47260.436    3597.2411   -50857.677    49.540733    0.9907496 
    9200    243.00321    90.928637    152056.23   -47300.155    3644.1868   -50944.342    49.625338    0.9899648 
    9300     239.9196   -122.29434    152054.03    -47312.32    3597.9435   -50910.263    50.085558   0.98997911 
    9400    239.26142    4.5165947     151953.9   -47298.352    3588.0732   -50886.425    50.283789   0.99063144 
    9500    239.16684    295.76504    151946.13    -47365.81    3586.6549   -50952.465    50.664069   0.99068208 
    9600    235.82883    291.13427    151873.15    -47404.95    3536.5966   -50941.546    50.877672   0.99115812 
    9700    234.98053    3.2040658     151913.4   -47332.005    3523.8751    -50855.88    51.395427   0.99089554 
    9800    241.30298    154.57789    152062.68   -47365.256    3618.6894   -50983.946    51.958804   0.98992276 
    9900    242.09022     -111.992    152197.47   -47286.135    3630.4951    -50916.63    52.454375   0.98904606 
   10000    239.71537   -45.929446    152162.65   -47442.493    3594.8809   -51037.374    52.741517    0.9892724 
   10100    238.65588    231.85434     152263.4   -47392.113    3578.9923   -50971.105    53.220717    0.9886178 
   10200    240.50524   0.38789433    152330.37   -47427.241    3606.7261   -51033.967     53.68401   0.98818317 
   10300    238.16251    167.72635    152366.12   -47425.841    3571.5935   -50997.435    54.185066   0.98795132 
   10400    239.18743    92.726978     152415.3   -47332.493    3586.9637   -50919.456    54.907401   0.98763253 
   10500    241.94588     138.0875    152529.97   -47342.212    3628.3306   -50970.543    55.153627   0.98689003 
   10600    241.32792    16.334023     152558.7   -47330.118    3619.0634   -50949.181    55.664145   0.98670419 
   10700    239.86816   -19.168178    152715.45   -47395.835    3597.1722   -50993.007    56.073065   0.98569141 
   10800    242.49893   -49.720988    152888.77   -47346.978    3636.6244   -50983.602    56.261301   0.98457405 
   10900    244.80324   -75.307205    152787.83   -47238.541    3671.1808   -50909.722    56.592375   0.98522449 
   11000    242.34535   -145.05568    153020.23   -47272.797    3634.3212   -50907.118    56.868096   0.98372819 
   11100    240.17541   -114.02416    152907.81   -47302.706    3601.7798   -50904.486    57.243941   0.98445144 
   11200    238.22586   -77.409011    153024.33   -47289.004    3572.5434   -50861.548    57.408105    0.9837018 
   11300    239.71939   -167.61547    153077.11   -47326.113    3594.9412   -50921.054    57.732056   0.98336261 
   11400    237.52137     -69.8065    152916.12   -47336.959    3561.9787   -50898.938    57.957157   0.98439794 
   11500    240.55351   -314.55469     152880.9   -47469.081    3607.4499   -51076.531    58.171168   0.98462473 
   11600    234.67732   -113.26411    152832.65   -47508.501     3519.328   -51027.829     58.07974   0.98493552 
   11700    240.87029   -58.740956    152755.79   -47459.807    3612.2006   -51072.007    58.374977   0.98543115 
   11800    236.59841    -89.01305    152776.62   -47408.421    3548.1375   -50956.559    58.824643   0.98529677 
   11900     237.8466    13.631005    152676.32   -47511.106    3566.8559   -51077.962    59.157416   0.98594404 
   12000     239.6633   -177.84415    152409.58   -47493.415       3594.1   -51087.515    59.244168   0.98766964 
   12100    237.74641    64.241065    152581.19   -47486.104    3565.3534   -51051.458    59.487693   0.98655874 
   12200    241.51944    167.29037    152647.41   -47388.572    3621.9355   -51010.507    59.746163    0.9861308 
   12300    242.41324    112.53983     152792.1   -47339.964    3635.3393   -50975.304    60.242687   0.98519697 
   12400    244.99727   -7.2110356    152743.16   -47273.592    3674.0907   -50947.683    60.576842   0.98551262 
   12500    239.59863   -51.050219    152717.72   -47304.513    3593.1302   -50897.643      60.8664   0.98567679 
   12600    245.28878   -1.5511551    152775.19   -47322.332    3678.4622   -51000.794    61.104878   0.98530602 
   12700    240.10163    53.277383    152765.29   -47268.118    3600.6733   -50868.791    61.424473   0.98536984 
   12800    239.35376    287.13404    152770.73   -47323.412    3589.4579    -50912.87    62.023902   0.98533474 
   12900    238.63055    87.271419    152865.17   -47331.636    3578.6123   -50910.248    62.418125   0.98472604 
   13000    239.91813   -248.31287    152822.85   -47351.912    3597.9215   -50949.834    62.938257   0.98499872 
   13100    240.67993    32.232555     152684.1   -47379.551    3609.3458   -50988.897    63.202343   0.98589385 
   13200    243.04349    147.55433    152677.96   -47329.124    3644.7908   -50973.915    63.595724   0.98593344 
   13300    235.81269   -62.729014    152618.51   -47308.148    3536.3545   -50844.503    64.193647   0.98631754 
   13400    240.70105    96.588278    152580.64    -47355.57    3609.6626   -50965.232    64.647854   0.98656232 
   13500    239.97765    84.797489    152578.51   -47353.656    3598.8141    -50952.47    65.128862   0.98657611 
   13600    239.68078    170.52544    152628.88   -47371.811    3594.3622   -50966.174    65.460807   0.98625052 
   13700    242.63781   -3.8977435    152652.52   -47366.286    3638.7071   -51004.993    65.775153   0.98609781 
   13800    243.65963   -81.140077    152699.84    -47405.22    3654.0307   -51059.251    66.209418   0.98579218 
   13900    239.80506     48.31418    152716.64   -47475.255    3596.2258   -51071.481    66.538881   0.98568376 
   14000    232.90825   -176.42073    152747.17   -47564.001    3492.7981     -51056.8    67.031811   0.98548676 
   14100    238.01443   -16.621616    152654.49   -47556.111    3569.3728   -51125.484    67.384102   0.98608504 
   14200    240.36696    56.718896     152702.4   -47487.376    3604.6525   -51092.028    68.004309   0.98577567 
   14300    246.66551   -108.85283     152778.7   -47472.292    3699.1083     -51171.4    68.583137   0.98528334 
   14400    239.25901    174.71691    152846.86   -47527.559     3588.037   -51115.596    68.819867   0.98484396 
   14500    235.83864    275.73123    153086.75   -47524.675    3536.7437   -51061.418    69.297262    0.9833007 
   14600    241.97882   -67.244872    153122.64   -47448.382    3628.8246   -51077.207    70.088533   0.98307027 
   14700    239.37667   -224.78161     153134.5   -47384.533    3589.8015   -50974.335    70.740501    0.9829941 
   14800     239.6089    -139.7187     152913.4    -47412.25    3593.2842   -51005.535    71.300026   0.98441546 
   14900    237.40117    47.602291    152818.94   -47405.222    3560.1761   -50965.398    71.679333    0.9850239 
   15000    235.95327    -101.6683    152734.74    -47487.53    3538.4627   -51025.993    71.934931   0.98556694 
   15100    239.87086   -266.15583     152561.4   -47464.085    3597.2127   -51061.298    72.401787   0.98668672 
   15200    236.63227    157.97603    152526.09   -47480.633    3548.6452   -51029.278    72.849714   0.98691514 
   15300    240.98807     62.73266    152517.93   -47391.008    3613.9669   -51004.975    73.541904   0.98696795 
   15400    239.46827   -106.95917    152327.08   -47371.434    3591.1753   -50962.609    73.902567    0.9882045 
   15500    239.70102      258.714    152369.33   -47366.948    3594.6657   -50961.614     74.58959   0.98793053 
   15600    240.54373   -71.339644    152395.76   -47429.592    3607.3032   -51036.895    75.026371   0.98775917 
   15700    236.87617   -179.78364    152486.25    -47445.88    3552.3029   -50998.183    75.910412   0.98717303 
   15800    242.10417    59.058396    152379.17   -47442.354    3630.7043   -51073.058    76.585351   0.98786673 
   15900    242.85411    82.289271    152545.25   -47414.521    3641.9508   -51056.472    77.012946   0.98679121 
   16000    239.23817   -52.868171    152452.05   -47473.444    3587.7246   -51061.169    77.198387   0.98739446 
   16100    237.18189   -30.273862    152327.27   -47463.562    3556.8876   -51020.449    77.412141   0.98820329 
   16200     241.2022    30.745267    152258.68   -47342.968     3617.178   -50960.146    77.934568   0.98864844 
   16300    246.37104     141.6391    152383.26   -47302.813    3694.6922   -50997.505    78.629759   0.98784022 
   16400    239.29656     46.85574    152462.45   -47293.995    3588.6001   -50882.595    79.127881   0.98732711 
   16500    242.49121     106.8317    152464.45    -47293.02    3636.5086   -50929.528    79.554444   0.98731419 
   16600    239.89027   -225.52642    152485.21   -47344.936    3597.5037   -50942.439    80.069793   0.98717977 
   16700     238.3355   -49.914093    152314.87   -47359.777    3574.1877   -50933.965    79.954885   0.98828372 
   16800    243.61449   -72.226194    152354.52   -47357.197    3653.3538   -51010.551    80.296638   0.98802657 
   16900     237.0466   -49.185336    152359.15   -47380.192    3554.8587   -50935.051    80.769682   0.98799652 
   17000    241.79968   -203.68328    152324.61   -47382.588    3626.1381   -51008.726    81.430831   0.98822058 
   17100    239.62043     32.07473    152127.14   -47385.074    3593.4571   -50978.531    81.369613   0.98950331 
   17200    240.19998    58.077076    152206.09   -47319.572    3602.1482   -50921.721    81.807675   0.98899009 
   17300    241.74246    -223.9192    152210.02   -47254.505    3625.2801   -50879.785     82.17873   0.98896454 
   17400    243.40165   -103.28084     152098.5   -47324.754    3650.1619   -50974.916    82.312588   0.98968967 
   17500    242.93096     8.718973    152009.17   -47313.275    3643.1034   -50956.378    82.472713   0.99027127 
   17600    240.66032    107.24058    151886.75   -47326.569    3609.0518   -50935.621    83.147666   0.99106943 
   17700    237.02078     108.9979    151879.86   -47336.412    3554.4715   -50890.883    83.439759   0.99111439 
   17800     239.0208    109.09655    151917.08   -47350.288    3584.4647   -50934.752    84.061519   0.99087155 
   17900    237.79278    1.9352577    152072.15   -47387.611    3566.0488    -50953.66    84.462865   0.98986112 
   18000    235.60072    175.63077    152026.16   -47432.684    3533.1757    -50965.86    84.620645   0.99016056 
   18100    237.26655    118.17916    152057.81   -47469.513    3558.1572    -51027.67    85.200148   0.98995445 
   18200    241.92846    41.252017    152025.47   -47344.877    3628.0693   -50972.947     85.89905   0.99016504 
   18300    238.14377   -41.680927    152060.79   -47378.816    3571.3124   -50950.128      86.5181   0.98993507 
   18400    235.73198    109.71627    151844.12   -47451.491    3535.1442   -50986.635    86.956123   0.99134766 
   18500    237.00528    120.75009    151979.65   -47393.093    3554.2392   -50947.332    87.517745   0.99046362 
   18600    241.59181    87.104147    152063.08   -47329.605    3623.0207   -50952.625    88.268108   0.98992018 
   18700    240.03377   -217.27467     152147.4   -47275.375    3599.6558    -50875.03    88.856658   0.98937158 
   18800    241.33335    314.14587     152311.7   -47255.357    3619.1448   -50874.502    89.385492   0.98830434 
   18900    237.99438   -104.25804    152251.06   -47362.061    3569.0721   -50931.133    89.919873   0.98869798 
   19000    241.86822    85.629049    152376.07   -47340.626    3627.1659   -50967.792    90.481406   0.98788684 
   19100    241.38101   -168.20339    152417.55   -47411.625    3619.8595   -51031.485    90.983607   0.98761795 
   19200     238.6386   -112.54759    152298.61   -47385.139    3578.7331   -50963.872    91.735825   0.98838923 
   19300    242.39284    11.786165     152411.7   -47361.272    3635.0335   -50996.306    92.315485   0.98765591 
   19400    237.80841   -10.115444    152410.22   -47387.015    3566.2833   -50953.298    92.732188   0.98766549 
   19500    239.89047   -5.7141436    152314.36   -47338.529    3597.5067   -50936.036    93.463786   0.98828703 
   19600    240.48604    106.79391    152289.26    -47336.75    3606.4381   -50943.188    93.817369   0.98844996 
   19700    238.93531   -269.84127    152179.19   -47313.564    3583.1827   -50896.747    94.137236   0.98916487 
   19800    242.38276    37.350007    151947.71   -47231.574    3634.8822   -50866.456    94.611748   0.99067179 
   19900    240.80726    148.31121    151961.73    -47266.43    3611.2554   -50877.686    95.204253    0.9905804 
   20000    238.21873   -122.26468    151969.61   -47185.488    3572.4366   -50757.925    95.662833   0.99052905 
   20100    240.84719    34.413366    152044.04   -47233.685    3611.8541   -50845.539     96.43995   0.99004415 
   20200    241.83261    148.36502     151922.7    -47229.93    3626.6319   -50856.562    97.034521   0.99083486 
   20300    244.83567    86.995993    152015.87   -47188.351    3671.6673   -50860.018    97.748704   0.99022761 
   20400    239.42942    95.400133    152100.13     -47268.6    3590.5927   -50859.192    98.178881   0.98967902 
   20500    244.16366   -163.77124    152011.33    -47224.23    3661.5894   -50885.819    98.661295   0.99025721 
   20600    242.21787    213.16774    151872.39   -47276.055    3632.4094   -50908.464    99.284333   0.99116308 
   20700    238.68626    178.77308    151981.13   -47301.739    3579.4478   -50881.186    99.720154   0.99045396 
   20800    237.84541    104.19119    151888.11   -47314.091    3566.8381   -50880.929    100.25178   0.99106052 
   20900     241.6631    178.14719    151996.85    -47351.01    3624.0899     -50975.1    100.63698    0.9903515 
   21000    242.84254    200.44699    151965.36   -47288.018    3641.7774   -50929.796    100.93813   0.99055672 
   21100    236.64902   -19.359252    152118.38   -47336.381    3548.8964   -50885.277    101.31683   0.98956032 
   21200    237.70537   -287.05093    151982.89   -47432.681     3564.738   -50997.419    101.75393   0.99044246 
   21300    237.18943   -7.9895898    152003.49   -47447.882    3557.0007   -51004.883    102.32867   0.99030825 
   21400     234.8817   -105.86092       152041   -47384.054    3522.3929   -50906.447    102.49074   0.99006395 
   21500    244.63483   -120.14238    152055.25   -47218.154    3668.6553   -50886.809    102.62098   0.98997117 
   21600    241.08292   -62.198454    151987.29   -47299.182    3615.3893   -50914.571    103.00828    0.9904138 
   21700    238.44408    -13.31418    151921.15    -47294.72     3575.816   -50870.536    103.62996     0.990845 
   21800    241.63763    95.496214     151998.2   -47197.172     3623.708    -50820.88    104.19243   0.99034273 
   21900    241.58066   -124.50934    152030.41   -47221.129    3622.8535   -50843.982    104.46209   0.99013289 
   22000    240.26321    9.5124287    151953.46   -47249.421    3603.0965   -50852.518    104.71097   0.99063428 
   22100    245.56399    160.66437    151899.86   -47243.945    3682.5894   -50926.535    105.08998   0.99098385 
   22200    246.39091    215.55371    151973.15   -47200.843    3694.9902   -50895.833    105.63878   0.99050596 
   22300    239.22267   -146.81196    152165.28    -47204.22     3587.492   -50791.712    106.47638   0.98925528 
   22400    237.68401   -183.54535    152020.86   -47349.424    3564.4177   -50913.842    107.06994   0.99019512 
   22500    237.91118   -74.384522     152057.3   -47311.017    3567.8244   -50878.842    107.78165   0.98995783 
   22600    239.42961    186.64438    152201.39   -47293.839    3590.5954   -50884.434    108.16599   0.98902061 
   22700    239.43448   -69.868058    152181.46   -47310.838    3590.6686   -50901.506    108.90881    0.9891501 
   22800    239.17417    123.63295    152120.54   -47379.106    3586.7647   -50965.871    109.58428   0.98954625 
   22900      241.644    171.16614     152281.4   -47421.982    3623.8034   -51045.785    110.08398   0.98850098 
   23000    240.70049    234.87811    152293.36   -47324.997    3609.6542   -50934.652     110.2839   0.98842332 
   23100    238.36113   -111.68888    152403.49   -47297.392     3574.572   -50871.964    111.12932    0.9877091 
   23200    240.47931    30.977657    152429.72   -47274.811    3606.3373   -50881.149    111.93009   0.98753913 
   23300    240.60453   -81.885278    152325.34   -47310.017    3608.2151   -50918.232    112.80127   0.98821585 
   23400    236.49253   -216.99583    152015.82   -47341.814    3546.5497   -50888.364    113.97192    0.9902279 
   23500    239.61923    59.286378    151856.17   -47309.478    3593.4392   -50902.917    114.96312     0.991269 
   23600    238.99632   -104.20542    151871.28   -47360.571    3584.0976   -50944.668    115.90485   0.99117033 
   23700    241.25555     19.17124    151678.18   -47433.668    3617.9781   -51051.646    116.61121   0.99243217 
   23800    239.58725   -35.958574    151760.01   -47392.026    3592.9595   -50984.985    117.40189   0.99189708 
   23900    238.55252    51.385974    151842.83   -47349.826    3577.4422   -50927.268    118.08802   0.99135605 
   24000    240.91692    289.52505    151870.96   -47304.958    3612.8998   -50917.857    118.63566   0.99117247 
   24100    238.52936    13.466103    151837.97   -47359.989    3577.0949   -50937.084    118.93656   0.99138782 
   24200    246.09011   -112.59258    151756.37    -47266.96    3690.4794   -50957.439    119.25829   0.99192088 
   24300     235.4889   -128.92059    151729.57   -47295.302    3531.4988   -50826.801    119.85289   0.99209609 
   24400      242.543    29.111122    151700.56   -47213.525    3637.2852   -50850.811    120.44053    0.9922858 
   24500    239.10095    15.520293    151847.54   -47263.567    3585.6667   -50849.234     121.4535   0.99132529 
   24600    239.62294    18.372165    151963.75   -47271.964    3593.4948   -50865.459    121.71368   0.99056725 
   24700    244.26994   -144.99726    151945.97    -47223.86    3663.1833   -50887.044     121.8515   0.99068312 
   24800    240.69801    223.48917    151716.59   -47185.893    3609.6169    -50795.51    122.09154   0.99218096 
   24900    244.92069   -3.2949456       151644   -47279.226    3672.9422   -50952.168    122.44808   0.99265587 
   25000    241.09183    122.64122    151705.26   -47315.321    3615.5228   -50930.844    122.66422   0.99225502 
   25100    240.79328   -90.717742    151725.97   -47294.308    3611.0456   -50905.354     122.8631   0.99211959 
   25200     239.8878   -506.39251    151475.85   -47318.043    3597.4666    -50915.51    123.02804   0.99375779 
   25300     236.4571     18.64151    151407.15   -47342.068    3546.0184   -50888.087    123.25858   0.99420871 
   25400    236.45506    -23.54506    151499.91   -47321.679    3545.9877   -50867.667    123.72589   0.99359998 
   25500    244.85357    292.67281    151708.59   -47266.484    3671.9356    -50938.42    124.65021    0.9922333 
   25600    238.71576   -122.87792    151741.09   -47346.168    3579.8902   -50926.059    125.22301   0.99202074 
   25689    236.53992   -228.53228    151720.27   -47323.959    3547.2603   -50871.219    126.07361   0.99215692 
Loop time of 25.2503 on 12 procs for 25000 steps with 5032 atoms

Performance: 427.718 ns/day, 0.056 hours/ns, 990.087 timesteps/s
98.9% CPU use with 12 MPI tasks x no OpenMP threads

MPI task timing breakdown:
Section |  min time  |  avg time  |  max time  |%varavg| %total
---------------------------------------------------------------
Pair    | 17.733     | 18.828     | 19.339     |  10.1 | 74.56
Neigh   | 1.1283     | 1.1484     | 1.1971     |   1.7 |  4.55
Comm    | 1.3576     | 1.8058     | 2.579      |  27.3 |  7.15
Output  | 0.12276    | 0.13174    | 0.16124    |   2.5 |  0.52
Modify  | 2.4758     | 2.841      | 3.2544     |  12.0 | 11.25
Other   |            | 0.4957     |            |       |  1.96

Nlocal:        419.333 ave         435 max         409 min
Histogram: 1 4 0 1 2 1 2 0 0 1
Nghost:        1076.92 ave        1102 max        1050 min
Histogram: 1 1 1 1 2 1 1 2 1 1
Neighs:        0.00000 ave           0 max           0 min
Histogram: 12 0 0 0 0 0 0 0 0 0
FullNghs:      12052.2 ave       12736 max       11591 min
Histogram: 1 3 1 1 2 2 1 0 0 1

Total # of neighbors = 144626
Ave neighs/atom = 28.741256
Neighbor list builds = 1525
Dangerous builds = 0

unfix               2
unfix               3
unfix               4

write_data		data.whole_${NAME}
write_data		data.whole_Ibeam_MLmW_240K
System init for write_data ...


# Create the I-beam, width 95A
region beam block 47.5 142.5 0.0 INF 0.0 INF side out
delete_atoms region beam
Deleted 2501 atoms, new total = 2531

fix                 1 all momentum 10 linear 1 1 1 rescale
fix                 2 all nve
fix                 3 all temp/csvr ${TEMP} ${TEMP} 500.0 928347
fix                 3 all temp/csvr 240 ${TEMP} 500.0 928347
fix                 3 all temp/csvr 240 240 500.0 928347

# Run 0.05 ns equilibration
#
dump                2 all custom 1000 eq.${NAME}.dump id type x y z vx vy vz
dump                2 all custom 1000 eq.Ibeam_MLmW_240K.dump id type x y z vx vy vz
run                 10000
Per MPI rank memory allocation (min/avg/max) = 4.738 | 4.742 | 4.745 Mbytes
Step Temp Press Volume TotEng KinEng PotEng c_1[4] Density 
   25689    235.37432   -161.98514    151720.27   -23480.528    1775.0636   -25255.592    127.69945     0.499036 
   25700    243.06329    14.056386    151720.27   -23466.108    1833.0495   -25299.157    127.68406     0.499036 
   25800    246.83173    -136.6432    151720.27   -23447.169     1861.469   -25308.638    128.05958     0.499036 
   25900    245.72079   -61.629947    151720.27   -23526.302    1853.0909   -25379.393    128.11799     0.499036 
   26000    240.02495    101.05015    151720.27   -23523.559     1810.136   -25333.695    128.57219     0.499036 
   26100    244.40776   -131.21363    151720.27   -23517.828    1843.1887   -25361.017    129.16075     0.499036 
   26200    242.76059    31.284387    151720.27   -23572.887    1830.7667   -25403.653    129.73293     0.499036 
   26300     236.7552   -197.79179    151720.27   -23671.343    1785.4774    -25456.82    130.08726     0.499036 
   26400    232.88809   -112.64261    151720.27   -23666.025    1756.3138   -25422.339    130.50129     0.499036 
   26500    239.26003     190.9017    151720.27   -23725.868    1804.3674   -25530.235     130.7805     0.499036 
   26600    239.21185    162.36115    151720.27   -23689.602    1804.0041   -25493.606     131.0029     0.499036 
   26700    239.65392    9.1156798    151720.27   -23653.769    1807.3379   -25461.107    131.46646     0.499036 
   26800    239.60949   -92.332599    151720.27   -23669.165    1807.0029   -25476.168    131.84199     0.499036 
   26900    236.44029   -71.857132    151720.27   -23713.259    1783.1025   -25496.362    132.05008     0.499036 
   27000    243.45222    9.7955767    151720.27   -23699.467    1835.9826   -25535.449    132.62484     0.499036 
   27100    248.29895   -207.92821    151720.27   -23617.979     1872.534   -25490.513    133.31435     0.499036 
   27200    238.48938   -112.58107    151720.27   -23648.704    1798.5556   -25447.259      134.006     0.499036 
   27300    241.53447   -106.29187    151720.27   -23660.419      1821.52   -25481.939    133.99212     0.499036 
   27400    238.81116   -290.75796    151720.27   -23655.761    1800.9823   -25456.743    134.62865     0.499036 
   27500    242.76758   -96.504654    151720.27    -23637.48    1830.8194   -25468.299    134.53167     0.499036 
   27600    245.53798   -329.48056    151720.27   -23573.138    1851.7122    -25424.85    134.85433     0.499036 
   27700    246.92408    -86.57248    151720.27   -23540.722    1862.1654   -25402.887     134.8704     0.499036 
   27800     246.3569   -28.834318    151720.27   -23545.416    1857.8881   -25403.304    135.21548     0.499036 
   27900    242.91427    108.14869    151720.27   -23542.805    1831.9257   -25374.731    135.61431     0.499036 
   28000    237.45005   -96.489665    151720.27   -23600.539    1790.7175   -25391.256    135.97057     0.499036 
   28100    245.17501   -84.761931    151720.27   -23590.159     1848.975   -25439.134    136.67538     0.499036 
   28200    240.70139    171.50169    151720.27   -23584.526    1815.2373   -25399.763    136.93539     0.499036 
   28300    237.91026   -24.042524    151720.27   -23637.058    1794.1882   -25431.246    137.24964     0.499036 
   28400    243.89983   -58.819943    151720.27   -23595.051    1839.3583   -25434.409    137.72715     0.499036 
   28500    235.63751   -187.60278    151720.27   -23620.089    1777.0484   -25397.137    138.29987     0.499036 
   28600    239.72448   -22.142502    151720.27   -23669.855    1807.8701   -25477.725    139.18017     0.499036 
   28700    235.07751    167.12576    151720.27   -23719.708    1772.8252   -25492.533    139.69027     0.499036 
   28800    233.87648   -19.188952    151720.27   -23697.687    1763.7677   -25461.455    140.35866     0.499036 
   28900    232.90181   -105.68978    151720.27   -23703.587    1756.4173   -25460.004    140.97704     0.499036 
   29000    237.45472   -138.62851    151720.27   -23653.149    1790.7528   -25443.902    141.62074     0.499036 
   29100    238.34472    48.185408    151720.27   -23665.778    1797.4647   -25463.242    142.43785     0.499036 
   29200    238.46938   -13.418539    151720.27   -23670.323    1798.4048   -25468.728    142.80389     0.499036 
   29300    240.15267     136.2872    151720.27   -23680.603    1811.0992   -25491.702    142.91008     0.499036 
   29400    236.96964    40.082314    151720.27   -23717.357    1787.0946   -25504.452     143.4247     0.499036 
   29500    242.13558   -18.129139    151720.27     -23698.8    1826.0532   -25524.854    144.12769     0.499036 
   29600     241.4753   -57.104977    151720.27   -23709.885    1821.0738   -25530.959    144.76669     0.499036 
   29700    240.30814    -178.0424    151720.27   -23726.995    1812.2717   -25539.267    144.90602     0.499036 
   29800    242.25661   -298.62439    151720.27   -23689.661     1826.966   -25516.627    145.78721     0.499036 
   29900    245.61305    147.63897    151720.27   -23645.621    1852.2784   -25497.899      146.489     0.499036 
   30000    248.28995   -72.232567    151720.27   -23573.635    1872.4661   -25446.101    147.21716     0.499036 
   30100    248.35275   -63.807047    151720.27   -23592.407    1872.9397   -25465.346    147.91896     0.499036 
   30200    235.58904   -99.329085    151720.27   -23657.084    1776.6828   -25433.767    148.66884     0.499036 
   30300    234.41617   -245.61538    151720.27   -23674.511    1767.8377   -25442.349    149.29692     0.499036 
   30400    234.41781   -235.34922    151720.27   -23669.944    1767.8501   -25437.794    149.03207     0.499036 
   30500    239.83721     96.52802    151720.27   -23618.688    1808.7202   -25427.409    149.41711     0.499036 
   30600    245.31544    334.90289    151720.27   -23646.949     1850.034   -25496.983    150.04824     0.499036 
   30700    235.75663    205.87624    151720.27   -23698.365    1777.9467   -25476.312    150.89113     0.499036 
   30800    237.11853   -32.650768    151720.27   -23680.957    1788.2174   -25469.175      151.167     0.499036 
   30900    238.70654    53.989148    151720.27   -23663.923    1800.1933   -25464.116     151.9642     0.499036 
   31000    238.37658   0.72910321    151720.27   -23724.546    1797.7049   -25522.251      152.483     0.499036 
   31100    236.73641    100.61787    151720.27   -23686.658    1785.3357   -25471.993    153.35445     0.499036 
   31200    234.12889    108.86384    151720.27   -23718.928    1765.6712   -25484.599     154.1364     0.499036 
   31300    231.25853    187.05178    151720.27   -23735.017    1744.0245   -25479.041    154.99296     0.499036 
   31400    240.29878    275.95138    151720.27   -23684.668    1812.2011   -25496.869    155.22265     0.499036 
   31500    243.05213   -45.551202    151720.27   -23605.701    1832.9654   -25438.667    156.25045     0.499036 
   31600    236.32131   -21.782386    151720.27   -23644.821    1782.2052   -25427.026    156.57117     0.499036 
   31700    236.15036   -128.66582    151720.27   -23726.918     1780.916   -25507.834    157.67345     0.499036 
   31800    237.86086   -85.128944    151720.27   -23696.598    1793.8157   -25490.414    158.54791     0.499036 
   31900    234.76329   -225.14649    151720.27   -23650.718    1770.4555   -25421.174    159.40182     0.499036 
   32000    237.19193   -51.635539    151720.27     -23603.1     1788.771   -25391.871      160.379     0.499036 
   32100     243.0039    -229.3791    151720.27   -23593.074    1832.6017   -25425.676    161.12001     0.499036 
   32200     232.9375    136.34227    151720.27   -23613.052    1756.6864   -25369.738    161.80839     0.499036 
   32300    238.10107   -189.79898    151720.27   -23674.559    1795.6272   -25470.186    162.36508     0.499036 
   32400    237.12981    259.90052    151720.27   -23707.988    1788.3024   -25496.291     162.5756     0.499036 
   32500    244.96749    211.76941    151720.27   -23665.573      1847.41   -25512.983    162.94208     0.499036 
   32600    238.44023   -21.743435    151720.27   -23731.237    1798.1849   -25529.422      163.319     0.499036 
   32700    232.31351    215.90723    151720.27   -23758.923    1751.9806   -25510.903    164.21858     0.499036 
   32800    242.46988   -221.84085    151720.27   -23667.009    1828.5743   -25495.583    164.42866     0.499036 
   32900    238.90023   -221.87089    151720.27   -23678.224     1801.654   -25479.878    165.26661     0.499036 
   33000    239.19672   -288.01433    151720.27   -23758.049      1803.89   -25561.939      165.876     0.499036 
   33100    235.91753   -28.981976    151720.27   -23755.526    1779.1601   -25534.686    166.85605     0.499036 
   33200    230.87506   -2.9745562    151720.27   -23798.017    1741.1326    -25539.15    167.31219     0.499036 
   33300     232.3702     233.1149    151720.27   -23805.174    1752.4081   -25557.582    167.81929     0.499036 
   33400    234.31255    190.85739    151720.27   -23758.623    1767.0563   -25525.679    167.99053     0.499036 
   33500    238.71657     1.534973    151720.27    -23704.48    1800.2689   -25504.749    168.71191     0.499036 
   33600    244.23258   -24.636088    151720.27   -23683.899    1841.8677   -25525.767    168.61174     0.499036 
   33700    239.38161   -75.805123    151720.27   -23659.881    1805.2843   -25465.165    168.31996     0.499036 
   33800    239.48595    170.17422    151720.27   -23675.836    1806.0712   -25481.907    169.17765     0.499036 
   33900    235.54869   -101.58788    151720.27   -23724.153    1776.3785   -25500.532    169.72639     0.499036 
   34000    237.97529    41.241378    151720.27   -23736.975    1794.6786   -25531.653    169.19982     0.499036 
   34100    237.61176   -139.94408    151720.27   -23759.323     1791.937    -25551.26    169.53695     0.499036 
   34200     237.7408   -313.58833    151720.27   -23761.495    1792.9102   -25554.405     169.5583     0.499036 
   34300    236.86389   -78.363939    151720.27   -23705.235    1786.2971   -25491.532    169.55946     0.499036 
   34400     232.3222   -120.62276    151720.27   -23767.898    1752.0461   -25519.944    170.20231     0.499036 
   34500     240.6143   -258.50528    151720.27   -23698.874    1814.5806   -25513.454    171.01699     0.499036 
   34600    243.57073   -91.108626    151720.27   -23749.608    1836.8764   -25586.485    172.47488     0.499036 
   34700     244.4006    91.490121    151720.27   -23703.521    1843.1348   -25546.656    173.58645     0.499036 
   34800    239.38212    25.118434    151720.27   -23695.629    1805.2881   -25500.917    174.32655     0.499036 
   34900    243.85143   -107.76008    151720.27   -23745.798    1838.9932   -25584.791    174.95376     0.499036 
   35000    235.80533    27.083691    151720.27   -23760.382     1778.314   -25538.696    175.51739     0.499036 
   35100    238.93435   -13.838029    151720.27   -23758.615    1801.9113   -25560.526    176.05308     0.499036 
   35200    235.07457    23.582234    151720.27   -23730.171     1772.803   -25502.974    176.21586     0.499036 
   35300    228.15348    5.5985579    151720.27   -23799.879    1720.6079   -25520.486    176.90882     0.499036 
   35400    243.21713    111.18017    151720.27   -23707.214    1834.2097   -25541.423    177.19864     0.499036 
   35500    235.40266    -77.14652    151720.27   -23744.284    1775.2773   -25519.561    178.20084     0.499036 
   35600     241.3199    128.67341    151720.27   -23683.093    1819.9018   -25502.995    178.65459     0.499036 
   35689    241.67996   -48.964033    151720.27   -23613.732    1822.6172   -25436.349    179.66747     0.499036 
Loop time of 8.65992 on 12 procs for 10000 steps with 2531 atoms

Performance: 498.850 ns/day, 0.048 hours/ns, 1154.746 timesteps/s
99.6% CPU use with 12 MPI tasks x no OpenMP threads

MPI task timing breakdown:
Section |  min time  |  avg time  |  max time  |%varavg| %total
---------------------------------------------------------------
Pair    | 0.00047161 | 3.4643     | 7.6543     | 185.2 | 40.00
Neigh   | 0.0010821  | 0.20524    | 0.43099    |  44.2 |  2.37
Comm    | 0.0048303  | 1.6844     | 7.9481     | 197.7 | 19.45
Output  | 0.032372   | 0.032926   | 0.038106   |   0.9 |  0.38
Modify  | 0.14976    | 3.1942     | 8.5344     | 212.4 | 36.88
Other   |            | 0.07892    |            |       |  0.91

Nlocal:        210.917 ave         427 max           0 min
Histogram: 6 0 0 0 0 0 0 0 0 6
Nghost:        546.917 ave        1091 max           0 min
Histogram: 4 0 0 2 0 0 0 2 0 4
Neighs:        0.00000 ave           0 max           0 min
Histogram: 12 0 0 0 0 0 0 0 0 0
FullNghs:      5893.17 ave       12333 max           0 min
Histogram: 6 0 0 0 0 0 0 0 1 5

Total # of neighbors = 70718
Ave neighs/atom = 27.940735
Neighbor list builds = 571
Dangerous builds = 0


write_data		data.${NAME}
write_data		data.Ibeam_MLmW_240K
System init for write_data ...
Total wall time: 0:00:35
