
### Dimensions ###


### IMPORT ATOMS ###
read_data ../Box_Setup/data.Ibeam_235K
Reading data file ...
  orthogonal box = (0.0000000 0.0000000 0.0000000) to (78.752000 72.975319 40.002420)
  4 by 4 by 4 MPI processor grid
  reading atoms ...
  9010 atoms
  reading velocities ...
  9010 velocities
  read_data CPU = 0.023 seconds
group water type 2
2386 atoms in group water
group graphite type 1
6624 atoms in group graphite


# Define potential
#
pair_style          sw
pair_coeff * * MLC_e.sw C mW

# Add velocity/set timestep
#

fix		1 graphite setforce 0.0 0.0 0.0
velocity 	graphite set 0.0 0.0 0.0
velocity            water create ${START_TEMP} ${SEED} rot yes dist gaussian
velocity            water create 235 ${SEED} rot yes dist gaussian
velocity            water create 235 19978 rot yes dist gaussian
timestep            5.0

# Define output
#
compute 1 water msd
compute 2 water temp


thermo	            100
thermo_style custom step c_2 press vol etotal ke pe c_1[4] density

# Neighbor lists
#
neigh_modify        delay 0 every 1 check yes


# Set fixes
#
fix                 2 water momentum 10 linear 1 1 1 rescale
fix                 3 all nve
fix                 4 water temp/csvr ${START_TEMP} ${START_TEMP} 500.0 928347
fix                 4 water temp/csvr 235 ${START_TEMP} 500.0 928347
fix                 4 water temp/csvr 235 235 500.0 928347

# Run 0.05 ns equilibration
#
dump                1 all custom 100 ${DIR}/eq.${NAME}.dump id type x y z vx vy vz
dump                1 all custom 100 run_4/eq.${NAME}.dump id type x y z vx vy vz
dump                1 all custom 100 run_4/eq.ibeam_cooling_4.dump id type x y z vx vy vz
run                 10000
Neighbor list info ...
  update every 1 steps, delay 0 steps, check yes
  max neighbors/atom: 2000, page size: 100000
  master list distance cutoff = 6.6747184
  ghost atom cutoff = 6.6747184
  binsize = 3.3373592, bins = 24 22 12
  1 neighbor lists, perpetual/occasional/extra = 1 0 0
  (1) pair sw, perpetual
      attributes: full, newton on
      pair build: full/bin/atomonly
      stencil: full/bin/3d
      bin: standard
Per MPI rank memory allocation (min/avg/max) = 3.602 | 4.441 | 4.793 Mbytes
Step c_2 Press Volume TotEng KinEng PotEng c_1[4] Density 
       0          235   -397.42353       229892   -22660.138    1670.6695   -24330.807            0   0.88510766 
     100     233.3167   -111.51267       229892   -22658.966    1658.7025   -24317.669   0.83230493   0.88510766 
     200    231.18449   -304.46995       229892   -22683.969    1643.5442   -24327.514    1.2718107   0.88510766 
     300    233.24347    -366.3342       229892   -22669.967    1658.1819   -24328.149    1.6328794   0.88510766 
     400    231.44169   -345.55979       229892   -22677.466    1645.3726   -24322.838    1.9572119   0.88510766 
     500    239.68187   -438.85693       229892   -22663.212     1703.954   -24367.166    2.2297752   0.88510766 
     600    242.51556   -285.41058       229892   -22601.656    1724.0994   -24325.755    2.6331897   0.88510766 
     700    237.56166   -377.08029       229892   -22604.726     1688.881   -24293.607     2.961965   0.88510766 
     800    243.41219   -356.65557       229892   -22590.409    1730.4737   -24320.882     3.289417   0.88510766 
     900    235.87845   -330.45584       229892   -22615.978    1676.9146   -24292.892    3.5061454   0.88510766 
    1000    235.25124   -199.76097       229892   -22648.857    1672.4556   -24321.312    3.8573014   0.88510766 
    1100    235.64779   -320.19567       229892   -22630.558    1675.2748   -24305.833    4.0817612   0.88510766 
    1200    230.98675   -434.79846       229892   -22628.535    1642.1384   -24270.674    4.4717848   0.88510766 
    1300    237.61914   -235.09285       229892   -22582.935    1689.2896   -24272.225    4.6239389   0.88510766 
    1400    235.98717   -254.64451       229892   -22626.414    1677.6875   -24304.102    5.0016583   0.88510766 
    1500    234.43967   -271.07754       229892    -22651.64     1666.686   -24318.326    5.2762138   0.88510766 
    1600    232.73324   -356.36448       229892   -22619.816    1654.5546    -24274.37    5.6069959   0.88510766 
    1700    236.23003    -230.3195       229892   -22631.351    1679.4141   -24310.766    5.9221509   0.88510766 
    1800    236.46705   -455.70228       229892     -22594.8    1681.0991   -24275.899    6.1609785   0.88510766 
    1900    238.02602   -422.86668       229892   -22562.138    1692.1822   -24254.321    6.2973919   0.88510766 
    2000    240.26546   -201.64911       229892   -22528.655    1708.1029   -24236.758    6.5804639   0.88510766 
    2100    235.09533    -269.1555       229892   -22640.785    1671.3473   -24312.132    7.0547083   0.88510766 
    2200    232.03165   -371.70319       229892   -22604.323    1649.5668    -24253.89    7.5097908   0.88510766 
    2300    239.36351   -477.21926       229892   -22587.114    1701.6907   -24288.805    7.9719234   0.88510766 
    2400    237.17785   -256.26524       229892    -22595.65    1686.1523   -24281.803    8.1351615   0.88510766 
    2500    242.60128   -280.06461       229892   -22631.871    1724.7088    -24356.58    8.3000873   0.88510766 
    2600    236.48169   -451.77634       229892   -22654.172    1681.2032   -24335.375    8.5379166   0.88510766 
    2700    237.03475    -391.7947       229892   -22650.527     1685.135   -24335.662     9.017886   0.88510766 
    2800    237.26171   -409.46775       229892   -22601.261    1686.7485    -24288.01     9.160778   0.88510766 
    2900    237.23529   -325.07929       229892   -22603.043    1686.5607   -24289.603    9.3788363   0.88510766 
    3000    242.74241   -328.07651       229892   -22596.062    1725.7121   -24321.774    9.5712763   0.88510766 
    3100    240.82658    -415.2105       229892   -22595.357     1712.092   -24307.449    9.9768287   0.88510766 
    3200    237.84416   -365.23572       229892   -22650.694    1690.8893   -24341.583    10.269391   0.88510766 
    3300    230.51101   -442.93949       229892   -22731.685    1638.7562   -24370.441    10.387515   0.88510766 
    3400    235.45953   -271.63724       229892   -22681.016    1673.9364   -24354.952    10.649418   0.88510766 
    3500    240.04555   -268.56809       229892   -22682.081    1706.5395    -24388.62    10.750427   0.88510766 
    3600    238.31122    -467.2201       229892   -22681.574    1694.2098   -24375.784    10.983327   0.88510766 
    3700    234.58054   -422.71331       229892    -22636.81    1667.6875   -24304.498    11.220184   0.88510766 
    3800    236.52692   -368.27969       229892   -22625.386    1681.5247    -24306.91    11.631673   0.88510766 
    3900    234.86377   -249.30547       229892   -22618.529     1669.701    -24288.23    12.059494   0.88510766 
    4000     234.1858   -462.02554       229892   -22665.271    1664.8812   -24330.152    12.213727   0.88510766 
    4100    240.52534   -181.21423       229892    -22655.19    1709.9504    -24365.14    12.271855   0.88510766 
    4200    240.46002   -276.09777       229892   -22633.289    1709.4861   -24342.775    12.600343   0.88510766 
    4300    235.53115   -378.86582       229892   -22692.643    1674.4456   -24367.088    13.113015   0.88510766 
    4400    230.26016    -520.0432       229892   -22648.646    1636.9729   -24285.619     13.53259   0.88510766 
    4500    230.76186   -338.47657       229892   -22667.138    1640.5396   -24307.678    13.797986   0.88510766 
    4600    225.98081   -259.52999       229892   -22712.537      1606.55   -24319.087    14.253712   0.88510766 
    4700    236.87191   -541.75195       229892   -22642.285    1683.9773   -24326.262    14.710188   0.88510766 
    4800    240.92401   -321.76513       229892   -22602.467    1712.7846   -24315.251    14.818136   0.88510766 
    4900    238.38233   -262.53215       229892   -22566.735    1694.7153    -24261.45    15.290706   0.88510766 
    5000    238.07494    -462.7413       229892   -22627.897      1692.53   -24320.427    15.496854   0.88510766 
    5100    237.06653   -325.26202       229892   -22590.874     1685.361   -24276.235    15.466555   0.88510766 
    5200    236.77702   -415.34165       229892   -22639.105    1683.3027   -24322.408    15.672139   0.88510766 
    5300    230.69982   -309.18097       229892   -22709.757    1640.0986   -24349.856    15.943056   0.88510766 
    5400    233.18506   -305.56125       229892   -22693.167    1657.7666   -24350.933    16.106106   0.88510766 
    5500    237.64257   -468.43923       229892   -22703.067    1689.4562   -24392.523    16.029686   0.88510766 
    5600    235.74343   -424.13906       229892   -22731.673    1675.9547   -24407.628    16.282071   0.88510766 
    5700     235.3783   -351.61632       229892     -22708.9     1673.359   -24382.259    16.618408   0.88510766 
    5800    238.70548   -269.06185       229892   -22694.409    1697.0126   -24391.422    17.011706   0.88510766 
    5900    231.51141   -428.50315       229892   -22722.832    1645.8683     -24368.7    17.260139   0.88510766 
    6000    228.38948   -410.26596       229892    -22733.46    1623.6738   -24357.134    17.407568   0.88510766 
    6100    233.77731    -173.3574       229892   -22760.768    1661.9771   -24422.745    17.716308   0.88510766 
    6200    229.17986   -276.05918       229892   -22758.997    1629.2928    -24388.29    17.963934   0.88510766 
    6300    235.67197   -353.43977       229892   -22685.325    1675.4467   -24360.771    18.391713   0.88510766 
    6400    234.37369    -302.3668       229892   -22739.458    1666.2169   -24405.675    18.852514   0.88510766 
    6500    232.54893   -215.72087       229892   -22755.908    1653.2443   -24409.152    18.951789   0.88510766 
    6600    232.13312   -425.12748       229892   -22757.344    1650.2882   -24407.632    19.174512   0.88510766 
    6700    230.91529   -418.98229       229892   -22781.313    1641.6304   -24422.943    19.538833   0.88510766 
    6800    233.45259   -242.68807       229892   -22769.777    1659.6686   -24429.446    19.544601   0.88510766 
    6900    238.89268   -394.65913       229892   -22717.866    1698.3435   -24416.209    19.721311   0.88510766 
    7000    236.90591   -354.66296       229892   -22724.952    1684.2191   -24409.171    19.576158   0.88510766 
    7100    236.68482   -256.22745       229892   -22731.552    1682.6473     -24414.2    19.549655   0.88510766 
    7200    228.79921   -332.71361       229892   -22794.274    1626.5867    -24420.86    19.576643   0.88510766 
    7300    230.56422   -308.04941       229892    -22822.97    1639.1345   -24462.105    19.778283   0.88510766 
    7400    236.83057   -314.98138       229892    -22791.52    1683.6834   -24475.204    20.009949   0.88510766 
    7500     231.9927    -471.9528       229892   -22765.563    1649.2899   -24414.853    20.300492   0.88510766 
    7600    232.88495    -237.0379       229892   -22715.282    1655.6331   -24370.916    20.509359   0.88510766 
    7700    225.21418   -406.82789       229892   -22719.831    1601.0999   -24320.931    20.594256   0.88510766 
    7800    231.06697    -391.2696       229892   -22784.184    1642.7087   -24426.893    20.597621   0.88510766 
    7900    236.59235   -227.94951       229892   -22750.614    1681.9899   -24432.604    20.744163   0.88510766 
    8000    235.08725   -330.39459       229892    -22693.07    1671.2898    -24364.36    21.243635   0.88510766 
    8100    243.41105   -262.29657       229892   -22678.386    1730.4656   -24408.852    21.757797   0.88510766 
    8200    241.35621   -351.99251       229892   -22701.793    1715.8573   -24417.651    22.069521   0.88510766 
    8300    243.59984    -367.0015       229892   -22668.404    1731.8078   -24400.211     22.06825   0.88510766 
    8400    233.93602   -452.94721       229892   -22649.054    1663.1054    -24312.16    22.403085   0.88510766 
    8500    231.25323   -430.26838       229892   -22662.126    1644.0328   -24306.159    22.602651   0.88510766 
    8600    240.33861   -329.96118       229892   -22667.929    1708.6229   -24376.552    22.866723   0.88510766 
    8700    228.59784    -432.8377       229892   -22680.181    1625.1551   -24305.336    23.133265   0.88510766 
    8800    239.98185   -303.68562       229892   -22686.483    1706.0867    -24392.57    23.240416   0.88510766 
    8900    234.51278   -180.01119       229892   -22715.253    1667.2058   -24382.459    23.399104   0.88510766 
    9000    240.06348   -338.04779       229892   -22680.008     1706.667   -24386.675    23.639388   0.88510766 
    9100    235.60069    -319.8227       229892   -22706.917    1674.9399   -24381.857    23.655687   0.88510766 
    9200    242.83008   -218.71256       229892   -22662.654    1726.3354    -24388.99    23.795885   0.88510766 
    9300    231.84524     -313.679       229892   -22733.207    1648.2416   -24381.449     23.86043   0.88510766 
    9400    235.29594   -533.43129       229892    -22696.93    1672.7734   -24369.704    24.289256   0.88510766 
    9500    231.89068   -403.59791       229892   -22745.761    1648.5646   -24394.325    24.504007   0.88510766 
    9600    233.92618   -157.33041       229892   -22752.306    1663.0355   -24415.341    24.775409   0.88510766 
    9700    241.33359   -323.83458       229892   -22716.989    1715.6965   -24432.686    24.840114   0.88510766 
    9800    241.60134   -155.85816       229892    -22684.79       1717.6    -24402.39    24.828423   0.88510766 
    9900    230.71245    -222.9292       229892   -22718.176    1640.1883   -24358.364    25.182855   0.88510766 
   10000    232.05821   -492.77703       229892   -22699.658    1649.7556   -24349.413    25.608034   0.88510766 
Loop time of 17.9797 on 64 procs for 10000 steps with 9010 atoms

Performance: 240.271 ns/day, 0.100 hours/ns, 556.183 timesteps/s
99.1% CPU use with 64 MPI tasks x no OpenMP threads

MPI task timing breakdown:
Section |  min time  |  avg time  |  max time  |%varavg| %total
---------------------------------------------------------------
Pair    | 0.0012326  | 4.8426     | 14.697     | 242.1 | 26.93
Neigh   | 0.0013926  | 0.29023    | 1.0137     |  66.1 |  1.61
Comm    | 0.60866    | 7.0452     | 14.374     | 176.2 | 39.18
Output  | 0.20148    | 0.2027     | 0.20479    |   0.2 |  1.13
Modify  | 0.47114    | 5.2888     | 16.796     | 259.9 | 29.42
Other   |            | 0.3101     |            |       |  1.72

Nlocal:        140.781 ave         426 max           0 min
Histogram: 24 5 19 0 0 0 0 0 0 16
Nghost:        812.875 ave        1191 max          43 min
Histogram: 8 0 0 8 0 0 1 23 0 24
Neighs:         0.00000 ave           0 max           0 min
Histogram: 64 0 0 0 0 0 0 0 0 0
FullNghs:      13983.7 ave       52402 max           0 min
Histogram: 33 15 0 0 0 0 0 0 5 11

Total # of neighbors = 894958
Ave neighs/atom = 99.329412
Neighbor list builds = 571
Dangerous builds = 0
write_data 	    ${DIR}/data.${NAME}_eq
write_data 	    run_4/data.${NAME}_eq
write_data 	    run_4/data.ibeam_cooling_4_eq
System init for write_data ...

undump              1
unfix               4



################################################
#######         Run Simulation         #########
################################################

reset_timestep      0
timestep	    10.0
log                 ${DIR}/log.run_${NAME}
log                 run_4/log.run_${NAME}
log                 run_4/log.run_ibeam_cooling_4
