

### IMPORT ATOMS ###
read_data ../Box_Setup/data.Ibeam_240K
  orthogonal box = (0 0 0) to (157.504 42.9242 26.8557)
  16 by 4 by 2 MPI processor grid
  reading atoms ...
  9253 atoms
  reading velocities ...
  9253 velocities
group water type 2
1381 atoms in group water
group graphite type 1
7872 atoms in group graphite


# Define potential
#
pair_style          sw
pair_coeff * * MLC_e.sw C mW

# Add velocity/set timestep
#

fix		1 graphite setforce 0.0 0.0 0.0
velocity 	graphite set 0.0 0.0 0.0
velocity            water create ${START_TEMP} ${SEED} rot yes dist gaussian
velocity            water create 240 ${SEED} rot yes dist gaussian
velocity            water create 240 1469 rot yes dist gaussian
timestep            5.0

# Define output
#
compute 1 water msd
compute 2 water temp


thermo	            100
thermo_style custom step c_2 press vol etotal ke pe c_1[4] density

# Neighbor lists
#
neigh_modify        delay 0 every 1 check yes


# Set fixes
#
fix                 2 water momentum 10 linear 1 1 1 rescale
fix                 3 all nve
fix                 4 water temp/csvr ${START_TEMP} ${START_TEMP} 500.0 928347
fix                 4 water temp/csvr 240 ${START_TEMP} 500.0 928347
fix                 4 water temp/csvr 240 240 500.0 928347

# Run 0.05 ns equilibration
#
dump                1 all custom 100 ${DIR}/eq.${NAME}.dump id type x y z vx vy vz
dump                1 all custom 100 run_9/eq.${NAME}.dump id type x y z vx vy vz
dump                1 all custom 100 run_9/eq.ibeam_cooling_9.dump id type x y z vx vy vz
run                 10000
Neighbor list info ...
  update every 1 steps, delay 0 steps, check yes
  max neighbors/atom: 2000, page size: 100000
  master list distance cutoff = 6.67472
  ghost atom cutoff = 6.67472
  binsize = 3.33736, bins = 48 13 9
  1 neighbor lists, perpetual/occasional/extra = 1 0 0
  (1) pair sw, perpetual
      attributes: full, newton on
      pair build: full/bin/atomonly
      stencil: full/bin/3d
      bin: standard
Per MPI rank memory allocation (min/avg/max) = 3.359 | 4.246 | 4.732 Mbytes
Step c_2 Press Volume TotEng KinEng PotEng c_1[4] Density 
       0          240   -344.39513    181563.75    -13284.54    987.24429   -14271.784            0    1.0922001 
     100    249.25567   -255.91007    181563.75   -13246.991    1025.3177   -14272.309   0.86068336    1.0922001 
     200    241.94094    -340.9297    181563.75   -13287.082    995.22837    -14282.31    1.3976842    1.0922001 
     300    237.22915       -268.8    181563.75   -13264.274    975.84634    -14240.12    1.7659049    1.0922001 
     400    240.05485   -365.28051    181563.75   -13276.536     987.4699   -14264.005    2.1783117    1.0922001 
     500    241.13931   -343.71985    181563.75   -13292.875    991.93084   -14284.806    2.4951348    1.0922001 
     600    227.70438   -341.14927    181563.75   -13373.884    936.66603    -14310.55    3.0294329    1.0922001 
     700    233.36297    -247.9555    181563.75   -13367.613    959.94274   -14327.556     3.482913    1.0922001 
     800     234.2767   -386.40447    181563.75   -13397.569    963.70139    -14361.27    4.0391737    1.0922001 
     900    231.49582   -319.78426    181563.75   -13364.433    952.26221   -14316.695    4.6638507    1.0922001 
    1000    240.95925   -390.64269    181563.75    -13317.82    991.19018    -14309.01     5.141815    1.0922001 
    1100    236.04645   -331.67088    181563.75   -13326.753    970.98129   -14297.734    5.5070673    1.0922001 
    1200    229.42545   -360.82031    181563.75   -13364.698    943.74568   -14308.443    5.8990183    1.0922001 
    1300    231.56349   -202.69574    181563.75   -13322.859    952.54054   -14275.399    6.3316956    1.0922001 
    1400    245.18388   -317.62334    181563.75   -13257.627    1008.5683   -14266.195    6.7386344    1.0922001 
    1500    238.23674   -423.35937    181563.75   -13259.768    979.99111   -14239.759    7.1317456    1.0922001 
    1600    244.90069   -349.84859    181563.75   -13235.232    1007.4033   -14242.635    7.5286391    1.0922001 
    1700     239.6412   -439.17782    181563.75   -13258.127    985.76837   -14243.895    8.1006425    1.0922001 
    1800    237.20104   -391.70056    181563.75   -13258.026    975.73073   -14233.757    8.6702913    1.0922001 
    1900    252.07682   -302.64314    181563.75   -13213.815    1036.9225   -14250.738    9.2541444    1.0922001 
    2000    253.26183   -200.84584    181563.75   -13196.547    1041.7971   -14238.344    9.4978488    1.0922001 
    2100    246.99467     -296.542    181563.75   -13201.038     1016.017   -14217.055    10.040865    1.0922001 
    2200    249.44195   -474.65414    181563.75   -13201.624    1026.0839   -14227.708    10.612173    1.0922001 
    2300    244.72418   -463.38517    181563.75    -13248.35    1006.6773   -14255.027    10.975866    1.0922001 
    2400    246.85903   -320.79541    181563.75   -13244.229     1015.459   -14259.688    11.687432    1.0922001 
    2500    240.16405   -428.63601    181563.75   -13225.606    987.91913   -14213.525    12.040334    1.0922001 
    2600    246.55149   -379.87448    181563.75   -13258.422     1014.194   -14272.616    12.471217    1.0922001 
    2700    242.58444   -295.95292    181563.75   -13236.322    997.87543   -14234.197    12.682539    1.0922001 
    2800    230.73462   -281.32718    181563.75   -13240.969    949.13097     -14190.1    12.828292    1.0922001 
    2900    234.40792   -353.33682    181563.75   -13283.364    964.24116   -14247.606     13.07901    1.0922001 
    3000    234.66466   -374.32119    181563.75   -13310.442    965.29726    -14275.74    13.421081    1.0922001 
    3100    239.95176   -249.66138    181563.75   -13298.685    987.04584   -14285.731    13.573048    1.0922001 
    3200    241.30922   -284.20866    181563.75   -13321.777     992.6298   -14314.407    13.736875    1.0922001 
    3300    243.01461   -388.37776    181563.75   -13269.776    999.64493   -14269.421    14.364975    1.0922001 
    3400    236.47123   -508.24353    181563.75   -13282.081    972.72865   -14254.809    14.957165    1.0922001 
    3500    241.69046   -441.70929    181563.75   -13291.899    994.19803   -14286.097    15.207474    1.0922001 
    3600    250.21614   -272.13104    181563.75    -13279.88    1029.2686   -14309.148    15.544366    1.0922001 
    3700    241.72176   -321.27959    181563.75   -13318.005    994.32678   -14312.332    16.054133    1.0922001 
    3800    243.84942   -337.26335    181563.75   -13311.438     1003.079   -14314.517    16.520872    1.0922001 
    3900    234.93904     -483.468    181563.75   -13316.563    966.42596   -14282.989    16.625465    1.0922001 
    4000    235.30887    -481.0211    181563.75   -13325.381    967.94723   -14293.328    16.864655    1.0922001 
    4100    237.80351   -389.71148    181563.75   -13296.152    978.20901   -14274.361    16.971426    1.0922001 
    4200     244.2654   -396.73844    181563.75   -13269.772    1004.7901   -14274.562    17.052041    1.0922001 
    4300    249.06369   -312.44251    181563.75   -13214.665    1024.5279   -14239.193    17.378829    1.0922001 
    4400    243.51597   -298.19144    181563.75   -13223.506    1001.7073   -14225.214      17.7784    1.0922001 
    4500     243.2581   -317.19104    181563.75   -13277.447    1000.6466   -14278.093    17.901646    1.0922001 
    4600    238.04227   -250.71321    181563.75   -13296.845    979.19115   -14276.036    18.825308    1.0922001 
    4700    248.53607   -228.71597    181563.75   -13306.421    1022.3575   -14328.778    19.314272    1.0922001 
    4800    243.07473   -256.05153    181563.75   -13293.572    999.89225   -14293.464    19.621507    1.0922001 
    4900    234.91846   -223.53323    181563.75   -13307.111    966.34127   -14273.452    19.857089    1.0922001 
    5000    245.34198   -388.54516    181563.75   -13328.133    1009.2186   -14337.352    20.116478    1.0922001 
    5100    237.31072   -336.78786    181563.75   -13344.055    976.18188   -14320.237    20.329835    1.0922001 
    5200    232.54457     -363.232    181563.75   -13320.014    956.57626    -14276.59    20.344941    1.0922001 
    5300    228.03099   -512.66555    181563.75   -13355.604    938.00955   -14293.614    20.647039    1.0922001 
    5400    237.85936   -221.44921    181563.75    -13318.54    978.43872   -14296.978    21.307468    1.0922001 
    5500    233.79448   -206.94911    181563.75    -13348.77    961.71778   -14310.488    21.820317    1.0922001 
    5600    234.36494   -197.37506    181563.75   -13359.209    964.06437   -14323.273    22.203974    1.0922001 
    5700    237.47494    -302.2239    181563.75   -13325.973    976.85742    -14302.83    22.286438    1.0922001 
    5800    251.43973   -421.78651    181563.75   -13259.816    1034.3018   -14294.118    22.293022    1.0922001 
    5900    238.73242   -453.20489    181563.75   -13296.707    982.03007   -14278.737    23.362167    1.0922001 
    6000    235.45541    -317.7274    181563.75   -13360.985    968.55004   -14329.535    23.669529    1.0922001 
    6100     237.8781   -219.79363    181563.75     -13347.2    978.51581   -14325.715    24.198419    1.0922001 
    6200    230.46459   -243.70131    181563.75   -13322.443    948.02019   -14270.463    24.717534    1.0922001 
    6300    241.67198   -264.32645    181563.75   -13297.223    994.12202   -14291.345    25.152995    1.0922001 
    6400    238.23477   -435.89689    181563.75    -13297.67    979.98299   -14277.653    25.009389    1.0922001 
    6500     248.9236   -429.42338    181563.75   -13303.629    1023.9517    -14327.58    25.485856    1.0922001 
    6600    238.84014   -352.92608    181563.75   -13346.398    982.47318   -14328.871    25.961277    1.0922001 
    6700    233.59958   -260.61985    181563.75   -13360.196    960.91605   -14321.113    26.804156    1.0922001 
    6800    235.87665   -352.58634    181563.75   -13334.845    970.28282   -14305.128    27.193095    1.0922001 
    6900     226.9882   -309.93309    181563.75   -13369.208    933.72001   -14302.928    28.104483    1.0922001 
    7000    226.94108    -217.8431    181563.75   -13356.366    933.52617   -14289.892    28.489755    1.0922001 
    7100    240.07477   -280.53856    181563.75   -13275.376    987.55184   -14262.928    28.767372    1.0922001 
    7200    247.47705   -302.21714    181563.75   -13286.328    1018.0013   -14304.329    29.030974    1.0922001 
    7300     231.5814   -384.95348    181563.75   -13342.473    952.61421   -14295.087    29.271917    1.0922001 
    7400    232.60348   -372.59733    181563.75   -13340.646    956.81856   -14297.464    29.721519    1.0922001 
    7500    232.75851   -371.93579    181563.75   -13357.402    957.45627   -14314.859    29.949888    1.0922001 
    7600    229.94856   -354.33905    181563.75   -13365.226    945.89752   -14311.123    30.391108    1.0922001 
    7700    234.33544   -305.25085    181563.75   -13343.678    963.94303   -14307.621    30.726152    1.0922001 
    7800    235.93655   -281.63007    181563.75   -13304.657    970.52921   -14275.187    30.852995    1.0922001 
    7900    237.36935    -217.2238    181563.75   -13308.348    976.42308   -14284.772    31.026535    1.0922001 
    8000    236.19847   -283.30121    181563.75    -13309.33    971.60662   -14280.936    30.844978    1.0922001 
    8100    239.89372   -370.62524    181563.75   -13332.753     986.8071    -14319.56    30.737174    1.0922001 
    8200      230.371   -505.05109    181563.75   -13351.286    947.63521   -14298.921    31.051172    1.0922001 
    8300    231.52775   -427.72106    181563.75    -13362.54    952.39354   -14314.934    31.270897    1.0922001 
    8400    233.51135   -354.73388    181563.75   -13362.958    960.55311   -14323.512    31.708544    1.0922001 
    8500    240.22104   -308.93619    181563.75   -13342.137    988.15352   -14330.291    31.594994    1.0922001 
    8600    243.25295   -346.84988    181563.75    -13306.19    1000.6253   -14306.816    31.298991    1.0922001 
    8700    225.19187   -415.16044    181563.75   -13358.074    926.33077   -14284.404    31.500513    1.0922001 
    8800    240.87258   -372.06184    181563.75   -13310.671    990.83366   -14301.505    30.978326    1.0922001 
    8900    239.53228   -431.73096    181563.75   -13328.018    985.32033   -14313.338    31.296941    1.0922001 
    9000    243.49759   -363.27407    181563.75   -13304.205    1001.6317   -14305.837    31.646999    1.0922001 
    9100    241.36138   -360.14589    181563.75   -13306.277    992.84433   -14299.121    31.904553    1.0922001 
    9200    239.11205   -329.17715    181563.75   -13347.521     983.5917   -14331.113    32.066626    1.0922001 
    9300    231.19789   -424.32407    181563.75   -13365.699    951.03666   -14316.736    32.071967    1.0922001 
    9400    237.27788    -319.5514    181563.75   -13377.578    976.04679   -14353.625    32.433765    1.0922001 
    9500    233.01077   -285.58954    181563.75   -13363.591    958.49397   -14322.085    33.470588    1.0922001 
    9600    227.62314   -328.39591    181563.75   -13418.274    936.33185   -14354.606    33.988193    1.0922001 
    9700    236.89578   -253.42247    181563.75   -13358.521    974.47503   -14332.996    34.187402    1.0922001 
    9800    234.21106   -352.03115    181563.75   -13388.328    963.43138    -14351.76    34.717355    1.0922001 
    9900    237.44399   -297.21013    181563.75   -13332.886    976.73011   -14309.616    35.164016    1.0922001 
   10000    252.07018   -494.61018    181563.75   -13279.036    1036.8952   -14315.931    35.656812    1.0922001 
Loop time of 12.9337 on 128 procs for 10000 steps with 9253 atoms

Performance: 334.010 ns/day, 0.072 hours/ns, 773.172 timesteps/s
97.6% CPU use with 128 MPI tasks x no OpenMP threads

MPI task timing breakdown:
Section |  min time  |  avg time  |  max time  |%varavg| %total
---------------------------------------------------------------
Pair    | 0.00082278 | 3.4248     | 10.346     | 216.4 | 26.48
Neigh   | 0.0045033  | 0.12013    | 0.30447    |  27.9 |  0.93
Comm    | 0.17895    | 1.9667     | 8.3885     | 155.2 | 15.21
Output  | 0.15205    | 0.15228    | 0.15928    |   0.2 |  1.18
Modify  | 0.43961    | 7.0604     | 12.407     | 194.8 | 54.59
Other   |            | 0.2095     |            |       |  1.62

Nlocal:    72.2891 ave 151 max 0 min
Histogram: 40 0 8 16 0 0 0 21 33 10
Nghost:    704.742 ave 970 max 516 min
Histogram: 27 11 10 24 13 3 7 15 2 16
Neighs:    0 ave 0 max 0 min
Histogram: 128 0 0 0 0 0 0 0 0 0
FullNghs:  7805.09 ave 18494 max 0 min
Histogram: 44 20 0 0 0 0 3 32 20 9

Total # of neighbors = 999052
Ave neighs/atom = 107.971
Neighbor list builds = 553
Dangerous builds = 0
write_data 	    ${DIR}/data.${NAME}_eq
write_data 	    run_9/data.${NAME}_eq
write_data 	    run_9/data.ibeam_cooling_9_eq

undump              1
unfix               4



################################################
#######         Run Simulation         #########
################################################

reset_timestep      0
timestep	    10.0
log                 ${DIR}/log.run_${NAME}
log                 run_9/log.run_${NAME}
log                 run_9/log.run_ibeam_cooling_9
