
# Set production fixes - Nose/Hoover
#
fix                 4 water temp/csvr ${START_TEMP} ${END_TEMP} 500.0 928347
fix                 4 water temp/csvr 240 ${END_TEMP} 500.0 928347
fix                 4 water temp/csvr 240 227 500.0 928347


## divide "droplet" into core and surface
#region		core_reg cylinder z 135 135 44.6 20 INF units box
#region		surface_reg cylinder z 135 135 44.6 20 INF units box side out
#group		core dynamic all region core_reg
#group		surface dynamic all region surface_reg

## compute pressure core
#compute        peratom_core core stress/atom NULL
#compute        p_core core reduce sum c_peratom_core[1] c_peratom_core[2] c_peratom_core[3]
#variable       press_core equal -(c_p_core[1]+c_p_core[2]+c_p_core[3])/(3*1249982.5)


## compute pressure surface
#compute        peratom_surf surface stress/atom NULL
#compute        p_surf surface reduce sum c_peratom_surf[1] c_peratom_surf[2] #c_peratom_surf[3]
#variable       press_surf equal -(c_p_surf[1]+c_p_surf[2]+c_p_surf[3])/(3*33365)

## compute total pressure of drop
compute        peratom water stress/atom NULL
compute        p water reduce sum c_peratom[1] c_peratom[2] c_peratom[3]
variable       press equal -(c_p[1]+c_p[2]+c_p[3])/(3*50320)


# compute order parameter
compute        3 all orientorder/atom nnn NULL cutoff 3.5

# compute center of mass of bridge
compute 	4 water com

# Run simulation
thermo_style        custom step c_2 press vol etotal ke pe v_press c_1[4] c_4[*]
thermo              200
dump		     1 water custom 400 ${DIR}/prod.${NAME}.dump id type x y z vx vy vz c_3[*] c_peratom[*]
dump		     1 water custom 400 run_9/prod.${NAME}.dump id type x y z vx vy vz c_3[*] c_peratom[*]
dump		     1 water custom 400 run_9/prod.ibeam_cooling_9.dump id type x y z vx vy vz c_3[*] c_peratom[*]
run                 ${STEPS}
run                 5200000
Neighbor list info ...
  update every 1 steps, delay 0 steps, check yes
  max neighbors/atom: 2000, page size: 100000
  master list distance cutoff = 6.67472
  ghost atom cutoff = 6.67472
  binsize = 3.33736, bins = 48 13 9
  2 neighbor lists, perpetual/occasional/extra = 1 1 0
  (1) pair sw, perpetual
      attributes: full, newton on
      pair build: full/bin/atomonly
      stencil: full/bin/3d
      bin: standard
  (2) compute orientorder/atom, occasional, copy from (1)
      attributes: full, newton on
      pair build: copy
      stencil: none
      bin: none
Per MPI rank memory allocation (min/avg/max) = 6.133 | 6.575 | 7.261 Mbytes
Step c_2 Press Volume TotEng KinEng PotEng v_press c_1[4] c_4[1] c_4[2] c_4[3] 
       0    252.07018   -494.61018    181563.75   -13279.036    1036.8952   -14315.931   -1199.3006    35.656812    78.709192    25.129589    16.468713 
     200    236.43019   -254.97706    181563.75   -13296.094    972.55981   -14268.654   -378.14815    36.141756    78.709988    25.126974     16.44525 
     400     236.0357   -554.12875    181563.75   -13298.769    970.93707   -14269.706    -1443.716    37.261756    78.708115    25.127118    16.443807 
     600    227.98309   -485.09593    181563.75   -13379.241     937.8125   -14317.054   -1135.3805    38.848916    78.707828    25.126588    16.459489 
     800    237.25509    -290.0932    181563.75   -13383.926    975.95307   -14359.879   -467.46031    39.810439    78.707607    25.124846    16.475012 
    1000    242.58282   -421.02392    181563.75   -13278.557    997.86878   -14276.425   -974.15877    39.943456    78.706785    25.126297    16.445724 
    1200    233.10807   -279.94576    181563.75   -13333.283    958.89423   -14292.177   -440.41033    42.547281    78.708219     25.12636    16.473633 
    1400    248.30265   -316.74518    181563.75   -13213.999    1021.3974   -14235.397     -546.473    43.638758    78.709728     25.12353    16.466208 
    1600    244.52517   -164.48729    181563.75   -13240.029    1005.8586   -14245.888   -26.473569    44.982804    78.710882     25.12769    16.468443 
    1800    237.19895   -472.75681    181563.75    -13269.18    975.72211   -14244.903      -1079.8    46.553649    78.714593    25.127746    16.468007 
    2000    248.84089   -302.78218    181563.75   -13176.515    1023.6114   -14200.126   -512.74736    48.937849    78.714553    25.125406    16.475954 
    2200     244.7765   -280.75853    181563.75   -13188.026    1006.8925   -14194.918    -426.7071    50.060005    78.713811    25.124847    16.443307 
    2400    244.23287   -388.88814    181563.75   -13228.357    1004.6563   -14233.014   -813.90015    52.259554     78.71466    25.127123    16.439068 
    2600    245.36014   -248.96926    181563.75   -13257.912    1009.2933   -14267.205   -287.40055    54.190646    78.714558     25.12887    16.428143 
    2800    234.21075   -307.07747    181563.75   -13262.769     963.4301   -14226.199   -518.72419    54.561174    78.714541    25.130153    16.424042 
    3000     240.5056   -444.64551    181563.75   -13347.274    989.32409   -14336.598   -1048.1273    55.959604    78.715258    25.132299    16.426769 
    3200    232.19995     -229.184    181563.75    -13342.75    955.15863   -14297.908   -284.32812    58.749439    78.719474     25.13031    16.418222 
    3400    235.94599   -298.53404    181563.75   -13306.387    970.56807   -14276.955    -505.0649     61.93953    78.723474    25.127462    16.438849 
    3600    233.88902    -405.1326    181563.75   -13290.342    962.10668   -14252.448   -881.35818    63.442285    78.726655       25.128    16.448124 
    3800    233.45051   -367.03139    181563.75   -13300.852    960.30284   -14261.155   -710.40968    63.317662    78.727556    25.127997    16.455503 
    4000    236.34978   -341.06811    181563.75    -13304.55    972.22904   -14276.779   -653.53603    63.919564    78.726782    25.127443    16.425519 
    4200    257.74864   -365.57517    181563.75   -13251.827    1060.2536    -14312.08   -685.97356    65.167327    78.725565    25.129591    16.402933 
    4400    245.35673    -294.6022    181563.75   -13215.431    1009.2793   -14224.711     -458.885    66.417167    78.727912    25.127259    16.396949 
    4600    246.33122   -449.24794    181563.75   -13293.951    1013.2879   -14307.239   -1034.7413    69.808508    78.729073    25.128778    16.395247 
    4800    243.93198   -267.66857    181563.75   -13254.674    1003.4186   -14258.092   -389.80985     71.30429    78.729102    25.133155    16.405427 
    5000     246.5499    -391.1217    181563.75   -13317.814    1014.1874   -14332.002    -813.7969    71.965575    78.727147    25.135778     16.39067 
    5200    232.57047   -274.46141    181563.75    -13320.02    956.68277   -14276.703   -418.68425    73.887142    78.726502    25.139457    16.394531 
    5400    241.02296   -374.65256    181563.75   -13303.712    991.45227   -14295.164   -781.90437    76.088354     78.72806    25.141033    16.410149 
    5600    240.63427   -409.55339    181563.75   -13346.105    989.85336   -14335.958   -882.14133    76.365121    78.728792    25.147118    16.412446 
    5800    248.49894   -390.95826    181563.75   -13242.158    1022.2048   -14264.363   -828.72223    77.120297    78.730459    25.149694    16.405666 
    6000    231.53836   -328.43508    181563.75   -13361.741    952.43718   -14314.178   -585.05152    76.741701    78.732531    25.150852    16.388352 
    6200    235.48804     -295.084    181563.75   -13298.658    968.68426   -14267.343   -465.48948    76.613073     78.73359    25.153822    16.410252 
    6400    235.57893   -296.62185    181563.75   -13259.963    969.05813   -14229.021   -466.32874    77.437145    78.730251    25.151687    16.398535 
    6600    230.84438   -310.51743    181563.75     -13316.2    949.58249   -14265.782   -542.42993     79.90338    78.725803     25.15278    16.398123 
    6800    235.15949   -250.55276    181563.75    -13319.01    967.33277   -14286.343   -289.75751    81.298908    78.727748    25.154552    16.399874 
    7000    245.04912    -228.0698    181563.75   -13347.982    1008.0139   -14355.996   -244.97078    82.259882    78.732918    25.154243    16.406674 
    7200    240.15025   -447.40412    181563.75   -13290.481    987.86233   -14278.344   -991.08816    82.583564    78.733994    25.156613    16.405858 
    7400    232.79748   -434.25794    181563.75    -13371.91    957.61658   -14329.527   -973.98109     81.96141     78.73218     25.16048    16.428623 
    7600    239.80791   -358.45164    181563.75   -13366.379    986.45414   -14352.833    -707.7856    83.043587    78.732949    25.164991    16.410342 
    7800    241.22849   -381.14401    181563.75   -13291.965    992.29769   -14284.262   -779.85951    86.409786    78.732111    25.164967     16.38566 
    8000    245.13666   -177.85813    181563.75   -13292.714     1008.374   -14301.088    -69.36526    88.712592    78.734637    25.167674    16.409348 
    8200     246.5954   -288.78738    181563.75   -13349.148    1014.3746   -14363.523   -466.09904    89.552641    78.733098    25.170757    16.383992 
    8400    236.97491   -212.10708    181563.75   -13376.271    974.80052   -14351.072   -160.01509    92.142157    78.729572    25.173719    16.375952 
    8600    246.00028   -400.55455    181563.75   -13313.059    1011.9266   -14324.986   -844.36728    93.250525    78.729298    25.178116    16.392254 
    8800    237.89448   -292.08584    181563.75   -13298.808     978.5832   -14277.391   -471.33692    95.073608     78.73229    25.177781    16.409624 
    9000    239.39497   -349.15668    181563.75   -13310.298     984.7555   -14295.054   -700.79477    97.221776    78.731674    25.178677    16.362958 
    9200    243.45906   -283.64342    181563.75   -13357.782    1001.4732   -14359.255   -448.58063     98.66517    78.731113    25.176813    16.332212 
    9400    240.44808   -260.83546    181563.75    -13373.32    989.08746   -14362.407   -359.00715    98.568533    78.729901    25.175425    16.324208 
    9600    225.33261   -441.84905    181563.75   -13414.288    926.90973   -14341.197   -986.07117    99.868953    78.731633    25.180356    16.321908 
    9800    235.11147   -461.52605    181563.75   -13343.938    967.13522   -14311.073   -1108.0098     100.8032     78.73189    25.180243    16.316545 
   10000    243.44281   -464.51289    181563.75    -13214.41    1001.4064   -14215.817   -1140.9537    102.25294    78.734417    25.182201    16.310731 
   10200    250.12777   -145.55455    181563.75   -13242.569    1028.9051   -14271.474    4.0707423    103.24644    78.734789    25.185598    16.301244 
   10400    244.26022   -362.12495    181563.75   -13259.407    1004.7688   -14264.175   -724.94899    105.56497    78.735533    25.191769    16.314631 
   10600    236.94119   -430.04839    181563.75   -13241.491     974.6618   -14216.153     -989.367    107.67261    78.735642    25.192455     16.32251 
   10800    243.22578    -214.2971    181563.75   -13280.971    1000.5136   -14281.485    -218.2468    107.31159    78.736427    25.191313    16.332381 
   11000    234.37284   -320.49801    181563.75   -13316.131    964.09687   -14280.228   -575.85917    108.72372    78.737661    25.188217    16.325199 
   11200     237.0587   -438.24334    181563.75   -13327.261     975.1452   -14302.407   -1050.1471     109.1522    78.736206    25.188472    16.326454 
   11400    242.25105   -252.64491    181563.75   -13273.758    996.50402   -14270.262   -347.73108     111.3221    78.735181    25.190472    16.332532 
   11600    233.67159   -293.46564    181563.75   -13254.526    961.21225   -14215.739   -440.42195    112.23331    78.735195    25.191538    16.330403 
   11800     237.7885   -323.22362    181563.75   -13253.488    978.14723   -14231.635   -557.27652    113.96272    78.731953    25.190688     16.34894 
   12000    240.94163   -94.493424    181563.75   -13215.645    991.11768   -14206.762    262.06906    114.98514    78.733092    25.191862    16.335817 
   12200    239.35975   -349.51649    181563.75    -13227.77    984.61062   -14212.381   -679.10495    117.89316    78.733007    25.194717    16.345851 
   12400    249.84244   -200.12826    181563.75   -13200.305    1027.7314   -14228.037   -137.29494    119.37696    78.734294    25.199516    16.370006 
   12600    247.37034   -224.28054    181563.75   -13176.275    1017.5623   -14193.837   -280.06782    121.67573    78.732413    25.199729    16.379066 
   12800    240.51581   -256.02135    181563.75   -13264.517     989.3661   -14253.883   -324.95304     123.8806    78.736375    25.199109    16.366515 
   13000    237.18475   -369.74997    181563.75   -13297.769    975.66371   -14273.433    -771.4249    124.05702    78.733771     25.19686    16.370256 
   13200    240.80343   -264.74616    181563.75   -13265.021     990.5492    -14255.57   -373.24605    126.10334    78.735362    25.192329    16.372699 
   13400    238.76439   -308.34678    181563.75   -13204.051     982.1616   -14186.212   -476.00553    126.65921    78.738014    25.189028    16.368145 
   13600    233.02808   -336.79968    181563.75    -13232.25    958.56516   -14190.815   -623.21264    128.08374     78.73951    25.189075    16.388532 
   13800    239.30147    -554.4762    181563.75   -13270.957    984.37089   -14255.328   -1364.0228    130.38943    78.739128    25.193559    16.419752 
   14000    238.64723   -487.90035    181563.75   -13254.139    981.67964   -14235.819   -1162.2862    130.99581    78.739556    25.190129    16.427142 
   14200    235.07797   -417.75148    181563.75    -13315.29    966.99743   -14282.287   -939.65017    134.24966    78.741032    25.188631    16.396284 
   14400    225.12493   -167.76873    181563.75   -13357.407    926.05542   -14283.463   -26.353553    133.73843    78.746893    25.186808    16.387622 
   14600    234.51323   -498.89502    181563.75   -13331.944    964.67434   -14296.618   -1243.8019    133.24528    78.750998    25.187147    16.377675 
   14800    237.04865   -357.21596    181563.75   -13296.998    975.10384   -14272.102    -718.8746      133.453     78.75048    25.186285    16.393964 
   15000    239.24684   -318.50068    181563.75   -13280.699    984.14615   -14264.845   -619.77536    133.78767    78.750555    25.188559    16.408818 
   15200    238.07258   -246.86108    181563.75   -13340.955    979.31583    -14320.27   -259.39025    134.06944    78.752511    25.191703    16.426208 
   15400     236.4595   -543.46927    181563.75   -13268.825    972.68038   -14241.505   -1340.3049    136.38839     78.75496     25.19077    16.405044 
   15600    235.87957   -476.95825    181563.75   -13327.276    970.29482   -14297.571   -1099.0353    137.64039    78.755738    25.193188    16.397615 
   15800     248.2005   -463.42825    181563.75   -13248.751    1020.9772   -14269.728   -1093.0398     139.1375    78.757569     25.19706    16.389944 
   16000    234.52078   -403.90977    181563.75   -13317.304    964.70543    -14282.01   -857.26924     140.7282    78.756646    25.200165    16.392969 
   16200    254.85497   -369.25161    181563.75   -13240.488    1048.3505   -14288.839   -727.59045    143.61818    78.756298    25.197793    16.388206 
   16400    252.36876   -425.17115    181563.75   -13237.212    1038.1234   -14275.335   -941.55131    146.02388    78.754935    25.196448    16.385267 
   16600    237.42539   -353.26147    181563.75   -13291.193    976.65358   -14267.847   -700.02456    147.81332    78.750369    25.200303    16.379448 
   16800    243.52427   -476.52369    181563.75   -13271.588    1001.7414   -14273.329   -1123.8727     148.8767     78.75015    25.201479    16.372048 
   17000    240.47294   -315.30956    181563.75   -13302.438    989.18975   -14291.628   -579.98594    149.24798    78.748766    25.206119    16.381841 
   17200    239.98545    -486.6645    181563.75   -13315.309    987.18444   -14302.493   -1174.6311     152.2962    78.753279    25.210991    16.374396 
   17400    242.14571   -283.02644    181563.75   -13285.591     996.0707   -14281.662   -375.89787    152.79546    78.757219    25.213404    16.378261 
   17600    245.82666   -323.78738    181563.75   -13223.063    1011.2124   -14234.276   -540.86466     152.8821    78.757624    25.211697    16.350703 
   17800    250.56867   -315.11633    181563.75   -13268.663    1030.7187   -14299.382   -577.81236    152.65462    78.759688    25.204622    16.361024 
   18000    240.78712   -497.18401    181563.75   -13303.566    990.48214   -14294.049     -1227.36    153.74029    78.763657    25.203919    16.346881 
   18200    234.87349   -528.24155    181563.75   -13307.999    966.15629   -14274.155   -1358.2608    153.99639    78.765353    25.200408    16.381524 
   18400    242.69369   -454.50868    181563.75   -13299.305    998.32485    -14297.63   -1053.4283    155.58868    78.769042    25.197809     16.39388 
   18600    244.70522   -380.80393    181563.75   -13297.228    1006.5993   -14303.828   -788.32958    154.59273    78.767919    25.199199    16.401472 
   18800    236.22439   -410.25475    181563.75   -13321.053    971.71324   -14292.766   -858.91387    154.36573    78.766703    25.196704    16.404279 
   19000    238.99956   -443.66214    181563.75   -13317.272    983.12895   -14300.401   -1017.2004    155.84319     78.76601    25.196749    16.410961 
   19200    246.67815   -335.44899    181563.75   -13277.774     1014.715   -14292.489   -626.40386    158.30594    78.763938    25.195544    16.403082 
   19400    245.28821   -479.55481    181563.75   -13259.837    1008.9974   -14268.834   -1131.7745    160.67311    78.765851    25.196467    16.383177 
   19600    235.98028   -421.44958    181563.75   -13297.888    970.70911   -14268.598    -953.9571    161.34936    78.763757    25.195141    16.344718 
   19800    245.34405   -381.41311    181563.75   -13282.727    1009.2271   -14291.954   -836.86053    160.66244    78.760745    25.192068    16.333859 
   20000    240.81143   -450.81007    181563.75   -13328.154    990.58213   -14318.737   -1044.0593     159.4875    78.759328     25.19347    16.309139 
   20200    235.92248   -361.56452    181563.75   -13335.542    970.47135   -14306.013    -744.6949    161.30285    78.757904    25.192993    16.294022 
   20400    236.54557   -343.56812    181563.75   -13345.866    973.03444   -14318.901   -635.73974     161.5168     78.75905    25.199899    16.309945 
   20600    236.59266   -211.86994    181563.75   -13303.577    973.22812   -14276.805   -206.39225    163.82865    78.760068    25.202493    16.313109 
   20800    239.73814   -334.41959    181563.75   -13315.562    986.16711   -14301.729   -637.87747    164.90319    78.758129    25.206618    16.344169 
   21000    242.44215    -295.3278    181563.75   -13288.489     997.2901   -14285.779   -486.25416    165.97336     78.76083    25.204211    16.302275 
   21200      237.598   -137.24789    181563.75    -13297.97    977.36363   -14275.334     87.31788     168.0893    78.763642    25.206877    16.305814 
   21400    232.07201   -501.46077    181563.75   -13331.924    954.63236   -14286.556   -1245.9305    168.29051    78.762596     25.21115    16.302792 
   21600    241.06474   -322.17692    181563.75   -13284.346     991.6241    -14275.97   -605.53947     169.6262    78.762335    25.208945    16.320447 
   21800     249.0283   -402.14172    181563.75   -13256.924    1024.3823   -14281.306   -875.57866    171.26963    78.761226    25.208339    16.358196 
   22000    240.96744   -437.33649    181563.75   -13241.562    991.22388   -14232.786   -1015.4306    172.37675    78.763745    25.204217    16.364411 
   22200    248.65395   -267.75202    181563.75   -13241.397    1022.8425   -14264.239   -394.90466    172.08994      78.7631    25.201176    16.394706 
   22400    250.15483   -431.00044    181563.75   -13254.948    1029.0164   -14283.964   -961.92216    173.83846    78.763874    25.199187    16.410335 
   22600    241.66945   -378.34246    181563.75   -13314.681    994.11158   -14308.792   -783.61022    174.84435    78.766294    25.202945    16.403736 
   22800     241.4461   -401.17089    181563.75    -13282.31    993.19283   -14275.503    -892.2955    174.56336    78.767769    25.208116    16.417518 
   23000    240.77992   -433.07249    181563.75   -13355.195    990.45251   -14345.647   -1009.9161    174.35755    78.766914    25.206341    16.439483 
   23200     244.8234   -354.67942    181563.75   -13347.739    1007.0854   -14354.825   -700.52287     175.6529     78.76736    25.203898    16.477059 
   23400    245.97813   -237.50387    181563.75   -13291.345    1011.8354    -14303.18   -253.06046    175.92052    78.768844    25.201484    16.481245 
   23600    240.79337   -336.76884    181563.75   -13354.599    990.50781   -14345.107    -594.6284    177.89948    78.772195    25.200713    16.477833 
   23800    235.43269   -381.98818    181563.75   -13383.899    968.45656   -14352.356   -762.50346    179.05275    78.774368     25.19518    16.438744 
   24000    241.12869   -211.98038    181563.75   -13289.254    991.88716   -14281.142    -177.4504    180.17977    78.773934     25.19269    16.430638 
   24200    247.30464   -540.62269    181563.75   -13292.349    1017.2921   -14309.641   -1330.7969    181.25528     78.77356    25.193372    16.429157 
   24400    242.40345   -350.19779    181563.75   -13298.736    997.13094   -14295.867   -714.31043    181.02972    78.772766    25.194344    16.428427 
   24600    237.32004   -512.75833    181563.75   -13324.173    976.22023   -14300.393   -1261.1994    182.24572    78.772215     25.19087    16.418775 
   24800    241.91687   -78.150551    181563.75   -13307.847    995.12935   -14302.976    250.65021    182.12294    78.772982    25.189909    16.432938 
   25000    235.22903   -342.69471    181563.75   -13328.601    967.61882    -14296.22    -605.4564    183.76131    78.774646    25.189565     16.42657 
   25200    244.37427   -336.03043    181563.75   -13276.811    1005.2379   -14282.049   -630.09205    184.26264    78.775922    25.185586    16.409068 
   25400    232.91021   -303.26605    181563.75   -13304.273    958.08031   -14262.353   -485.70025    183.68785    78.774217    25.187125     16.41429 
   25600    240.49524   -315.45447    181563.75   -13267.232    989.28148   -14256.513   -569.96185    184.37071    78.771067     25.18992    16.412445 
   25800    239.90928   -522.41461    181563.75   -13298.041    986.87111   -14284.912   -1257.1475    186.64191    78.769608    25.190583    16.416241 
   26000    236.91895   -280.24678    181563.75   -13343.725    974.57033   -14318.296   -440.09628    187.81104    78.766007    25.186242    16.418527 
   26200    236.52635    -544.4481    181563.75   -13328.762    972.95538   -14301.717   -1386.7617    187.60034      78.7653    25.186888    16.416272 
   26400    234.51979   -324.31265    181563.75   -13372.278    964.70136   -14336.979   -570.29532    186.25752    78.761932    25.182983    16.426511 
   26600     235.5392   -315.30334    181563.75   -13354.449    968.89469   -14323.344   -517.87367    189.09344    78.756804    25.179273    16.413229 
   26800    243.75632   -398.80082    181563.75   -13285.398     1002.696   -14288.094   -822.42857    190.50235    78.753521    25.178588    16.411753 
   27000    230.52332   -238.05375    181563.75   -13317.066    948.26178   -14265.328   -254.44723    191.62982     78.75216    25.178839    16.398666 
   27200    240.25967   -298.87472    181563.75   -13262.512    988.31247   -14250.824   -486.91557    194.95973    78.752684    25.179324    16.397305 
   27400    250.73195   -469.89758    181563.75   -13244.245    1031.3904   -14275.635   -1087.1775    196.62296    78.754605    25.184709    16.370084 
   27600    243.20768   -310.48595    181563.75   -13295.771    1000.4391    -14296.21   -600.37896    196.24223    78.752023    25.185697    16.360086 
   27800    231.29605   -337.53994    181563.75   -13387.635    951.44045   -14339.076   -617.53904    198.05832    78.747671    25.181871    16.322471 
   28000    233.51188   -280.78639    181563.75   -13332.833    960.55528   -14293.388   -447.61179    197.63071    78.746466    25.186521    16.328573 
   28200    233.04069   -374.06776    181563.75    -13282.38    958.61703   -14240.997   -771.70924    197.16148    78.745486    25.187631    16.334931 
   28400    246.79838   -461.02457    181563.75   -13290.843    1015.2095   -14306.053    -1090.168    197.11655    78.747204    25.187336      16.3209 
   28600    239.86995   -418.84312    181563.75   -13324.922    986.70935   -14311.631   -927.25953    198.27024    78.745671    25.188034    16.320655 
   28800    232.76489   -415.52815    181563.75   -13377.989    957.48253   -14335.472   -911.27505    198.22867    78.744661    25.186103     16.33545 
   29000    230.99557   -243.73811    181563.75    -13328.57    950.20441   -14278.774   -294.39303    198.36984    78.745155    25.181523    16.343238 
   29200    238.18116   -338.04881    181563.75   -13305.424    979.76244   -14285.186   -694.24261    198.49803    78.743708    25.178833    16.360733 
   29400    235.64331   -458.20815    181563.75   -13303.602    969.32296   -14272.925    -1079.338    202.01155    78.745049    25.179171     16.38124 
   29600    235.69974   -238.09831    181563.75   -13326.708    969.55507   -14296.263     -338.271    203.52762    78.742468    25.179117    16.374353 
   29800    234.75604   -607.07029    181563.75   -13298.026    965.67318   -14263.699   -1599.0819    205.21985    78.743172    25.178214     16.37823 
   30000    243.43887   -388.69505    181563.75   -13310.012    1001.3902   -14311.402   -848.30876    206.88854    78.740152    25.177327    16.380211 
   30200    236.28786   -407.03158    181563.75   -13348.325    971.97433     -14320.3   -920.93384    205.78825    78.735775    25.180818    16.366053 
   30400    234.05448   -312.28103    181563.75   -13383.072     962.7873   -14345.859   -550.63455    207.27473    78.736244    25.181593    16.370731 
   30600    237.44356   -333.72601    181563.75   -13394.792    976.72831    -14371.52   -644.28605    209.05109    78.737559    25.180556    16.364389 
   30800    234.04762   -326.52895    181563.75   -13345.227    962.75907   -14307.986   -592.99549    210.72485    78.737744    25.179808    16.365433 
   31000    238.12963   -370.14255    181563.75   -13330.778    979.55049   -14310.329   -725.50414    211.64049    78.737684    25.179465    16.373915 
   31200    231.87924   -390.63821    181563.75    -13304.43    953.83941   -14258.269    -876.7949    211.98571    78.737482    25.174828    16.373589 
   31400    231.69608   -250.89962    181563.75    -13321.37    953.08595   -14274.456   -312.66289    211.78795    78.740104    25.174573    16.382786 
   31600    244.13798   -336.15486    181563.75   -13275.153     1004.266   -14279.419   -641.48425    213.09722    78.738066    25.176518    16.383867 
   31800    237.40516   -275.50702    181563.75   -13341.781    976.57037   -14318.351   -424.85301    214.62639    78.737636    25.177982    16.374269 
   32000    240.75137   -157.40641    181563.75   -13307.262    990.33506   -14297.597    55.792851    215.93472     78.73748    25.179461    16.380749 
   32200    233.17345    -231.3298    181563.75    -13376.56    959.16316   -14335.723   -224.86962    217.80065    78.737366    25.181079    16.405933 
   32400    239.18701   -399.15726    181563.75   -13345.723    983.90004   -14329.623   -878.52006     219.3285    78.737028    25.182364    16.415786 
   32600    246.40617   -257.91883    181563.75   -13310.479    1013.5962   -14324.076   -352.61571    219.02268    78.736494    25.182238    16.396732 
   32800    235.18549   -316.46492    181563.75   -13317.911     967.4397   -14285.351   -533.79875    222.01611    78.734606     25.18417    16.392918 
   33000    241.62874    -365.8374    181563.75   -13284.858    993.94412   -14278.802   -754.96384    222.38936    78.734251    25.181222    16.377858 
   33200    247.26241   -350.60819    181563.75    -13327.53    1017.1183   -14344.648   -691.68686    223.63646    78.735096     25.18013    16.393182 
   33400    238.91975   -196.74757    181563.75   -13342.425    982.80067   -14325.226   -163.42061    222.96086    78.742328    25.183242    16.388731 
   33600    236.91694    -526.6388    181563.75   -13373.553    974.56207   -14348.115   -1340.1774    224.19806    78.743901    25.182318    16.383455 
   33800    239.69128    -368.7094    181563.75   -13312.511    985.97435   -14298.485   -773.88862    225.50772    78.743799    25.180911    16.408015 
   34000    243.18657   -284.05481    181563.75   -13321.507    1000.3523   -14321.859   -423.74407    225.08838    78.742096    25.182286      16.4183 
   34200    235.51584   -327.89696    181563.75   -13335.557    968.79864   -14304.356   -611.59144    225.50226    78.741883    25.184681    16.445311 
   34400    238.28613   -311.56724    181563.75   -13315.704    980.19425   -14295.898   -554.15836    226.94767    78.739765    25.184593    16.425397 
   34600    231.11417   -490.22873    181563.75   -13283.445    950.69228   -14234.137   -1219.3702    226.88391    78.738668      25.1875    16.440254 
   34800    239.53613   -323.55987    181563.75   -13253.675    985.33616   -14239.011   -563.42614    228.65797    78.741635     25.18437    16.420013 
   35000    243.81132   -344.84326    181563.75   -13282.011    1002.9222   -14284.933   -698.67932    230.49837    78.745284     25.18583    16.426829 
   35200    242.81664   -357.59639    181563.75    -13268.51    998.83058   -14267.341   -703.84603     231.6774    78.745621    25.185627    16.408148 
   35400    242.83663   -426.23356    181563.75   -13228.974    998.91283   -14227.887   -993.51612    232.57392    78.745058    25.191087    16.423457 
   35600    237.32634   -389.65592    181563.75   -13303.212    976.24612   -14279.458   -818.18877    234.04678     78.74214    25.194684    16.405668 
   35800    244.13897   -389.36341    181563.75   -13248.657      1004.27   -14252.927   -797.54585    234.19319    78.741892    25.192327    16.397274 
   36000    239.38518   -365.70932    181563.75   -13305.375    984.71522    -14290.09   -721.68827     235.0267    78.739689    25.192022    16.367147 
   36200    243.40416   -428.65917    181563.75   -13348.356    1001.2474   -14349.603   -997.89467    236.11434    78.740888    25.192443    16.392002 
   36400    241.30853    -345.5738    181563.75   -13288.824    992.62695   -14281.451   -626.56357    237.20843    78.742855     25.19399     16.39252 
   36600    238.24364   -293.69119    181563.75   -13339.251    980.01945    -14319.27   -497.72141    238.01824    78.747392    25.194982    16.401034 
   36800    226.57529   -382.82413    181563.75   -13355.523    932.02149   -14287.545   -797.39544    239.37919    78.744331    25.194691    16.414523 
   37000    244.11325    -446.5146    181563.75   -13269.842    1004.1642   -14274.006   -1023.0891    241.83076    78.747885    25.195026    16.428904 
   37200    236.88452   -225.13277    181563.75   -13329.955     974.4287   -14304.383   -257.55266     241.2102    78.747966    25.196137    16.413099 
   37400    241.08552   -297.61668    181563.75   -13256.522    991.70961   -14248.232   -523.65758    241.50764    78.747785    25.198189    16.420053 
   37600    250.20737   -296.24581    181563.75    -13252.23    1029.2325   -14281.463    -518.5963    243.39206    78.746463    25.196003    16.416659 
   37800    241.30715   -411.12408    181563.75   -13300.844    992.62126   -14293.465   -918.22729    245.13306    78.745533    25.194333    16.403055 
   38000    234.09636   -295.93215    181563.75   -13301.358    962.95956   -14264.318   -479.87814     245.0273    78.748295    25.194906    16.426176 
   38200    246.24696   -536.13576    181563.75   -13258.847    1012.9413   -14271.788   -1308.2699    247.13051    78.746799    25.196973    16.422243 
   38400    240.05123   -297.38102    181563.75   -13254.147    987.45504   -14241.602   -475.73615    246.38909    78.746685     25.19751    16.412635 
   38600    234.75643   -378.54165    181563.75   -13270.392    965.67477   -14236.067   -819.56835    248.51323    78.748431    25.196398    16.400722 
   38800    239.01498   -503.49367    181563.75   -13245.891    983.19239   -14229.084   -1251.4394    250.08893    78.745579    25.198468    16.392413 
   39000    247.29607   -464.55611    181563.75   -13242.756    1017.2568   -14260.013   -1111.2812    250.96944    78.744593    25.199771    16.414494 
   39200     228.4685   -333.86199    181563.75    -13346.47    939.80926    -14286.28   -622.24081    252.25491    78.745753    25.199945    16.402055 
   39400    236.99053   -382.87038    181563.75   -13277.755    974.86477    -14252.62   -832.03671    252.91794    78.745361    25.197372    16.378562 
   39600    240.06829   -230.84206    181563.75   -13308.055     987.5252    -14295.58   -272.27204    254.30911    78.742958    25.195398     16.40183 
   39800    244.17322   -326.67052    181563.75   -13217.045    1004.4109   -14221.456   -574.13582    256.93583    78.742331    25.192543    16.408698 
   40000    248.64638   -321.27941    181563.75   -13323.965    1022.8113   -14346.776   -557.21845    259.19437    78.740957    25.189802    16.380739 
   40200    237.21821    -245.5504    181563.75   -13348.686    975.80133   -14324.487   -339.42449    258.67401    78.738763    25.190657     16.36336 
   40400    243.22879     -418.547    181563.75   -13235.154     1000.526    -14235.68   -934.14863    261.54585     78.73686    25.193537     16.37618 
   40600    227.72104   -410.21391    181563.75   -13383.505    936.73458   -14320.239    -910.9235    260.65128    78.738249    25.193419     16.38104 
   40800     238.3738   -312.84759    181563.75   -13302.048    980.55487   -14282.603   -562.33864    260.83204    78.736505     25.19476    16.369368 
   41000    244.28286   -217.03381    181563.75   -13279.143    1004.8619   -14284.005   -192.74762    264.32765    78.738136    25.199034    16.385274 
   41200    250.00275   -319.81015    181563.75    -13295.05    1028.3908   -14323.441   -549.27457    266.38859    78.733814     25.19826    16.374607 
   41400     238.6883    -255.7007    181563.75   -13295.519    981.84861   -14277.367   -286.03282    267.24394    78.733772    25.200219    16.328248 
   41600    244.24155   -358.00884    181563.75   -13283.675     1004.692   -14288.367   -720.50566     268.2052    78.731407    25.204351    16.304025 
   41800    227.65595   -252.42139    181563.75   -13361.808     936.4668   -14298.275    -354.0567    267.55498    78.733059    25.206565    16.324158 
   42000    235.31378   -247.58386    181563.75   -13346.177    967.96745   -14314.144   -293.71955    268.93003     78.73664    25.207265    16.331061 
   42200    239.64839   -515.00782    181563.75   -13317.664    985.79792   -14303.462   -1252.9743    271.46337    78.740044    25.211228    16.323656 
   42400    242.04074   -416.68468    181563.75   -13314.778    995.63889   -14310.417   -923.60976    271.59125    78.738575    25.212229    16.297922 
   42600    240.25739   -307.72539    181563.75   -13295.823    988.30308   -14284.126   -580.24337    271.11754    78.737829    25.214904    16.316538 
   42800    242.57466   -419.47127    181563.75   -13276.628    997.83518   -14274.464   -954.39945    271.37753     78.74057    25.212265    16.321783 
   43000    242.35921   -450.85675    181563.75   -13254.722    996.94894   -14251.671   -1058.3141     269.7334    78.739824    25.215467    16.332657 
   43200    238.53019   -291.06953    181563.75   -13276.142     981.1982    -14257.34   -524.97467    270.35382    78.740022    25.216352    16.349844 
   43400    238.89894   -381.58245    181563.75   -13326.372    982.71507   -14309.088   -756.40445    270.21518    78.739812     25.21349    16.343931 
   43600     235.7907   -185.65118    181563.75   -13336.795    969.92925   -14306.724   -108.04784    270.24324    78.741871    25.211253    16.348704 
   43800    236.34124   -313.23614    181563.75    -13287.14    972.19391   -14259.334   -543.84716    270.93693    78.740687      25.2078    16.356519 
   44000    241.36236   -414.92371    181563.75   -13339.754    992.84836   -14332.602   -921.51287    272.85449    78.741615    25.203524    16.359264 
   44200    240.78049   -517.86831    181563.75   -13288.292    990.45484   -14278.747   -1256.3414    273.94361    78.744017    25.198312    16.385545 
   44400    250.90781   -212.04354    181563.75   -13246.864    1032.1138   -14278.978   -160.07224    275.37896     78.74124    25.192275    16.384192 
   44600    234.02046   -354.05586    181563.75   -13322.729    962.64736   -14285.376   -654.83358    277.24174    78.738887     25.18886    16.374822 
   44800    236.74135   -360.31044    181563.75   -13330.599    973.83978   -14304.438   -707.74357    277.30975     78.73935    25.188608    16.374501 
   45000    246.49257   -214.47244    181563.75   -13325.261    1013.9516   -14339.213   -144.33972    278.83448    78.741995    25.187712    16.360999 
   45200    248.84147   -253.99517    181563.75   -13246.006    1023.6139    -14269.62   -331.69163    282.64865    78.741533    25.185286    16.370574 
   45400    248.64588   -345.31969    181563.75    -13220.66    1022.8093   -14243.469   -641.16982    286.10102    78.742156    25.182172    16.390675 
   45600    241.44803   -394.19007    181563.75   -13226.964     993.2008   -14220.164   -846.34598    287.80603    78.740166    25.177499    16.389149 
   45800    235.36735   -316.17531    181563.75   -13294.064    968.18778   -14262.252    -538.0295    288.99057    78.742758    25.180974    16.369633 
   46000    245.00823   -330.05156    181563.75    -13279.27    1007.8457   -14287.115   -649.14667    288.49889    78.743494    25.180179    16.382216 
   46200    243.47174     -266.124    181563.75   -13279.313    1001.5253   -14280.838   -381.87787    286.92082    78.742685    25.180089    16.392912 
   46400    242.04226   -276.25584    181563.75    -13233.76    995.64517   -14229.405   -427.15157    286.97026    78.744156    25.178261    16.372206 
   46600    246.30566   -640.23247    181563.75   -13274.677    1013.1827    -14287.86   -1692.6923    290.80938    78.742948    25.175649    16.353063 
   46800    242.86185   -257.82253    181563.75   -13248.895    999.01657   -14247.912   -361.37093    287.06771    78.741455    25.177778    16.322732 
   47000    252.94549   -333.24934    181563.75   -13224.602    1040.4958   -14265.098   -654.99798    285.99188    78.741166    25.179964     16.32706 
   47200    228.93729   -387.55159    181563.75    -13301.49    941.73764   -14243.228   -852.03317    284.64369    78.738629    25.181382    16.313912 
   47400    237.91656   -359.36058    181563.75   -13271.264      978.674   -14249.938   -731.17634    287.01148    78.737811    25.182453    16.323367 
   47600    235.16849   -459.21809    181563.75   -13277.031     967.3698   -14244.401   -1080.5459      288.902    78.737424    25.181613    16.304322 
   47800    238.88239   -380.55584    181563.75   -13262.102    982.64698   -14244.749   -801.65664     291.8509    78.732025    25.180697    16.311345 
   48000    239.80422   -448.88407    181563.75   -13291.416    986.43896   -14277.855   -1034.7701    290.35265    78.731491    25.179159    16.316595 
   48200    245.57388   -302.23654    181563.75   -13297.947    1010.1725    -14308.12   -527.86509    291.49745    78.730556    25.179097    16.346267 
   48400    232.92254   -261.91806    181563.75    -13317.34    958.13103   -14275.471   -352.25348     292.3554    78.730018    25.178549    16.355414 
   48600    241.27588   -277.23849    181563.75   -13261.943    992.49264   -14254.436   -392.49396    291.94397    78.730351    25.177931    16.351371 
   48800    243.11931   -488.58822    181563.75   -13258.868    1000.0756   -14258.943    -1185.412    294.90722    78.727823    25.176048    16.340637 
   49000    240.72501   -396.61869    181563.75    -13245.61    990.22664   -14235.837   -866.11945     296.4346    78.725503    25.171418    16.377815 
   49200     254.4842   -295.91522    181563.75   -13239.343    1046.8253   -14286.168   -491.79089    296.17978    78.723699       25.172    16.393719 
   49400     234.9996   -401.97232    181563.75    -13227.48    966.67504   -14194.155   -850.76402    298.27951    78.721462    25.173016    16.399011 
   49600    242.61104   -482.03819    181563.75   -13242.598    997.98483   -14240.582    -1171.557    297.50962    78.721977      25.1747    16.406941 
   49800    233.08992   -301.72396    181563.75   -13270.273    958.81957   -14229.093   -542.64948    298.45744    78.720413    25.173189     16.40728 
   50000    228.59642   -342.03963    181563.75   -13288.632    940.33544   -14228.967   -661.67471    299.63175    78.721716    25.171138    16.393274 
   50200    239.48274   -214.49428    181563.75   -13214.537    985.11651   -14199.653   -200.45314    299.47842    78.719954    25.172267    16.414894 
   50400    243.99337   -397.33338    181563.75    -13263.41    1003.6711   -14267.081   -842.62955    302.05987    78.718033    25.169329     16.41935 
   50600    234.74652   -270.28549    181563.75   -13354.364    965.63399   -14319.998   -408.79464    301.57507    78.717321    25.168148    16.404535 
   50800    232.10286   -397.70375    181563.75   -13314.678    954.75925   -14269.438   -850.51866    302.66149    78.714732    25.169555    16.388156 
   51000    240.58778   -351.51253    181563.75   -13253.909    989.66212   -14243.572   -689.44699    304.16201     78.71545    25.171248    16.374604 
   51200    235.27578   -375.61478    181563.75    -13337.42    967.81111   -14305.231   -755.30127    305.40669    78.714832    25.170582    16.383195 
   51400     240.4064   -421.34311    181563.75   -13307.815    988.91602   -14296.731   -983.51651    306.52242    78.710662    25.174131    16.425597 
   51600    239.90042   -417.28372    181563.75   -13316.982    986.83465   -14303.817   -890.06671    305.92054    78.710622    25.181151    16.415409 
   51800    237.01054   -357.72671    181563.75   -13274.234    974.94708   -14249.181   -701.98082    306.14606    78.709529     25.18122    16.405576 
   52000    237.24448   -313.93958    181563.75   -13310.236    975.90941   -14286.145   -532.60249    306.26053    78.710777    25.184652    16.425029 
   52200     237.3507   -339.27342    181563.75    -13295.49    976.34637   -14271.837   -649.06461    307.63866    78.709598    25.184702    16.404286 
   52400    244.56165   -404.80718    181563.75   -13303.933    1006.0087   -14309.942   -886.67753    309.27102    78.706568    25.183305    16.391601 
   52600     239.5597   -498.85353    181563.75   -13301.583    985.43312   -14287.016   -1201.5169    310.89273    78.706287    25.182289    16.373677 
   52800    226.18834   -291.65192    181563.75   -13380.023    930.42977   -14310.452   -470.63746    310.61192    78.700245    25.183047    16.378303 
   53000    227.82617   -279.74326    181563.75   -13377.783    937.16702    -14314.95   -416.87827    311.35925    78.699906    25.183803    16.368293 
   53200    241.10542   -305.49808    181563.75    -13333.34    991.79144   -14325.131   -521.15514    310.86114    78.703923    25.184143    16.357669 
   53400    240.17948   -181.17303    181563.75   -13319.336     987.9826   -14307.319   -66.206826    310.42582    78.706382    25.182399    16.346751 
   53600    241.64918   -392.11671    181563.75   -13259.391    994.02823    -14253.42    -824.2051    310.28949    78.708499    25.186678    16.344597 
   53800    239.43288   -274.85156    181563.75    -13301.92    984.91143   -14286.832   -393.85064    311.43237     78.70527    25.187511    16.373962 
   54000    242.68582   -462.49839    181563.75   -13230.476    998.29247   -14228.768   -1141.4822    312.50746    78.703556    25.188816    16.397407 
   54200    227.66943   -500.53723    181563.75   -13322.055    936.52225   -14258.577   -1237.8041    314.10406    78.704412    25.187102    16.394018 
   54400    237.98653   -259.35423    181563.75   -13271.207    978.96185   -14250.169   -406.12054    311.81286    78.704422     25.18929    16.400849 
   54600    245.97844   -304.63932    181563.75   -13260.857    1011.8367   -14272.693   -529.45935     315.8416     78.71003    25.190738    16.395253 
   54800    245.83252   -589.09881    181563.75   -13205.872    1011.2365   -14217.109   -1538.0065    318.36073    78.712484    25.190683    16.383249 
   55000    233.49783   -345.58561    181563.75    -13299.95     960.4975   -14260.448   -680.18122    318.82596    78.712445    25.189772    16.397979 
   55200    244.69301   -385.05878    181563.75   -13274.769    1006.5491   -14281.318   -777.11604    320.55032     78.71396    25.190572    16.393889 
   55400    249.52945   -415.09478    181563.75   -13245.748    1026.4439   -14272.192   -942.79665    322.52162    78.718011     25.19066    16.381459 
   55600     235.4294   -534.51628    181563.75   -13258.224    968.44304   -14226.667    -1319.804     324.8128    78.718877    25.186972    16.372027 
   55800    236.11326   -297.58857    181563.75   -13308.708    971.25613   -14279.964   -503.83517    327.82538    78.720595    25.181258    16.355063 
   56000    231.81117   -485.31435    181563.75   -13356.432    953.55941   -14309.991   -1164.9036    327.77131    78.722514    25.179693    16.346659 
   56200    236.50585   -326.06638    181563.75   -13268.329    972.87103     -14241.2   -592.92763    329.44346    78.720847    25.175914    16.341047 
   56400    238.17283   -458.47802    181563.75   -13266.907    979.72818   -14246.636   -1073.5979    329.56239      78.7229    25.172743    16.314383 
   56600    230.18237   -317.84844    181563.75   -13320.207    946.85931   -14267.066   -572.76218    328.53082    78.726387    25.170538    16.279106 
   56800    225.80539   -294.53278    181563.75   -13346.135    928.85449    -14274.99   -516.59495    328.06624    78.731546    25.171383    16.272957 
   57000    234.48179   -442.44997    181563.75   -13346.079    964.54502   -14310.624   -1024.0958    331.39533    78.732666     25.17392    16.247384 
   57200    241.11191     -298.227    181563.75   -13362.041    991.81816    -14353.86   -537.06751    331.59296    78.732207    25.175064    16.262831 
   57400    238.94656    -370.7402    181563.75   -13332.894    982.91095   -14315.805   -764.91317    334.67715    78.734127    25.178696    16.234557 
   57600     240.8122   -324.59566    181563.75    -13256.18    990.58528   -14246.765    -590.9862     333.9074    78.735448    25.177962    16.205906 
   57800    239.21269   -502.57266    181563.75   -13283.556    984.00567   -14267.561   -1193.0466    333.53906     78.73663    25.176155    16.207557 
   58000    239.68276   -531.29597    181563.75   -13225.878    985.93931   -14211.817    -1339.174    334.72164    78.736745    25.176416    16.217768 
   58200    237.10043    -329.0611    181563.75   -13270.505    975.31686   -14245.822   -638.35402     334.4447    78.732147    25.178373    16.225969 
   58400    241.49602   -366.99955    181563.75   -13277.117    993.39819   -14270.516   -747.10567    335.72758    78.730746    25.177913    16.242762 
   58600    242.87751   -431.78686    181563.75   -13256.549    999.08099    -14255.63   -985.82655    335.05331    78.729737    25.176528     16.24965 
   58800    235.85979   -317.87823    181563.75   -13249.015    970.21345   -14219.229   -603.13385    336.29755    78.727607    25.172506    16.248772 
   59000    240.08138   -287.28231    181563.75   -13268.833    987.57905   -14256.412   -486.26657     338.5739     78.72681    25.171622    16.259794 
   59200    240.79869   -254.81944    181563.75    -13262.57     990.5297     -14253.1   -371.17577    338.59549    78.728643    25.171596    16.257721 
   59400     238.2126   -336.00876    181563.75   -13286.128    979.89179    -14266.02   -647.56308    339.37157    78.732584    25.176761    16.268011 
   59600    246.37914   -460.11342    181563.75   -13261.915     1013.485     -14275.4   -1120.7871    339.20857    78.735997    25.170052    16.284732 
   59800     236.0371   -381.43846    181563.75   -13266.275    970.94283   -14237.218   -796.15026    340.28188    78.740096    25.167245    16.267097 
   60000    244.01514    -286.1025    181563.75   -13326.947    1003.7606   -14330.708   -433.60637    341.69435    78.739036      25.1676    16.254436 
   60200    237.13365   -259.94266    181563.75   -13273.418    975.45352   -14248.871   -349.12235    342.22577    78.740443    25.169113    16.263034 
   60400    241.17151   -431.05951    181563.75   -13347.508    992.06333   -14339.571   -973.22134     343.8219     78.74451    25.164722    16.246465 
   60600    239.99733   -389.15652    181563.75   -13337.054    987.23332   -14324.287   -807.84883    344.81179    78.746278    25.162955    16.234416 
   60800    243.19678   -345.33605    181563.75   -13350.946    1000.3943    -14351.34   -634.10033    346.73454    78.746004     25.15798    16.240113 
   61000     236.1069   -270.77615    181563.75   -13378.459    971.22996   -14349.689   -391.48047    347.10313    78.748866     25.15703    16.229312 
   61200    240.00519   -375.22547    181563.75    -13351.46    987.26566   -14338.725   -786.31347    345.54299     78.74913    25.153136    16.233982 
   61400    234.74684   -319.62958    181563.75   -13335.372    965.63531   -14301.007   -538.72337    346.12807    78.746603    25.153224    16.240313 
   61600    242.63031   -336.30792    181563.75   -13341.774    998.06411   -14339.838   -669.12239    346.92347    78.744753    25.153648    16.229989 
   61800    242.64092   -319.85251    181563.75   -13307.457    998.10774   -14305.564   -534.92491    348.52022    78.744015    25.148747    16.226985 
   62000    238.33798   -357.75186    181563.75   -13354.127    980.40754   -14334.534    -710.4539     350.3437    78.744266    25.142559     16.21745 
   62200    248.92674   -461.30644    181563.75   -13283.001    1023.9646   -14306.966   -1069.7992    350.59772    78.744364      25.1434    16.209625 
   62400    244.38695   -255.32598    181563.75   -13266.933    1005.2901   -14272.224   -337.04449    350.99947    78.743531    25.143604    16.207214 
   62600     229.4991   -444.24863    181563.75   -13322.086    944.04864   -14266.135   -1020.8639    351.62201    78.745666    25.143534    16.215766 
   62800    237.47504   -329.70249    181563.75   -13327.136     976.8578   -14303.994   -607.97829    350.81159    78.745879    25.141599    16.234522 
   63000    243.73608   -404.50555    181563.75   -13301.913    1002.6127   -14304.526   -883.84114    351.06858    78.745228    25.138747    16.247602 
   63200    237.04894   -364.53695    181563.75   -13356.884    975.10505   -14331.989   -718.69133     353.5504    78.746686    25.134993    16.256972 
   63400    242.67878   -312.66455    181563.75   -13338.563     998.2635   -14336.827   -517.39702    351.99615    78.745381    25.133842     16.25209 
   63600    244.28729   -417.17235    181563.75   -13294.131    1004.8801   -14299.011     -896.162    350.32098    78.742413    25.131656    16.252442 
   63800    242.56117   -168.04083    181563.75   -13332.232    997.77972   -14330.011    4.1237023    353.00879    78.741135    25.132998    16.264561 
   64000    238.23338   -352.56997    181563.75   -13332.798    979.97727   -14312.776   -645.93088    356.46431    78.737526    25.131898    16.256933 
   64200    242.14359   -285.64655    181563.75   -13333.766    996.06198   -14329.828   -431.23955    356.03607    78.734753    25.130896    16.267001 
   64400    240.70108   -296.81034    181563.75   -13307.854    990.12821   -14297.982   -477.86495    355.66653    78.735571    25.132531    16.254383 
   64600    233.65391   -256.54777    181563.75   -13297.252    961.13954   -14258.391   -331.62525    356.29762      78.7361    25.130732    16.249369 
   64800     234.9393   -406.71623    181563.75   -13304.367    966.42701   -14270.794   -882.43738    357.98693    78.738427    25.133082    16.246391 
   65000    235.27976   -298.60911    181563.75   -13361.245    967.82749   -14329.073   -534.40604    359.12932    78.742103    25.134111    16.201366 
   65200    236.62831   -426.17451    181563.75   -13326.727    973.37479   -14300.102   -962.89031    358.03156    78.746086    25.133288    16.210414 
   65400    249.75716   -539.26114    181563.75   -13189.171    1027.3805   -14216.552   -1374.7058    360.48517    78.745197    25.131541    16.218578 
   65600    238.06251   -413.51642    181563.75   -13242.371    979.27441   -14221.645   -843.97672    362.24897    78.743378    25.132888    16.199077 
   65800    245.30319   -479.90781    181563.75   -13242.711    1009.0591   -14251.771   -1151.5901    360.75932    78.738883     25.13045    16.177805 
   66000    239.52094   -435.23826    181563.75   -13304.096    985.27365    -14289.37   -971.71054    361.79831    78.738986    25.129152    16.222322 
   66200    242.18877   -405.58522    181563.75   -13304.419    996.24782   -14300.667   -883.10772    361.16403    78.739639     25.13053    16.226645 
   66400    236.70855   -435.72541    181563.75   -13360.672    973.70486   -14334.377   -990.02481    361.04054    78.739124    25.123676    16.237147 
   66600    237.80734   -412.29779    181563.75   -13349.002    978.22476   -14327.227   -901.39489     359.0267    78.740159    25.113938    16.249288 
   66800    240.76763   -431.05541    181563.75   -13389.058    990.40195    -14379.46   -979.76678    359.31571    78.739914    25.107825    16.236443 
   67000    229.77742   -362.18237    181563.75   -13393.528    945.19352   -14338.722   -736.56085    362.08759    78.739643    25.103866    16.265213 
   67200    233.75257   -258.08286    181563.75   -13380.681    961.54537   -14342.226   -372.68756    360.98534    78.740131    25.101321    16.290005 
   67400    242.28649   -467.84655    181563.75   -13318.327    996.64983   -14314.976   -1101.9926    364.21401    78.742223    25.100327    16.262648 
   67600    240.76323    -317.0201    181563.75   -13361.308    990.38386   -14351.692   -539.03183    364.13263    78.746233    25.099386    16.277994 
   67800    239.35465   -283.38058    181563.75   -13335.908    984.58964   -14320.498   -413.50315    364.21094    78.743982    25.096085    16.278578 
   68000    242.31357   -408.22422    181563.75   -13307.891     996.7612   -14304.652   -908.17915     365.0972    78.742651    25.094461    16.302422 
   68200     243.0254   -241.11372    181563.75   -13309.127    999.68933   -14308.816   -288.32576     367.0119    78.742831    25.092497    16.307502 
   68400    243.25336    -166.0952    181563.75   -13268.795    1000.6271   -14269.422   -49.477366    365.93789     78.74351    25.093504    16.302134 
   68600      232.451   -345.38771    181563.75   -13308.416    956.19135   -14264.608   -690.99433    364.56348    78.740809    25.094773    16.310911 
   68800    248.57616   -393.18182    181563.75   -13248.747    1022.5225   -14271.269   -799.57681    365.94007    78.736651    25.094968    16.319932 
   69000    242.30918   -512.10321    181563.75   -13229.342    996.74316   -14226.085   -1277.1747    368.38775    78.737827    25.094681    16.309776 
   69200    245.22128    -551.4034    181563.75   -13253.661    1008.7221   -14262.383    -1358.545     368.6885    78.734896    25.095591    16.312242 
   69400    229.28738   -290.49447    181563.75   -13310.002    943.17773    -14253.18   -464.47159    369.44984    78.731714     25.09908    16.328583 
   69600    240.13739   -450.41752    181563.75   -13245.199    987.80944   -14233.009   -1020.8429    368.72645    78.730017    25.095799    16.346505 
   69800    233.54371   -346.39662    181563.75   -13291.546    960.68624   -14252.232   -663.85691    369.13544    78.733904    25.092999    16.344599 
   70000    235.11628   -318.53927    181563.75   -13360.155    967.15501    -14327.31   -559.30915    371.68684    78.733901    25.090355    16.336723 
   70200    240.86789   -354.22394    181563.75   -13331.264    990.81438   -14322.078   -672.13178    372.97993    78.733842    25.091509    16.313442 
   70400    233.03005   -237.89529    181563.75   -13289.357    958.57328    -14247.93   -290.73285    373.78751    78.737733    25.093869    16.285938 
   70600    251.07287   -431.77971    181563.75    -13261.12    1032.7927   -14293.913   -998.05396    377.07338    78.740474     25.09608    16.268826 
   70800    245.54956   -139.53386    181563.75   -13306.694    1010.0725   -14316.767    62.176303    378.65063    78.742891    25.094594    16.302217 
   71000     246.7462   -316.07245    181563.75    -13280.96    1014.9949   -14295.955   -549.23675    380.27544    78.747108    25.089156    16.292053 
   71200    251.78448   -186.18677    181563.75   -13176.714    1035.7199   -14212.433   -113.34186    382.12871    78.746974    25.089713    16.313382 
   71400    236.24145   -297.87937    181563.75   -13269.239    971.78343   -14241.022   -499.55485    381.68435     78.74521    25.087725    16.318328 
   71600    229.45711   -222.22836    181563.75   -13286.583    943.87591   -14230.459   -217.59107    381.95483    78.744429     25.08402    16.302744 
   71800    237.64923   -502.11763    181563.75   -13276.505    977.57437   -14254.079   -1216.1031    384.33324    78.744552    25.081162    16.263325 
   72000    236.26062   -334.43931    181563.75   -13244.467    971.86226    -14216.33   -638.82774    383.85421    78.746313    25.083306    16.254413 
   72200    243.13742   -380.18527    181563.75   -13258.407    1000.1501   -14258.557   -796.68862    386.56085    78.745521    25.085971    16.272403 
   72400    235.89631   -329.08839    181563.75   -13253.268    970.36369   -14223.632   -634.27936    387.32401    78.745829     25.08396    16.258109 
   72600    245.23219   -330.67848    181563.75   -13253.164     1008.767   -14261.931   -564.81068    389.18886    78.747996    25.081847    16.269757 
   72800    231.47687   -386.52449    181563.75   -13298.451    952.18423   -14250.635   -827.40574     390.3592    78.747395    25.085655    16.269317 
   73000    246.09303   -248.57991    181563.75    -13269.56    1012.3081   -14281.869   -311.26101     392.1521    78.747411    25.091435    16.270917 
   73200    246.16347   -522.11207    181563.75   -13205.169    1012.5978   -14217.767   -1284.2935    393.22768    78.749224    25.093644     16.25748 
   73400    234.67001   -487.45347    181563.75   -13262.566    965.31928   -14227.886   -1198.1065    393.09328    78.751761    25.093089    16.267228 
   73600    242.71354   -448.37267    181563.75   -13257.968    998.40649   -14256.374   -1069.9274    395.94112    78.751998    25.091366    16.278643 
   73800    248.88974   -304.92944    181563.75   -13210.549    1023.8124   -14234.361   -554.73612    394.68417    78.752385    25.088891    16.300934 
   74000    246.70105    -369.4272    181563.75   -13244.095    1014.8092   -14258.905   -679.51553    398.19475    78.751454     25.08153    16.296814 
   74200    247.29446   -216.78528    181563.75   -13254.909    1017.2502   -14272.159    -163.2676     397.8062    78.750368    25.078472    16.294795 
   74400    237.24172   -521.23695    181563.75   -13281.827    975.89807   -14257.725   -1336.1508    398.35416    78.752611    25.076529    16.310353 
   74600    235.41566    -256.6994    181563.75   -13308.943    968.38653    -14277.33   -324.27249    397.86428    78.753386    25.073579    16.308724 
   74800    245.72842   -353.57202    181563.75   -13260.923    1010.8082   -14271.731   -692.34873    398.19002    78.756724     25.07077    16.323135 
   75000    247.57281   -414.37875    181563.75   -13279.966    1018.3952   -14298.361   -919.37962    396.99336    78.753754    25.071388    16.345532 
   75200    240.11414   -267.45293    181563.75   -13314.768    987.71382   -14302.481    -375.7022    398.90494    78.755126    25.068379    16.321989 
   75400    245.91776   -502.31741    181563.75    -13240.95    1011.5871   -14252.537   -1205.8337    402.43345    78.753669    25.068254    16.349541 
   75600    235.36869   -213.12006    181563.75   -13299.661    968.19331   -14267.855    -182.4251    401.20257    78.756501    25.068838    16.330948 
   75800    243.33174   -404.87831    181563.75   -13286.399    1000.9495   -14287.348   -838.11274    401.94264     78.75776    25.072607    16.303027 
   76000    238.01294   -361.48377    181563.75   -13328.901    979.07047   -14307.972     -735.192    401.67064    78.760057    25.072436     16.33212 
   76200    226.59654   -295.57954    181563.75   -13357.433    932.10893   -14289.542   -424.66974    403.27528    78.761571     25.07402    16.351165 
   76400    225.93913   -319.19321    181563.75   -13342.274    929.40466   -14271.679   -543.45338    402.11174    78.763143    25.076661    16.362576 
   76600    242.17362   -339.61456    181563.75   -13273.935     996.1855    -14270.12   -675.05312    404.58545    78.762301    25.076756    16.362697 
   76800    242.27138   -569.84546    181563.75   -13245.774    996.58765   -14242.361   -1473.8343    404.87865     78.76539    25.076209    16.350031 
   77000    235.42147   -388.71078    181563.75   -13273.436    968.41042   -14241.847   -863.35059    402.06328    78.771043    25.076294     16.31701 
   77200     241.4132   -481.36911    181563.75   -13247.883    993.05751   -14240.941   -1157.6823    404.55315    78.770008    25.074278    16.319615 
   77400    241.86763    -154.7206    181563.75   -13274.326    994.92683   -14269.253   -24.200202    405.96642    78.769936     25.07409    16.321371 
   77600    238.86075   -250.12207    181563.75   -13291.927    982.55798   -14274.485   -349.42504    407.73652    78.768025    25.068872    16.314069 
   77800    244.85976   -398.83271    181563.75   -13261.885     1007.235    -14269.12   -861.60043    409.06385    78.765748     25.06566    16.351282 
   78000    235.31177   -473.53153    181563.75   -13327.085    967.95918   -14295.044   -1121.4049    409.81805    78.769925     25.06327    16.366931 
   78200    239.74047   -142.13638    181563.75   -13276.571    986.17671   -14262.748    50.788218    408.86753    78.771868    25.064401    16.389366 
   78400    245.52356   -446.13408    181563.75   -13278.379    1009.9655   -14288.344   -1025.9675    414.05763    78.772109    25.065894     16.37059 
   78600    238.30803   -237.87881    181563.75   -13343.044    980.28434   -14323.329   -295.94518    414.79683    78.768773    25.067299    16.364369 
   78800    238.08033   -324.99006    181563.75   -13368.951     979.3477   -14348.299   -577.42712    415.20064    78.768464    25.066186    16.387879 
   79000    234.59121   -388.32353    181563.75   -13339.027    964.99515   -14304.022   -816.81979    416.35945    78.767793    25.063459    16.399137 
   79200    240.66873   -356.98881    181563.75   -13309.426     989.9951   -14299.421   -669.13968    418.29364    78.767223    25.062067    16.372225 
   79400    234.13921   -335.41188    181563.75    -13349.28    963.13583   -14312.415   -629.69008    418.27394     78.76404    25.054076    16.347872 
   79600    244.09257    -348.4277    181563.75   -13337.175    1004.0792   -14341.254   -687.62198    420.70037    78.763747    25.050896    16.331661 
   79800     245.5727   -302.26955    181563.75   -13363.968    1010.1677   -14374.135   -495.64232    421.49207    78.763946    25.051279    16.337059 
   80000    232.13911   -247.79372    181563.75   -13367.203    954.90838   -14322.112   -303.41679    421.71896    78.765992    25.053617    16.328778 
   80200     240.7138   -423.17741    181563.75   -13329.606    990.18052   -14319.787   -953.23823    421.73788    78.767113    25.052627    16.327023 
   80400    242.73522   -391.45146    181563.75   -13341.071    998.49568   -14339.566   -847.34486    423.57626     78.76596    25.050218    16.337011 
   80600    251.03491   -255.57407    181563.75    -13275.31    1032.6366   -14307.947   -329.40397    423.11881    78.763783    25.050557    16.349977 
   80800    238.69226   -394.08294    181563.75    -13335.93    981.86489   -14317.794      -845.32    425.75901    78.764499    25.051175    16.338454 
   81000    248.73488   -350.44888    181563.75   -13250.142    1023.1754   -14273.317     -698.584    428.12919    78.761286    25.052232    16.343897 
   81200    246.82007   -332.63845    181563.75   -13284.277    1015.2988   -14299.576   -638.48627    428.39474    78.759971    25.058634    16.337584 
   81400    242.42494   -395.62553    181563.75   -13323.493    997.21932   -14320.713   -846.45911    427.94445    78.756627    25.064141    16.333033 
   81600    235.82202   -204.93045    181563.75    -13288.48    970.05808   -14258.538   -162.16847    428.02399    78.756761    25.070618      16.3402 
   81800    232.94756   -448.08955    181563.75   -13286.433    958.23397   -14244.667    -1037.097    430.57749    78.758232    25.072336    16.352377 
   82000    244.19202     -493.426    181563.75   -13252.507    1004.4882   -14256.995   -1183.4776    432.43603    78.755008    25.075813    16.348157 
   82200    248.40866   -259.40369    181563.75   -13317.596    1021.8334    -14339.43   -315.53768    432.59256    78.754335    25.078444    16.380442 
   82400     234.5541   -217.69308    181563.75    -13358.98    964.84248   -14323.822   -193.32727     432.8799    78.751244    25.075704    16.329769 
   82600    231.30272   -425.87577    181563.75   -13334.705    951.46785   -14286.173   -986.47975    434.62656    78.748751    25.073905    16.319611 
   82800    251.57718   -387.07469    181563.75    -13332.29    1034.8672   -14367.157   -781.23222     435.2692    78.747079    25.071011    16.322697 
   83000    248.21044    -349.9347    181563.75   -13346.605    1021.0181   -14367.623   -616.91736    438.02537    78.747422      25.0751    16.305927 
   83200    240.16423   -221.18729    181563.75   -13351.782    987.91987   -14339.702   -212.90051    438.06297    78.744328    25.079126    16.313826 
   83400    244.72977   -332.71098    181563.75   -13364.357    1006.7003   -14371.057   -609.80517    437.13604    78.745644    25.081971    16.319542 
   83600     241.5602   -287.14314    181563.75   -13342.128     993.6622    -14335.79   -486.20614    436.44156    78.750761    25.083573    16.328175 
   83800    233.47126   -331.73739    181563.75   -13404.569    960.38819   -14364.957   -619.14223    439.17315    78.752013    25.085312    16.331856 
   84000    229.33501   -326.51839    181563.75   -13400.332    943.37365   -14343.705   -579.75802    438.92215    78.748834    25.087261    16.349853 
   84200    234.68433   -315.88732    181563.75   -13385.297    965.37818   -14350.675   -573.84077    440.44337    78.748514    25.090497    16.334365 
   84400    240.06571   -337.24761    181563.75   -13361.673     987.5146   -14349.187   -681.46363    440.45903    78.743331     25.08902    16.329172 
   84600    242.07199   -220.44777    181563.75   -13341.026    995.76746   -14336.793    -224.1382    441.35061    78.742381    25.086005    16.321025 
   84800    243.82987   -320.05844    181563.75   -13354.766    1002.9985   -14357.765   -575.14983    443.85294    78.743464    25.083486    16.305024 
   85000    239.56443   -360.66372    181563.75   -13387.395    985.45258   -14372.848   -735.69205    444.55268    78.745132    25.083508    16.316656 
   85200    255.73684   -562.89719    181563.75   -13300.998     1051.978   -14352.976    -1455.754    446.76502    78.748811    25.086819    16.360738 
   85400    240.67811   -341.65375    181563.75    -13385.86    990.03369   -14375.893   -661.40747    446.47742    78.750584    25.085984    16.341906 
   85600    234.94523   -514.43273    181563.75    -13376.97    966.45141   -14343.422   -1266.8533    449.72071    78.754498     25.08521    16.312701 
   85800    249.55465   -225.33885    181563.75   -13330.613    1026.5475    -14357.16   -269.22218    449.37142     78.75525    25.088566    16.305506 
   86000    246.31029    -234.7692    181563.75   -13298.152    1013.2018   -14311.353   -212.74834    451.27414    78.756577    25.087321    16.282998 
   86200    241.47627   -459.87446    181563.75   -13340.686    993.31697   -14334.003   -1060.4686    452.20096    78.756546    25.083985     16.30696 
   86400    241.87877   -396.41118    181563.75   -13344.941    994.97265   -14339.914   -848.83173    453.08475    78.756706    25.082786    16.329557 
   86600    233.69738   -396.87084    181563.75   -13349.638    961.31834   -14310.956   -861.49435    453.71847    78.758243    25.083622    16.336225 
   86800     239.0218   -380.23795    181563.75   -13375.286    983.22045   -14358.507    -787.9187     456.2718    78.762076    25.085755    16.357988 
   87000    234.82888   -462.20634    181563.75   -13401.511     965.9728   -14367.484   -1099.8208    457.66517    78.763628    25.087295    16.348871 
   87200     234.3324   -337.34863    181563.75   -13379.688    963.93052   -14343.618   -651.68373      457.076    78.765304    25.093139    16.371708 
   87400    233.56552   -356.97835    181563.75   -13371.939    960.77594   -14332.715   -706.64438    459.75338     78.76276    25.097506    16.353036 
   87600     235.7213   -374.20334    181563.75   -13350.822    969.64377   -14320.465   -812.20805    457.33457     78.76634    25.097369    16.333993 
   87800    232.35203   -365.60832    181563.75   -13372.626    955.78421    -14328.41   -694.27788    456.75956    78.774431    25.096712    16.345484 
   88000    242.82059   -351.29394    181563.75    -13293.63    998.84684   -14292.477   -694.50556    456.39742    78.780854    25.097789    16.348025 
   88200    243.00894   -543.90478    181563.75   -13264.609    999.62164    -14264.23   -1381.2284    453.66463    78.782222    25.096878    16.346478 
   88400    241.30829   -409.30907    181563.75   -13319.895    992.62598   -14312.521   -908.53075    453.90757    78.782867    25.093722    16.363098 
   88600    238.73313   -293.24903    181563.75   -13359.373      982.033   -14341.406   -549.72068    456.19983     78.78551    25.094105    16.362704 
   88800    235.87217    -148.6345    181563.75   -13389.311     970.2644   -14359.575    51.709996    454.67012    78.784359     25.09304    16.378542 
   89000    234.66932   -304.52466    181563.75   -13421.752    965.31642   -14387.069   -566.38366     455.9586    78.786792    25.096097    16.369089 
   89200     230.6521   -274.96058    181563.75   -13412.315    948.79153   -14361.106   -420.32229     456.4421    78.790742    25.094991    16.340024 
   89400    240.83961   -332.31029    181563.75   -13349.664    990.69803   -14340.362   -658.00633    454.30827    78.790409    25.100455    16.323702 
   89600    231.27826   -243.51144    181563.75   -13402.219    951.36725   -14353.586   -279.62949    457.57533    78.788917    25.099352    16.315817 
   89800    241.15812   -308.81686    181563.75   -13328.826    992.00825   -14320.834   -497.08319    458.29052    78.792525    25.099107    16.337432 
   90000    248.31376   -431.07011    181563.75   -13277.905    1021.4431   -14299.348   -987.40738    459.70468    78.791781    25.098436    16.326236 
   90200    238.98021   -390.73189    181563.75   -13356.242    983.04936   -14339.292   -839.39871    461.57446    78.792238    25.099415    16.336024 
   90400    234.62472    -474.6177    181563.75   -13400.102    965.13298   -14365.235   -1124.4377    463.15572    78.789714    25.101694    16.291719 
   90600    247.12296   -379.48911    181563.75   -13319.501    1016.5447   -14336.046   -805.41667     461.8934    78.786144    25.100818    16.305425 
   90800     238.5381   -488.81116    181563.75   -13303.942    981.23073   -14285.173   -1152.0456     465.3629    78.782127    25.099595    16.314359 
   91000    242.08605     -458.982    181563.75   -13348.229     995.8253   -14344.054   -1054.5777    465.82188    78.777322    25.102229    16.296525 
   91200    238.46339   -342.97039    181563.75   -13375.973    980.92343   -14356.896   -673.24896    465.81993     78.77374    25.104813    16.290165 
   91400     236.8304   -284.57425    181563.75   -13403.504    974.20608    -14377.71   -474.16458    465.14622    78.773531    25.109369     16.27242 
   91600    243.47711   -439.68973    181563.75   -13304.965    1001.5475   -14306.512    -968.0909    465.66655    78.771218    25.110281    16.249127 
   91800     238.6433   -436.76308    181563.75   -13335.176     981.6635    -14316.84   -1023.2079    465.20115    78.771552    25.110982    16.265578 
   92000    233.53317   -461.37814    181563.75   -13290.339    960.64286   -14250.981   -1108.2786     468.4334    78.770692    25.112363    16.266601 
   92200     234.9111   -320.46517    181563.75   -13283.525    966.31101   -14249.836    -580.1005    467.16888    78.768501    25.107274    16.242739 
   92400    240.98605   -373.88034    181563.75   -13229.714    991.30042   -14221.015   -785.45152    467.87316     78.76695    25.104457    16.240097 
   92600    241.11988   -294.66578    181563.75   -13299.752    991.85095   -14291.603   -534.30823    468.43081    78.768199     25.10579    16.228684 
   92800    234.24722   -260.68988    181563.75   -13337.833    963.58011   -14301.413   -316.01332    470.37035    78.767559     25.10324    16.235847 
   93000    238.69505   -372.04681    181563.75   -13353.829    981.87636   -14335.706   -784.46409    471.02728    78.771992    25.099075    16.263257 
   93200    230.56748   -509.66912    181563.75   -13340.273    948.44344   -14288.716   -1287.9369    474.28182    78.770894    25.095696    16.266565 
   93400    232.66465   -342.48912    181563.75   -13355.511    957.07019   -14312.581   -639.25952    475.86022    78.772747    25.092639    16.269454 
   93600    244.82665   -476.47942    181563.75   -13293.802    1007.0988     -14300.9    -1130.348     479.5865    78.771655    25.090732    16.266898 
   93800    241.02041   -464.01605    181563.75   -13240.534    991.44178   -14231.975   -1089.7093    477.70205     78.77456    25.089932    16.267992 
   94000    235.67466   -452.98103    181563.75   -13266.539    969.45192   -14235.991   -1064.5256    479.07202    78.772633    25.090114    16.270232 
   94200    250.95471   -370.78805    181563.75   -13193.449    1032.3067   -14225.756   -734.21136    480.45768    78.770857    25.082561    16.265902 
   94400    245.34019   -343.47913    181563.75   -13190.219    1009.2112    -14199.43   -672.63249     479.9236      78.7727    25.081277    16.264948 
   94600    238.69972   -305.75013    181563.75   -13203.606    981.89558   -14185.502   -540.76426    480.90401    78.774278    25.079073    16.252185 
   94800    245.78686   -464.87844    181563.75   -13160.932    1011.0486   -14171.981   -1055.4706    485.38703     78.77582      25.0774    16.263137 
   95000    240.14337   -425.85629    181563.75   -13258.648    987.83406   -14246.482   -975.11152    484.12837    78.775356    25.076129    16.264884 
   95200    229.52346   -273.28996    181563.75    -13249.11    944.14884   -14193.259   -402.02655    485.89199    78.775653    25.075073    16.260415 
   95400    238.66496   -302.23649    181563.75   -13250.357    981.75258    -14232.11   -508.24659    487.05463    78.775026    25.076636    16.249346 
   95600    229.52394   -405.18919    181563.75   -13244.243    944.15083   -14188.394   -855.57476    488.45978    78.772011      25.0743    16.250243 
   95800    234.98807   -355.17095    181563.75   -13260.426    966.62763   -14227.054    -702.2502    490.46596    78.771131    25.075323    16.273472 
   96000    240.42377   -299.70579    181563.75   -13307.031    988.98746   -14296.019   -521.52743    490.88391    78.769982    25.074757     16.28557 
   96200    239.60208    -114.2916    181563.75   -13308.477    985.60743   -14294.084    140.20742    492.59407    78.773885    25.074547    16.289617 
   96400    233.88987   -500.15347    181563.75   -13286.987    962.11016   -14249.097    -1217.524    495.22563    78.776114    25.067138    16.260476 
   96600    236.34122   -283.09397    181563.75   -13343.653    972.19382   -14315.847   -416.26255    495.25467     78.77757    25.067088    16.272107 
   96800    248.75302   -475.56385    181563.75   -13278.347      1023.25   -14301.597   -1117.3453    498.07067    78.776055    25.070967    16.289871 
   97000    243.92944   -346.24815    181563.75   -13299.548    1003.4081   -14302.956   -659.14781    497.67718    78.778597    25.071223    16.274089 
   97200    249.46714   -297.43514    181563.75   -13260.786    1026.1875   -14286.974   -509.52286     497.7555     78.77771    25.069561    16.276745 
   97400    234.33863   -299.05366    181563.75   -13366.145    963.95615   -14330.101   -507.36109     495.3447    78.778573      25.0701    16.304386 
   97600    235.98068   -438.71363    181563.75   -13315.724    970.71073   -14286.435   -957.82853    499.07642    78.777357    25.076481    16.298886 
   97800    235.56241   -303.63071    181563.75   -13338.106    968.99018   -14307.096   -494.98467    497.55787     78.77669    25.076958    16.321759 
   98000    232.47813   -489.95419    181563.75   -13371.194    956.30294   -14327.497   -1230.7404    499.25539    78.779492    25.077433    16.337973 
   98200    242.26567   -365.75492    181563.75   -13338.973    996.56414   -14335.537   -716.86867     500.8327    78.780211    25.073913    16.352955 
   98400    237.46837   -427.08452    181563.75   -13320.894    976.83039   -14297.724   -967.45089    502.63325    78.784938    25.074759    16.352278 
   98600    236.20123    -394.0202    181563.75   -13300.839    971.61799   -14272.457   -823.56447    503.36563    78.784191    25.070319    16.380392 
   98800    257.92279   -292.93467    181563.75   -13195.273      1060.97   -14256.243   -498.00309    504.24778    78.785318    25.069155    16.388883 
   99000    240.85654   -440.59097    181563.75   -13239.676     990.7677   -14230.444   -1041.1841    504.77498    78.786052    25.065739    16.395928 
   99200    245.27316   -199.33096    181563.75   -13263.826    1008.9355   -14272.762   -140.25068    506.49525    78.785628     25.06087    16.375178 
   99400    244.36814   -354.08125    181563.75   -13255.006    1005.2127   -14260.218   -679.01331    509.70114    78.789947    25.062895    16.368544 
   99600    234.47558   -396.08439    181563.75   -13259.762    964.51949   -14224.281   -866.92845     509.2832    78.791569    25.065875    16.337002 
   99800    242.35709    -463.9107    181563.75   -13256.979    996.94023   -14253.919    -1091.664    512.71594    78.796293    25.066764    16.353712 
  100000    232.46441   -493.28384    181563.75   -13278.027    956.24649   -14234.273   -1187.9334    511.87589    78.793941    25.068115    16.359056 
  100200    254.56364   -168.31307    181563.75   -13224.161    1047.1521   -14271.313   -28.825141    510.86806    78.796578    25.068448    16.349728 
  100400    232.93695   -377.17265    181563.75   -13280.592    958.19033   -14238.782    -763.5907    514.41759    78.794694    25.069527    16.331152 
  100600    237.45208   -146.96012    181563.75   -13338.985    976.76337   -14315.748    63.988472    513.58584    78.796686    25.071211     16.31106 
  100800    243.08083   -416.40155    181563.75   -13288.127    999.91734   -14288.044   -924.65271    515.67958    78.795025     25.07669    16.318902 
[...]
 5175800     224.9735   -353.27032    181563.75   -14726.002     925.4325   -15651.435   -605.40401    7720.6799    78.889976    25.963477    16.393784 
 5176000    231.20314   -333.47032    181563.75   -14681.142    951.05823     -15632.2   -575.71298    7719.6748    78.890436    25.964347    16.390396 
 5176200    231.01844   -294.12684    181563.75   -14696.823    950.29848   -15647.122   -422.51701    7717.3798    78.889856    25.964398    16.399197 
 5176400    226.83958   -324.69523    181563.75   -14740.865    933.10867   -15673.974   -512.35541    7719.5927    78.889527    25.967216    16.395078 
 5176600    227.02161   -396.75351    181563.75    -14692.77    933.85745   -15626.628   -760.04725    7721.3578    78.890062    25.968899    16.396324 
 5176800    220.62623   -433.02782    181563.75   -14715.287    907.54993   -15622.837    -909.7551    7719.3468    78.891899    25.968865     16.39826 
 5177000      222.285   -306.43032    181563.75   -14729.484    914.37331   -15643.857   -464.83679    7717.0976     78.89361    25.968749    16.395966 
 5177200    230.76297   -395.02068    181563.75   -14680.212    949.24759    -15629.46    -721.0448    7719.6528    78.892424    25.968529    16.399318 
 5177400    219.56059   -542.61856    181563.75   -14707.405    903.16642   -15610.572   -1338.3317     7721.844     78.89157    25.968944    16.398122 
 5177600    219.59683   -315.80359    181563.75   -14711.178    903.31548   -15614.493   -487.90992    7718.2922    78.889287    25.971725    16.399792 
 5177800     222.1831   -313.79723    181563.75   -14723.302    913.95417   -15637.256   -465.38086    7719.0127     78.88938    25.972435    16.396516 
 5178000    227.78913   -369.09867    181563.75   -14709.602    937.01464   -15646.617   -667.18801    7719.7112    78.889166    25.972778    16.398697 
 5178200    225.68323   -416.31166    181563.75     -14721.2    928.35198   -15649.552   -832.04316    7719.0105    78.888771    25.972287    16.393684 
 5178400    234.71053   -307.99213    181563.75   -14702.725    965.48595   -15668.211   -511.65637    7718.1295    78.888719     25.97328    16.394369 
 5178600    231.49098   -280.65499    181563.75   -14690.896    952.24228   -15643.138   -374.42712    7720.2866    78.888567    25.972875    16.397228 
 5178800    230.08809   -387.38409    181563.75   -14664.483    946.47145   -15610.954   -699.87104    7721.3998     78.88827    25.973508    16.394387 
 5179000     230.7247   -352.81108    181563.75   -14656.155    949.09017   -15605.245   -584.51939    7720.2781      78.8873     25.97475    16.395804 
 5179200     224.5087   -321.25703    181563.75   -14695.701    923.52053   -15619.222   -542.78259    7719.5778    78.887092    25.975211    16.394855 
 5179400    223.67382   -391.63311    181563.75   -14704.792    920.08627   -15624.879   -790.37658    7720.8495    78.888996     25.97543    16.394505 
 5179600    223.36144   -378.75532    181563.75   -14729.416    918.80129   -15648.217   -686.60849    7719.8032    78.888133     25.97704    16.397573 
 5179800    229.78912   -294.97756    181563.75   -14688.212    945.24164   -15633.454   -411.54855    7721.0865    78.888212    25.979456    16.396526 
 5180000    227.98349   -298.42914    181563.75   -14718.149    937.81415   -15655.964   -410.81203    7721.1559    78.889372    25.979171    16.394711 
 5180200    226.36385   -420.49251    181563.75   -14696.791    931.15174   -15627.943   -860.75989    7719.4386    78.889279    25.978405    16.404897 
 5180400    229.87861   -342.50246    181563.75   -14680.953    945.60975   -15626.563   -599.83285    7721.7222    78.888542    25.978206    16.406669 
 5180600    221.24636   -284.52074    181563.75   -14736.788    910.10084   -15646.889   -343.70075    7719.8662    78.887839    25.977507    16.399518 
 5180800    222.62253    -297.8718    181563.75   -14703.188    915.76176    -15618.95   -461.55701    7721.1348    78.886673    25.978138    16.398737 
 5181000    226.00156   -370.12509    181563.75    -14720.67    929.66144   -15650.331   -714.04321    7721.6522    78.886464    25.977505     16.39979 
 5181200    228.28058   -423.32132    181563.75   -14698.789    939.03626   -15637.825   -868.16936    7720.6931    78.887465    25.976588    16.397896 
 5181400    232.50868   -239.98902    181563.75   -14692.395     956.4286   -15648.824   -180.65976    7720.2981    78.887301     25.97643    16.401227 
 5181600    227.22009   -285.95545    181563.75   -14691.662    934.67389   -15626.336   -395.22904    7719.4444    78.887839    25.975948    16.398943 
 5181800    225.08368   -389.37568    181563.75   -14660.056    925.88574   -15585.942   -790.49387     7720.473     78.88707    25.976454    16.401609 
 5182000    220.22708   -392.43836    181563.75   -14735.103    905.90802   -15641.011   -745.24245    7721.8177    78.886549    25.977606    16.398106 
 5182200    218.07751   -372.71602    181563.75   -14807.391    897.06574   -15704.457   -697.74354    7719.7776    78.886067    25.978975    16.395451 
 5182400    229.29853   -374.65091    181563.75   -14711.592    943.22361   -15654.815   -703.27984    7717.8038     78.88648    25.978966    16.399984 
 5182600     228.2124   -368.22635    181563.75   -14689.669    938.75578   -15628.425    -682.4206     7720.373    78.884569    25.978594    16.399574 
 5182800    223.39093   -443.30222    181563.75   -14717.428    918.92257    -15636.35   -952.94926    7719.0521    78.883264    25.977337    16.396241 
 5183000    225.94053   -325.42201    181563.75   -14697.743    929.41041   -15627.153   -511.90198    7718.9322    78.881609    25.977287    16.398755 
 5183200    224.11525   -372.74949    181563.75   -14666.966    921.90209   -15588.868     -745.735    7719.9718    78.881057    25.978471    16.398207 
 5183400    220.25497   -375.96093    181563.75   -14721.031    906.02275   -15627.054   -706.54327    7720.4101    78.881504    25.977328    16.397958 
 5183600    226.99702    -340.2925    181563.75   -14701.251    933.75631   -15635.007   -588.14679    7719.3621    78.880163    25.978295    16.399545 
 5183800    224.48685   -331.49172    181563.75   -14735.326    923.43066   -15658.756   -539.31691    7719.3186    78.880765    25.976696    16.399309 
 5184000    219.62853   -377.03395    181563.75   -14719.743    903.44587   -15623.189   -727.10498    7719.3475    78.880378    25.975866    16.402314 
 5184200    226.14211   -322.05727    181563.75   -14711.742    930.23962   -15641.982   -497.44152     7721.404    78.881198    25.975163    16.396569 
 5184400    217.45475   -397.40023    181563.75   -14719.814      894.504   -15614.318   -806.25643    7720.1873    78.881368    25.976008    16.398205 
 5184600    228.92131   -371.00983    181563.75    -14689.18    941.67191   -15630.852   -671.61474    7719.5747    78.881086    25.975069    16.397474 
 5184800     235.8085   -376.07022    181563.75   -14650.824    970.00249   -15620.826   -720.62334    7718.9325    78.880433    25.973542     16.40207 
 5185000    233.03859   -323.61827    181563.75   -14644.483     958.6084   -15603.091   -511.49704    7721.4293    78.881831    25.973578    16.399728 
 5185200    222.31432   -360.85111    181563.75   -14689.779    914.49392   -15604.272   -666.68943    7720.9911    78.882307    25.972843    16.396019 
 5185400     222.2572   -333.14544    181563.75   -14693.165    914.25896   -15607.424   -538.45584    7719.9465    78.881996    25.971908    16.396311 
 5185600    218.39737   -291.15617    181563.75   -14748.094    898.38147   -15646.476   -385.42729    7719.8273    78.880872    25.971214    16.396077 
 5185800     226.1952   -384.15773    181563.75   -14697.991    930.45801   -15628.449   -698.81198    7720.7971    78.880764    25.972424    16.397315 
 5186000    232.63625   -394.07259    181563.75   -14661.926    956.95338   -15618.879   -781.36736    7720.6492    78.881697    25.972743    16.398679 
 5186200    231.26782      -320.75    181563.75   -14647.899    951.32431   -15599.223   -492.47782    7719.6862    78.883261    25.973384    16.396887 
 5186400    227.12509   -441.12838    181563.75   -14716.498    934.28312   -15650.781   -971.91616    7722.3726     78.88449    25.974773    16.392109 
 5186600     224.0312   -407.33587    181563.75   -14702.443    921.55636   -15623.999   -843.23489     7719.904       78.885    25.975729      16.3931 
 5186800    229.26612   -314.31913    181563.75   -14668.001     943.0903   -15611.091   -460.21288     7720.376    78.884415    25.976701    16.389658 
 5187000    225.96975   -315.83946    181563.75   -14706.346    929.53061   -15635.877   -435.84509    7722.2355    78.885736    25.977641    16.391431 
 5187200    227.06142   -396.49959    181563.75   -14684.167    934.02121   -15618.188   -791.85758    7720.5706     78.88597    25.978148    16.392297 
 5187400    217.67251   -355.54931    181563.75   -14731.714    895.39976   -15627.114   -673.00888    7722.1517    78.885863    25.978615    16.396555 
 5187600    224.56692   -343.08151    181563.75   -14703.662    923.76005   -15627.422   -575.87167    7721.5881    78.886185     25.97895    16.397346 
 5187800     228.6874   -341.46763    181563.75   -14681.251     940.7097    -15621.96   -546.40685    7719.3524    78.886616    25.979387    16.394264 
 5188000    221.52393   -353.40887    181563.75   -14715.053    911.24266   -15626.295   -628.43395    7720.9665    78.887207    25.978303    16.396121 
 5188200    227.55642   -342.95036    181563.75   -14689.994    936.05739   -15626.052   -598.29307    7720.3016    78.889465    25.979574    16.397106 
 5188400    222.87079   -424.45779    181563.75   -14704.161    916.78299   -15620.944   -898.60056    7719.0767     78.89014    25.979062    16.397901 
 5188600    224.42243   -348.22211    181563.75   -14722.696    923.16566   -15645.861   -582.36809    7720.8936    78.891377    25.979338    16.396214 
 5188800    231.42684   -321.29272    181563.75   -14678.404    951.97844   -15630.382   -525.33801    7718.2562    78.892907     25.97992    16.396775 
 5189000    230.26245   -312.24714    181563.75   -14690.462    947.18869   -15637.651   -465.31776    7720.4483    78.894355    25.980518    16.396959 
 5189200    225.22022   -323.46769    181563.75   -14674.148    926.44742   -15600.595   -474.92219    7718.7519    78.895861    25.981535    16.397359 
 5189400    222.52578   -347.37212    181563.75    -14694.76    915.36376   -15610.124   -629.04448    7717.4532    78.897073    25.982649    16.399854 
 5189600    224.66235     -328.467    181563.75   -14716.618    924.15258   -15640.771   -540.19463    7718.8981    78.898292    25.984085    16.405562 
 5189800    227.92334    -376.5456    181563.75   -14718.028    937.56675   -15655.594   -717.57102     7721.501    78.897514    25.986639    16.399331 
 5190000    221.56366   -353.48227    181563.75   -14696.472    911.40606   -15607.878   -627.52731    7720.8051    78.897588    25.990651    16.400836 
 5190200    222.87675   -355.40306    181563.75   -14721.208    916.80751   -15638.015   -622.62757    7720.9275    78.895285    25.994882    16.400741 
 5190400    224.01119   -414.02951    181563.75   -14688.137    921.47402   -15609.611   -858.43473     7720.338    78.893296    25.996751    16.409174 
 5190600    231.85892   -408.79456    181563.75    -14670.56    953.75583   -15624.316   -804.89647    7725.0005    78.893042    25.998758    16.405093 
 5190800    229.06396    -327.9653    181563.75    -14698.67    942.25871   -15640.929   -528.51685    7720.4728    78.891424    26.000384    16.403087 
 5191000    224.93426   -328.31748    181563.75    -14745.47    925.27111   -15670.742   -544.21374    7720.0666    78.890143    26.001692    16.405303 
 5191200    222.25652    -297.5985    181563.75   -14720.019    914.25617   -15634.275   -415.09242     7720.254    78.889421    26.001412    16.402382 
 5191400      223.093   -483.57749    181563.75   -14704.532    917.69702   -15622.229   -1110.0728    7720.9225    78.889776    26.001248    16.409277 
 5191600    223.39395   -428.31263    181563.75   -14707.018    918.93499   -15625.953   -870.98484    7718.7557    78.886191      26.0028    16.412498 
 5191800    224.54677   -322.29467    181563.75   -14722.892    923.67717   -15646.569   -488.09765    7718.3124    78.884987    26.003045    16.407649 
 5192000    233.14218   -353.84897    181563.75   -14684.228    959.03453   -15643.263   -591.24956     7718.972    78.881727    26.003283    16.411382 
 5192200    230.41991   -403.40516    181563.75   -14623.265     947.8364   -15571.101   -805.91505    7718.5932    78.880281    26.003385    16.411949 
 5192400     234.8176   -414.68503    181563.75   -14614.563    965.92637    -15580.49   -855.89291    7720.4589    78.878766    26.004252    16.411867 
 5192600    227.31638    -230.8396    181563.75   -14689.145    935.06999   -15624.215   -167.81252    7717.0805    78.875781    26.003955    16.412979 
 5192800    227.85687   -347.95031    181563.75    -14707.56     937.2933   -15644.853    -578.8816    7716.9481    78.873422      26.0024    16.407542 
 5193000     224.9695   -389.40606    181563.75   -14697.906    925.41605   -15623.322   -724.60986    7719.8527    78.872916    26.002267    16.409066 
 5193200    223.23227   -315.89365    181563.75   -14690.884    918.26994   -15609.154   -473.10875    7719.0925    78.872563    26.001961    16.406048 
 5193400    220.86312   -322.27983    181563.75   -14757.536    908.52437    -15666.06   -510.61666    7715.9044     78.87229    26.000041    16.400742 
 5193600    228.52577   -398.57371    181563.75   -14697.281    940.04486   -15637.326   -754.50376     7719.535    78.872589    26.002016    16.397649 
 5193800     224.8082   -427.21335    181563.75   -14733.466    924.75253   -15658.218    -876.9105    7722.0085    78.873171    26.001193    16.395531 
 5194000    227.95852   -287.49087    181563.75   -14689.184    937.71145   -15626.895   -388.99364    7720.2467    78.873988    26.003327    16.394011 
 5194200    223.11096   -283.45851    181563.75    -14705.04    917.77091   -15622.811   -378.49755    7716.9404    78.873941    26.005048     16.40241 
 5194400    234.49572    -471.2379    181563.75   -14667.761    964.60233   -15632.363   -1064.9751    7720.9592    78.875655    26.004107    16.396617 
 5194600     223.2128   -373.60862    181563.75   -14719.965    918.18984   -15638.154   -657.67531    7721.7502    78.877201    26.006995    16.396698 
 5194800    232.05546   -294.22187    181563.75   -14680.006     954.5643   -15634.571   -411.74177    7719.0326    78.878115    26.007352    16.395441 
 5195000    231.54335   -320.89047    181563.75   -14679.225    952.45769   -15631.683   -524.46909    7718.3866    78.879764    26.009183    16.394366 
 5195200    221.01304   -428.29431    181563.75   -14729.292    909.14108   -15638.433   -906.76107    7721.5716    78.880277    26.011986    16.398949 
 5195400     224.7498   -363.74012    181563.75   -14703.526    924.51233   -15628.039   -633.06883    7720.7039    78.881339    26.011584    16.400872 
 5195600    231.67918   -353.89017    181563.75   -14704.689    953.01646   -15657.705   -606.86106    7718.0967    78.882718    26.010762    16.399005 
 5195800    220.78667   -395.93864    181563.75    -14711.87    908.20991    -15620.08   -781.95278    7718.6342     78.88456    26.011521    16.398012 
 5196000    231.06393   -433.04025    181563.75   -14671.414    950.48559     -15621.9   -886.09648    7720.9729    78.884839    26.011219    16.386442 
 5196200    226.32189   -280.88636    181563.75   -14701.232    930.97915   -15632.211   -355.98441    7719.1719    78.885621    26.010972    16.394089 
 5196400    235.57622    -337.2804    181563.75   -14653.293      969.047    -15622.34   -588.31616    7717.4182    78.885942    26.011885    16.396046 
 5196600    226.03059   -377.17751    181563.75   -14731.782    929.78089   -15661.563   -731.05856    7720.4667    78.886331    26.012719    16.390187 
 5196800    222.96644   -376.93278    181563.75   -14712.693    917.17643    -15629.87   -689.24803     7717.335    78.886155    26.013711    16.394431 
 5197000    233.06526   -245.66283    181563.75   -14690.213     958.7181   -15648.931   -220.91845    7717.4928    78.887141    26.015041    16.387379 
 5197200    226.44558   -340.05782    181563.75   -14697.752    931.48793    -15629.24   -579.00043    7719.2448    78.888416    26.013899    16.385585 
 5197400    229.45444     -410.382    181563.75   -14642.552    943.86495   -15586.417   -822.51582     7719.499    78.890424    26.014484    16.397298 
 5197600    226.76551   -305.54691    181563.75   -14684.789    932.80396   -15617.593   -460.46707    7720.2166    78.891749    26.015072    16.388808 
 5197800     222.0778   -405.40425    181563.75   -14683.128    913.52098   -15596.649   -832.64128    7717.2785    78.892215    26.013715    16.387343 
 5198000    237.11725   -402.95082    181563.75    -14661.96    975.38604   -15637.346    -809.0533    7721.1339    78.893155    26.014308    16.389983 
 5198200    225.98575   -354.89176    181563.75   -14702.388    929.59642   -15631.984   -622.19661    7719.9118    78.894765    26.013849    16.383422 
 5198400    224.71718   -326.08024    181563.75   -14725.252    924.37812    -15649.63   -526.15217     7719.364    78.896356     26.01395    16.387014 
 5198600    233.07093   -362.90098    181563.75   -14702.588    958.74144    -15661.33     -652.816    7720.9587    78.897492     26.01557    16.389147 
 5198800    217.28568   -404.12466    181563.75   -14745.549    893.80851   -15639.357   -814.33749    7721.2264    78.900416    26.016304    16.389267 
 5199000     230.8003   -264.69526    181563.75    -14714.24    949.40115   -15663.641   -306.17426    7718.3026    78.902341    26.017971    16.388593 
 5199200    229.38516   -240.14341    181563.75   -14712.243    943.57995   -15655.823   -235.66373    7718.6737      78.9033    26.018797    16.390039 
 5199400    222.97997   -427.84878    181563.75    -14742.92     917.2321   -15660.152   -867.48333    7719.5427    78.905667    26.019052    16.390774 
 5199600    216.71122   -407.08312    181563.75   -14736.755    891.44549   -15628.201   -816.81441    7720.2883    78.906965    26.020872    16.388936 
 5199800    229.81599   -360.01905    181563.75    -14690.14    945.35216   -15635.492   -689.97254    7718.6647    78.908411    26.021782    16.388486 
 5200000    224.63935   -327.53376    181563.75   -14691.394    924.05798   -15615.452   -552.56461    7717.9463     78.90795    26.022376    16.388674 
Loop time of 6656.76 on 128 procs for 5200000 steps with 9253 atoms

Performance: 674.923 ns/day, 0.036 hours/ns, 781.161 timesteps/s
97.6% CPU use with 128 MPI tasks x no OpenMP threads

MPI task timing breakdown:
Section |  min time  |  avg time  |  max time  |%varavg| %total
---------------------------------------------------------------
Pair    | 0.42999    | 1676.7     | 5279.7     |4727.6 | 25.19
Neigh   | 4.3202     | 114.11     | 289.16     | 861.9 |  1.71
Comm    | 97.344     | 1077.5     | 4298.8     |3417.7 | 16.19
Output  | 116.07     | 116.53     | 119.92     |   9.3 |  1.75
Modify  | 212.99     | 3559.9     | 6330.6     |4367.2 | 53.48
Other   |            | 112        |            |       |  1.68

Nlocal:    72.2891 ave 153 max 0 min
Histogram: 40 1 8 15 0 0 0 26 29 9
Nghost:    703.805 ave 953 max 516 min
Histogram: 26 8 6 32 7 9 4 19 1 16
Neighs:    0 ave 0 max 0 min
Histogram: 128 0 0 0 0 0 0 0 0 0
FullNghs:  7759.66 ave 18534 max 0 min
Histogram: 42 22 0 0 0 0 3 31 23 7

Total # of neighbors = 993236
Ave neighs/atom = 107.342
Neighbor list builds = 530420
Dangerous builds = 0
write_data 		${DIR}/data.${NAME}_run
write_data 		run_9/data.${NAME}_run
write_data 		run_9/data.ibeam_cooling_9_run
Total wall time: 1:51:10
