
# Set production fixes - Nose/Hoover
#
fix                 4 water temp/csvr ${START_TEMP} ${END_TEMP} 500.0 928347
fix                 4 water temp/csvr 240 ${END_TEMP} 500.0 928347
fix                 4 water temp/csvr 240 227 500.0 928347


## divide "droplet" into core and surface
#region		core_reg cylinder z 135 135 44.6 20 INF units box
#region		surface_reg cylinder z 135 135 44.6 20 INF units box side out
#group		core dynamic all region core_reg
#group		surface dynamic all region surface_reg

## compute pressure core
#compute        peratom_core core stress/atom NULL
#compute        p_core core reduce sum c_peratom_core[1] c_peratom_core[2] c_peratom_core[3]
#variable       press_core equal -(c_p_core[1]+c_p_core[2]+c_p_core[3])/(3*1249982.5)


## compute pressure surface
#compute        peratom_surf surface stress/atom NULL
#compute        p_surf surface reduce sum c_peratom_surf[1] c_peratom_surf[2] #c_peratom_surf[3]
#variable       press_surf equal -(c_p_surf[1]+c_p_surf[2]+c_p_surf[3])/(3*42395)

## compute total pressure of drop
compute        peratom water stress/atom NULL
compute        p water reduce sum c_peratom[1] c_peratom[2] c_peratom[3]
variable       press equal -(c_p[1]+c_p[2]+c_p[3])/(3*58301)


# compute order parameter
compute        3 all orientorder/atom nnn NULL cutoff 3.5

# compute center of mass of bridge
compute 	4 water com

# Run simulation
thermo_style        custom step c_2 press vol etotal ke pe v_press c_1[4] c_4[*]
thermo              200
dump		     1 water custom 400 ${DIR}/prod.${NAME}.dump id type x y z vx vy vz c_3[*] c_peratom[*]
dump		     1 water custom 400 run_13/prod.${NAME}.dump id type x y z vx vy vz c_3[*] c_peratom[*]
dump		     1 water custom 400 run_13/prod.ibeam_cooling_13.dump id type x y z vx vy vz c_3[*] c_peratom[*]
run                 ${STEPS}
run                 5200000
Neighbor list info ...
  update every 1 steps, delay 0 steps, check yes
  max neighbors/atom: 2000, page size: 100000
  master list distance cutoff = 6.6747184
  ghost atom cutoff = 6.6747184
  binsize = 3.3373592, bins = 48 11 14
  2 neighbor lists, perpetual/occasional/extra = 1 1 0
  (1) pair sw, perpetual
      attributes: full, newton on
      pair build: full/bin/atomonly
      stencil: full/bin/3d
      bin: standard
  (2) compute orientorder/atom, occasional, copy from (1)
      attributes: full, newton on
      pair build: copy
      stencil: none
      bin: none
Per MPI rank memory allocation (min/avg/max) = 6.105 | 6.777 | 7.324 Mbytes
Step c_2 Press Volume TotEng KinEng PotEng v_press c_1[4] c_4[1] c_4[2] c_4[3] 
       0    236.25098   -171.72622    263624.46    -25779.78    1911.9554   -27691.735   -261.74194    37.149365    78.607746    18.369913    27.393239 
     200     242.8174    -224.4526    263624.46   -25812.017    1965.0968   -27777.114   -473.11529    37.750402    78.608334    18.370181    27.393728 
     400    235.88028   -302.14978    263624.46   -25785.814    1908.9553   -27694.769   -852.06204    38.999162    78.607323    18.368051    27.406926 
     600    241.13103   -307.42598    263624.46   -25674.554    1951.4491   -27626.004   -906.75213    40.443836      78.6079    18.367166    27.412361 
     800    241.96241   -325.98567    263624.46   -25681.314    1958.1774   -27639.491   -1001.7739    41.811067     78.60774    18.365916    27.427752 
    1000    239.19607   -130.09436    263624.46   -25749.708    1935.7897   -27685.498   -60.726152    43.197819    78.606905    18.367784    27.441807 
    1200    239.47186   -200.25528    263624.46   -25736.244    1938.0217   -27674.266   -406.76192    44.897576    78.606478    18.366948    27.442939 
    1400    238.68896   -393.59116    263624.46   -25744.959    1931.6857   -27676.645   -1208.5759    45.681766    78.607338    18.368992    27.446726 
    1600    240.02313   -269.33556    263624.46   -25738.339     1942.483   -27680.822   -702.12551     47.18885    78.606139    18.367374    27.443593 
    1800    244.15387   -437.18494    263624.46   -25701.519    1975.9126   -27677.431   -1442.5074    49.540467    78.603896    18.368359    27.461695 
    2000    239.91294   -270.17468    263624.46   -25643.201    1941.5912   -27584.792   -686.78851    50.292392      78.6041    18.368407    27.471651 
    2200    241.82346   -263.73342    263624.46    -25691.32    1957.0529   -27648.373   -669.78924    52.227573    78.603922    18.370381    27.470106 
    2400    238.62884   -375.42814    263624.46   -25663.222    1931.1992   -27594.421   -1183.4309    53.582122    78.601654    18.371068    27.484126 
    2600    238.22839   -234.28885    263624.46   -25734.139    1927.9584   -27662.098   -547.31455    54.530798    78.600549     18.37044    27.488796 
    2800     236.0759   -267.94013    263624.46   -25631.524    1910.5385   -27542.063   -725.82114    56.327625     78.59991    18.372903    27.478467 
    3000    244.97179   -166.05181    263624.46   -25682.798     1982.532    -27665.33   -246.87854    58.793815    78.600253     18.37348    27.467481 
    3200     241.2014   -310.23068    263624.46   -25724.464    1952.0187   -27676.483   -893.50468    60.028166     78.60011    18.372769    27.489582 
    3400    243.09235   -226.04387    263624.46   -25737.885    1967.3219   -27705.207   -504.39584    61.560074    78.599194    18.372321    27.486571 
    3600    239.13918   -252.49174    263624.46   -25728.907    1935.3293   -27664.236   -617.93337    62.965268    78.598794     18.37502    27.504124 
    3800    243.47966   -314.30791    263624.46   -25646.619    1970.4564   -27617.075   -886.57488    64.977718    78.597268    18.375234    27.513785 
    4000    241.25872   -180.70862    263624.46   -25747.832    1952.4825   -27700.314   -296.03867    65.972546    78.596325    18.374074    27.512605 
    4200     238.3816   -319.58617    263624.46   -25677.309    1929.1983   -27606.507   -933.94843    67.661077    78.594982    18.374598     27.49345 
    4400    236.69199   -218.64806    263624.46   -25713.947    1915.5244   -27629.471   -458.43034    69.449067    78.594283    18.375086    27.500666 
    4600    229.14008   -234.63005    263624.46    -25792.25    1854.4076   -27646.658   -545.92134    70.883055    78.594248    18.374902    27.492153 
    4800    240.41155   -312.11762    263624.46   -25638.014    1945.6265    -27583.64   -909.31655      73.4025    78.594546    18.374248    27.471074 
    5000    232.64329   -374.91726    263624.46   -25673.907    1882.7587   -27556.665   -1173.7829    74.704963    78.594505     18.37264    27.469716 
    5200    238.09493   -401.93608    263624.46   -25683.979    1926.8783   -27610.857   -1303.8242    76.743561    78.594381    18.374148     27.46437 
    5400     236.2912   -191.20092    263624.46   -25722.438    1912.2809   -27634.719   -364.16021    79.197816    78.594682    18.375008    27.453639 
    5600    236.49971   -180.32697    263624.46   -25717.834    1913.9683   -27631.802   -258.63907    80.572963    78.594868    18.376046    27.453951 
    5800    236.39401   -292.15956    263624.46   -25628.363    1913.1129   -27541.476   -828.12814    82.793071    78.593769    18.377108    27.457188 
    6000    239.42335   -175.14023    263624.46    -25660.26    1937.6291   -27597.889   -244.98207    85.304799    78.593744     18.37614     27.45635 
    6200    243.67585   -203.17446    263624.46   -25692.127    1972.0441   -27664.171   -402.95935    86.836747    78.594005    18.377711    27.450122 
    6400    239.22007   -338.54376    263624.46   -25711.415    1935.9839   -27647.398   -1042.8089    89.184448    78.594471    18.377674    27.452111 
    6600      242.885   -174.40413    263624.46   -25736.629    1965.6438   -27702.273   -282.67571    90.650858    78.596623    18.378163    27.433537 
    6800    243.87436   -34.435411    263624.46   -25737.173    1973.6506   -27710.823    390.00556    92.662626    78.595596    18.377417    27.416529 
    7000    241.62568   -454.98458    263624.46   -25678.606    1955.4523   -27634.059   -1514.0232    95.394405    78.595883     18.37768    27.413305 
    7200    234.20828    -253.6272    263624.46   -25804.638     1895.424   -27700.062   -608.58743    96.071639    78.596058    18.378637     27.39999 
    7400     235.2738    -228.5555    263624.46   -25731.045    1904.0472   -27635.092   -514.65091    98.166283    78.596304    18.377362    27.390101 
    7600    248.78017   -258.60808    263624.46   -25629.195    2013.3529   -27642.548   -677.95288    100.49543    78.596093     18.37672    27.375547 
    7800    232.47842   -281.00051    263624.46   -25772.349    1881.4245   -27653.773   -746.18369    102.71453    78.594894    18.376088    27.371736 
    8000    239.92189    -167.2529    263624.46   -25633.122    1941.6637   -27574.786   -217.54475    105.47605    78.594121    18.377706    27.372035 
    8200    251.37213   -359.04887    263624.46    -25629.35    2034.3293   -27663.679   -1105.5385    108.79027    78.593387    18.379851    27.366151 
    8400    244.55512   -100.21415    263624.46   -25604.622      1979.16   -27583.782    60.310597    111.27299    78.592978      18.3828    27.367744 
    8600    242.17785   -259.99082    263624.46   -25681.847    1959.9209   -27641.768   -586.85641    114.00943    78.592589    18.380994     27.36785 
    8800    243.92527   -173.95747    263624.46   -25703.258    1974.0627   -27677.321    -223.0672    114.95088    78.590892    18.381514    27.357876 
    9000    236.24525   -269.19661    263624.46   -25666.448     1911.909   -27578.357   -676.68888     116.4635    78.591072    18.381628    27.359021 
    9200    250.11874   -272.44275    263624.46   -25644.313    2024.1858   -27668.499   -713.92002     116.6279    78.591369    18.382727    27.362078 
    9400    238.32501   -321.57147    263624.46   -25710.025    1928.7403   -27638.765   -1041.5341    116.17798    78.589628    18.385215    27.361704 
    9600    234.56154   -370.51566    263624.46   -25733.758    1898.2829   -27632.041   -1173.6979    116.41457     78.58853    18.384623    27.358012 
    9800    243.19188   -340.24044    263624.46   -25636.759    1968.1274   -27604.887   -1045.5562    118.65737    78.587189    18.383616    27.352228 
   10000    245.35034   -243.42914    263624.46   -25670.421    1985.5956   -27656.017     -595.559    122.15585     78.58808    18.382776    27.354984 
   10200    248.90633   -179.28656    263624.46   -25610.004    2014.3739   -27624.378    -263.8763    125.23338    78.587611    18.380932    27.358337 
   10400    242.44358   -85.615818    263624.46   -25642.111    1962.0714   -27604.183     110.9404     127.6842    78.587406    18.378896    27.356487 
   10600     242.3494   -209.07294    263624.46   -25704.354    1961.3093   -27665.663   -416.29657    130.84251    78.585666    18.377968    27.361188 
   10800     233.6419    -251.6153    263624.46   -25818.893    1890.8404   -27709.733    -595.1863    132.30887    78.583439    18.375924    27.357883 
   11000    236.27346   -296.48965    263624.46   -25772.497    1912.1373   -27684.634    -800.8753    133.77534    78.580843    18.374307    27.351307 
   11200    237.63013   -459.44083    263624.46    -25795.49    1923.1167   -27718.607   -1547.8445    133.90798    78.579606    18.371437    27.361785 
   11400    241.98085   -444.91023    263624.46   -25787.384    1958.3266    -27745.71   -1495.0564    136.63914    78.578956    18.368915    27.339752 
   11600    246.01841   -247.70422    263624.46   -25683.709    1991.0023   -27674.711   -582.89413    138.71821    78.579339    18.368356     27.34698 
   11800    243.14308   -384.31079    263624.46   -25689.612    1967.7325   -27657.345   -1192.3378    140.34366    78.577342     18.36965    27.337313 
   12000    240.25409   -221.80519    263624.46    -25684.94    1944.3521   -27629.293   -526.47316    140.30346    78.575482    18.369066    27.335211 
   12200    243.69275   -341.69281    263624.46   -25705.255    1972.1809   -27677.435   -1004.6999    139.94294    78.574801    18.366139      27.3456 
   12400    242.83273   -127.26171    263624.46   -25734.921    1965.2208   -27700.142   -41.012931    142.00598    78.574726    18.364846    27.357243 
   12600    238.52359   -192.08994    263624.46   -25642.542    1930.3474   -27572.889   -334.82978    145.31276    78.573732    18.366053    27.363894 
   12800    237.73674    -304.6428    263624.46   -25669.214    1923.9795   -27593.194   -818.53066    147.68482    78.575274    18.366521    27.361692 
   13000    237.31306    -246.6874    263624.46   -25729.239    1920.5507    -27649.79   -582.14939    150.23948    78.575529    18.366698    27.363784 
   13200    239.02378   -171.68205    263624.46   -25798.332    1934.3953   -27732.728   -244.88207    150.23265    78.575494    18.365816    27.364067 
   13400    239.74469   -250.55246    263624.46   -25825.135    1940.2296   -27765.365    -614.0164    150.01431    78.575816    18.365634    27.359357 
   13600      235.489   -333.10362    263624.46   -25777.591    1905.7888    -27683.38   -945.63778    151.07297    78.576537    18.365138    27.376754 
   13800    240.44313   -218.86003    263624.46   -25703.194     1945.882   -27649.076   -465.58168    151.90103    78.578428    18.365298    27.373268 
   14000    240.18909   -340.57903    263624.46   -25658.093    1943.8261   -27601.919   -1024.7477    153.81967    78.578685    18.364164    27.384691 
   14200    238.43517   -355.60253    263624.46   -25695.091    1929.6318   -27624.723   -1070.6352    155.65956    78.580847    18.362955    27.365348 
   14400    244.85599   -171.39188    263624.46   -25691.953    1981.5948   -27673.548   -283.62102    157.46654    78.582557    18.364612    27.363472 
   14600    241.46583   -235.48633    263624.46   -25717.091    1954.1586    -27671.25   -542.64837    157.69053    78.584887     18.36718    27.376174 
   14800    243.65677   -358.92314    263624.46   -25684.134    1971.8897   -27656.024   -1069.1276    160.10801    78.585607    18.367762     27.36504 
   15000    239.24013   -193.73784    263624.46   -25690.352    1936.1463   -27626.499   -329.18647    160.55779    78.586387    18.366839    27.351964 
   15200    239.95726   -330.27352    263624.46   -25618.988      1941.95   -27560.938   -1000.2512    160.65974    78.586539    18.367041    27.371226 
   15400    246.20237   -201.23173    263624.46   -25689.647     1992.491   -27682.138    -372.4551    161.38758    78.587504    18.369748    27.371048 
   15600     246.1278   -286.38454    263624.46   -25589.955    1991.8875   -27581.842   -761.70657    163.83075    78.584271    18.370507    27.363671 
   15800    244.28615   -255.58749    263624.46   -25640.606    1976.9832   -27617.589   -626.15975    166.16426    78.583891    18.370032    27.374771 
   16000    241.27711   -118.30794    263624.46   -25666.118    1952.6313   -27618.749   -12.973261    168.10796    78.585573    18.369027    27.375622 
   16200    237.28169   -260.21837    263624.46   -25654.863    1920.2968    -27575.16   -650.07848    169.08849    78.585972     18.36838    27.376687 
   16400     240.1069   -254.84075    263624.46    -25694.71    1943.1609   -27637.871   -645.37478    169.00279    78.585787    18.369673      27.3817 
   16600    238.06084   -318.46465    263624.46   -25618.033    1926.6024   -27544.636   -863.87514    168.50815    78.586936    18.369497    27.386509 
   16800    236.06035   -324.44313    263624.46   -25630.449    1910.4126   -27540.861   -929.74814    169.43814    78.585065    18.369557    27.369089 
   17000    236.19514   -219.52427    263624.46   -25751.301    1911.5035   -27662.804   -470.14353    169.25052     78.58351    18.370047    27.364087 
   17200    242.43259   -307.95299    263624.46   -25746.679    1961.9825   -27708.662   -827.56907    168.67577    78.582749    18.368861    27.355533 
   17400    242.29066   -177.73822    263624.46   -25825.881    1960.8339   -27786.715   -257.40134    168.58662    78.580446    18.367987    27.371808 
   17600    242.80962   -300.32904    263624.46   -25743.676    1965.0338    -27708.71   -838.09033    169.88109    78.580946    18.367804    27.362102 
   17800    240.90727   -214.64418    263624.46    -25743.36    1949.6383   -27692.998   -447.83514    173.43771    78.579938    18.366483    27.375026 
   18000    236.37577   -239.92387    263624.46   -25685.191    1912.9653   -27598.156   -571.55135    176.22666    78.579502    18.365093    27.366732 
   18200    237.40812   -261.93808    263624.46   -25692.504      1921.32   -27613.824   -641.82767    178.80689    78.580026    18.366783    27.347225 
   18400    239.74481    -304.3948    263624.46   -25662.217    1940.2306   -27602.447    -861.0822    179.93647    78.581572    18.366731    27.335483 
   18600    239.50723   -249.69385    263624.46   -25665.137    1938.3079   -27603.445   -646.43145    182.07078    78.582131    18.368199    27.319529 
   18800    238.85717   -386.47327    263624.46   -25755.239     1933.047   -27688.286   -1241.4142    184.81718    78.582574    18.368047    27.327503 
   19000    244.20939   -233.19913    263624.46   -25649.156     1976.362   -27625.518   -544.79611    186.92724    78.582395    18.367406    27.330095 
   19200    241.23838   -219.48063    263624.46   -25706.251    1952.3179   -27658.569   -448.94967    188.79452    78.582405    18.368481    27.323057 
   19400    240.07414   -354.61058    263624.46    -25622.93    1942.8959   -27565.826   -1130.2169    191.69099    78.581337    18.368404      27.3306 
   19600    239.96085    -136.5988    263624.46   -25605.465     1941.979   -27547.444   -112.11058    193.34849     78.57955    18.369221    27.317849 
   19800    236.77604   -277.05866    263624.46   -25633.869    1916.2046   -27550.073   -760.85934    194.57854     78.57778    18.371103    27.335144 
   20000    241.41683   -177.52507    263624.46   -25671.374    1953.7621   -27625.136   -252.56656    195.20704    78.577885    18.371297    27.316115 
   20200    235.78308   -203.10703    263624.46   -25709.146    1908.1687   -27617.315   -403.78998    194.90009    78.576946    18.370971    27.328253 
   20400    242.18117    -329.9511    263624.46   -25622.123    1959.9478   -27582.071   -988.01019    197.17403    78.578386    18.370867    27.333311 
   20600    240.84647    -275.5782    263624.46   -25722.061    1949.1462   -27671.207   -750.10253    197.74833    78.578753    18.371456    27.305821 
   20800    244.98926   -283.92942    263624.46   -25635.238    1982.6734   -27617.912    -798.5024    198.38931    78.575982    18.372634    27.311533 
   21000    239.63046   -282.86822    263624.46   -25693.611    1939.3052   -27632.916   -726.66123    199.28076    78.575145    18.371367    27.299685 
   21200    240.13384    -172.1037    263624.46   -25645.885     1943.379   -27589.264   -246.80355    200.97349    78.575314    18.369137    27.305113 
   21400    237.96873   -341.64793    263624.46   -25689.598    1925.8569   -27615.455   -1003.8896    203.07811    78.573355    18.367428    27.315207 
   21600    243.21469   -216.57083    263624.46   -25588.843     1968.312   -27557.155   -446.03448    206.50522    78.574132    18.364531    27.301545 
   21800    240.90108   -248.83557    263624.46   -25721.658    1949.5882   -27671.246   -581.81275    208.56794     78.57477    18.363924    27.301725 
   22000    233.78493   -370.91591    263624.46   -25774.211    1891.9979   -27666.209   -1141.8942    208.35423    78.572843    18.362653    27.283367 
   22200    239.83582   -248.71171    263624.46   -25853.011    1940.9671   -27793.978   -597.48166    209.50924    78.571426     18.36164    27.264384 
   22400    244.08282   -318.72216    263624.46   -25722.028    1975.3376   -27697.365   -910.61624    211.27903    78.569202    18.363442    27.267461 
   22600    241.19071    -99.99097    263624.46   -25746.479    1951.9321   -27698.411    78.945197     215.7142    78.568271    18.362305     27.27382 
   22800    245.60937    -291.6711    263624.46   -25753.305    1987.6919   -27740.997   -839.06053     218.7921    78.568056    18.363387    27.283122 
   23000     239.1981    -280.6223    263624.46   -25798.627    1935.8062   -27734.433   -753.67721    221.14415    78.567386    18.365818     27.29117 
   23200    238.49264   -485.35677    263624.46   -25732.104    1930.0969   -27662.201   -1678.5177    223.04944    78.567546    18.369622    27.294509 
   23400    239.24092   -204.29557    263624.46   -25716.258    1936.1526   -27652.411   -430.83004    224.32837    78.569275    18.369514    27.293945 
   23600    240.85349   -339.16893    263624.46   -25619.687    1949.2031    -27568.89   -958.65812    227.29599    78.570279    18.369586    27.317223 
   23800    245.31572   -296.48472    263624.46   -25593.162    1985.3154   -27578.477   -770.71833    227.17936    78.570642    18.371215    27.331656 
   24000    240.81693   -492.21547    263624.46   -25659.148    1948.9072   -27608.055   -1674.2779    227.72742    78.570874    18.371712    27.357139 
   24200    239.53134   -278.08341    263624.46    -25673.96     1938.503   -27612.463   -703.01701     229.2882    78.570986    18.371867    27.367323 
   24400    241.76947   -207.09571    263624.46   -25742.523     1956.616   -27699.139   -400.63434     231.9953    78.571381    18.372029    27.340571 
   24600    235.95061   -206.00674    263624.46   -25768.969    1909.5245   -27678.493   -446.96342    233.51841    78.572823    18.372034    27.334809 
   24800    232.27306   -353.85265    263624.46   -25740.147    1879.7625    -27619.91   -1063.5677    235.37414    78.573505    18.370836    27.337862 
   25000    236.59881   -243.73297    263624.46     -25719.5    1914.7703    -27634.27   -566.52794    237.05376    78.573678    18.370921    27.322771 
   25200    230.04783   -105.73995    263624.46   -25854.359    1861.7539   -27716.112    69.497132    238.29989    78.572879    18.370208    27.318535 
   25400    240.35585   -533.88464    263624.46    -25768.49    1945.1757   -27713.666   -1911.0157     240.3027    78.573266    18.370775    27.331523 
   25600    244.81572   -303.42671    263624.46   -25615.625    1981.2689   -27596.894   -858.25193    241.73666    78.573885    18.371122     27.33184 
   25800      245.873   -149.27776    263624.46   -25608.459    1989.8255   -27598.285   -203.93711    241.47829    78.574156    18.372077    27.351586 
   26000    246.39007    -243.4862    263624.46   -25664.567      1994.01   -27658.577   -556.02403    243.87771    78.576345    18.372229    27.359928 
   26200    241.35072   -235.66711    263624.46   -25698.426    1953.2271   -27651.653   -548.23317    246.36272    78.577519    18.373425    27.360253 
   26400     231.5133   -463.73456    263624.46   -25791.221    1873.6138   -27664.835    -1566.627    249.84843    78.578406    18.372249    27.368738 
   26600    240.95233   -404.63541    263624.46   -25703.445    1950.0029   -27653.448   -1305.5372    254.41236    78.576674    18.369237    27.364354 
   26800    236.79242   -267.14512    263624.46   -25748.531    1916.3372   -27664.868   -697.78281    257.37436    78.574748    18.368449    27.346119 
   27000    242.41975   -383.07062    263624.46   -25705.281    1961.8786   -27667.159   -1234.8175    260.66946     78.57342    18.367511    27.346075 
   27200    234.21556   -214.28616    263624.46    -25715.89    1895.4829   -27611.373   -465.31966    260.79754    78.573249    18.364953    27.341625 
   27400    241.99402   -372.73884    263624.46   -25692.848    1958.4332   -27651.282   -1141.4929    262.13893    78.572936    18.361477     27.33545 
   27600    235.49182   -283.52708    263624.46   -25840.397    1905.8116   -27746.208   -726.75678    263.25071    78.573648     18.35804    27.337815 
   27800    239.43582     -286.912    263624.46    -25693.54      1937.73    -27631.27   -741.70596    263.28253    78.574792    18.354701    27.350592 
   28000    244.11025   -311.23481    263624.46   -25825.467    1975.5596   -27801.027   -876.15085    266.51351    78.574781     18.35497    27.345366 
   28200     241.8144   -184.84492    263624.46   -25793.309    1956.9795   -27750.289   -301.16219    268.38508    78.573839    18.354714    27.359377 
   28400    241.54783   -278.78442    263624.46   -25732.706    1954.8222   -27687.528   -711.50311     269.2604    78.573829    18.355241    27.357161 
   28600    238.98594   -301.90648    263624.46   -25791.314    1934.0891   -27725.403   -818.40871    271.75022    78.572402    18.356471    27.349308 
   28800    238.23942   -267.42423    263624.46   -25796.866    1928.0477   -27724.914   -669.33202    272.92333    78.571553      18.3579    27.345852 
   29000    243.18488   -298.38639    263624.46   -25709.595    1968.0707   -27677.666   -804.68423    274.90393    78.571198    18.357695    27.356424 
   29200    243.32826   -296.02003    263624.46   -25688.923    1969.2311   -27658.154   -874.14104    272.70897    78.571352    18.358538     27.35937 
   29400    242.35674   -235.52646    263624.46   -25712.012    1961.3687   -27673.381   -527.37943    273.26078     78.57001    18.359483      27.3661 
   29600    245.75151   -200.00848    263624.46    -25702.55    1988.8422   -27691.392   -347.26596    274.99801    78.570325    18.360602    27.369671 
   29800    236.25055   -205.46025    263624.46   -25836.187    1911.9519   -27748.139   -421.17923    276.64139    78.569061    18.359425    27.366655 
   30000    237.90524   -426.84847    263624.46    -25862.98    1925.3432   -27788.323   -1393.8521    277.94998    78.568436    18.360475    27.375511 
   30200    239.03782   -362.30177    263624.46   -25812.402     1934.509   -27746.911    -1122.282    280.52505    78.570646    18.361329    27.380377 
   30400    242.36599   -276.68928    263624.46   -25774.225    1961.4436   -27735.669   -736.27129    281.53228    78.572334    18.362248    27.380092 
   30600    234.86761   -306.12383    263624.46   -25786.511    1900.7599   -27687.271   -831.79773    280.54235    78.573577     18.36207    27.382832 
   30800    236.28261   -302.37381    263624.46   -25738.693    1912.2113   -27650.904   -871.10574     282.3921     78.57483    18.361841    27.372725 
   31000     235.5428   -345.22737    263624.46   -25716.549    1906.2242   -27622.773   -1018.6043    286.43068    78.573851    18.366408    27.366101 
   31200    242.74179   -148.54499    263624.46   -25716.728    1964.4849   -27681.213   -130.23014    288.68409    78.571863    18.365241     27.36008 
   31400    236.62305   -88.630375    263624.46   -25712.109    1914.9665   -27627.075    120.07777    291.71792    78.571105    18.364286     27.37108 
   31600    245.24012   -323.95819    263624.46   -25711.904    1984.7036   -27696.607   -928.40351    293.70052     78.57076    18.365191    27.382893 
   31800    241.55131   -299.80215    263624.46   -25681.946    1954.8504   -27636.796   -849.20504    293.59264    78.570799     18.36638    27.415356 
   32000    237.17937   -411.11183    263624.46   -25722.495    1919.4687   -27641.963   -1350.3892     294.2229    78.570686     18.36625    27.439567 
   32200    235.18411   -184.92898    263624.46    -25809.78    1903.3213   -27713.102   -304.23668     294.6563    78.569275    18.366899    27.441085 
   32400    235.82124   -438.45041    263624.46   -25748.918    1908.4775   -27657.395   -1460.3435    295.19506    78.568748    18.367732    27.434973 
   32600    245.96476    -287.9865    263624.46   -25662.161    1990.5681   -27652.729   -809.51542    297.07464    78.568317    18.367372    27.424384 
   32800    241.99209   -288.72328    263624.46   -25650.812    1958.4176    -27609.23   -783.38557      295.585    78.569306    18.366735     27.44423 
   33000    238.08736   -326.04633    263624.46   -25650.353     1926.817    -27577.17    -978.1343    297.64863    78.570168    18.366551    27.439019 
   33200    233.76528   -212.85397    263624.46   -25699.134    1891.8388   -27590.972   -447.24756    300.39293    78.570217    18.367611    27.423612 
   33400    240.79504   -145.15415    263624.46   -25681.901      1948.73    -27630.63   -143.95808    302.97012    78.569973    18.370178    27.414329 
   33600    235.44666   -329.06281    263624.46   -25745.766    1905.4461   -27651.212   -965.73794    306.97228    78.569696    18.372761     27.41002 
   33800    244.78812   -89.620061    263624.46   -25590.003    1981.0456   -27571.049    152.98191    309.45287    78.571133    18.374672      27.4176 
   34000    237.81113   -253.06497    263624.46   -25722.788    1924.5815   -27647.369   -624.90204    311.47489    78.571049    18.377942    27.406129 
   34200    240.39483   -288.00513    263624.46   -25739.633    1945.4912   -27685.125   -784.49013    312.83467    78.572758    18.379712    27.423537 
   34400    239.78393   -283.17626    263624.46   -25772.606    1940.5472   -27713.153   -701.10961     313.5818    78.574275    18.382481    27.419369 
   34600    241.71308   -387.38732    263624.46   -25651.427    1956.1596   -27607.587   -1240.9861    314.35975    78.574234    18.384048    27.457482 
   34800    244.57827   -196.63264    263624.46   -25749.001    1979.3473   -27728.348   -375.90723    316.25153    78.575605    18.383264    27.468797 
   35000    241.76893   -193.60346    263624.46   -25761.034    1956.6116   -27717.646   -358.48712    317.51677    78.575175      18.3849    27.472718 
   35200     244.1582   -378.24665    263624.46   -25671.937    1975.9477   -27647.885   -1168.0874    318.35914    78.575083    18.386234    27.436882 
   35400    239.69202   -194.30593    263624.46   -25720.823    1939.8033   -27660.626   -370.65239    319.21318     78.57445    18.385173    27.400726 
   35600    235.90063   -228.97096    263624.46   -25713.408      1909.12   -27622.528   -512.75167    318.22227    78.574593    18.384675    27.397559 
   35800     247.7081   -357.47213    263624.46   -25571.105    2004.6767   -27575.781    -1101.981     319.6768    78.577973    18.385469    27.403249 
   36000    241.19889   -254.76224    263624.46   -25731.846    1951.9983   -27683.845   -653.43286    320.71031    78.577375    18.385471    27.392548 
   36200    236.36188   -372.06846    263624.46   -25724.924    1912.8529   -27637.777   -1106.7978    321.62112    78.578872    18.384213    27.371403 
   36400     239.5352    -156.0998    263624.46   -25720.118    1938.5342   -27658.652   -177.23401    321.57972    78.580019    18.384887    27.372724 
   36600    232.51849   -323.11683    263624.46    -25681.66    1881.7487   -27563.408   -916.27906     323.4426    78.579115    18.385044    27.363217 
   36800    240.33608   -359.61254    263624.46   -25771.685    1945.0157   -27716.701   -1106.6829     323.5642    78.579892    18.384728    27.360214 
   37000    240.56114   -259.54964    263624.46   -25719.044    1946.8371   -27665.881   -649.08791    323.36771    78.579217    18.385571    27.376762 
   37200    239.99887   -306.01015    263624.46   -25796.794    1942.2867    -27739.08   -866.33637    323.49121    78.580597     18.38659    27.387118 
   37400     232.4653   -338.53265    263624.46   -25797.795    1881.3183   -27679.113    -1022.174    325.55141    78.581065    18.385197    27.402739 
   37600    233.45975   -304.46919    263624.46   -25773.097    1889.3663   -27662.463   -866.13185    329.63987    78.579605    18.386737    27.409721 
   37800    231.96541   -290.43997    263624.46    -25870.14    1877.2727   -27747.413   -796.39325    331.77971      78.5778    18.389097    27.400288 
   38000     240.7029   -316.79697    263624.46   -25779.915    1947.9843   -27727.899   -933.34707    333.04919    78.577064    18.391715    27.390738 
   38200    241.16437   -389.16021    263624.46   -25768.475    1951.7189   -27720.194   -1233.7011    330.55349    78.578904    18.393086    27.389559 
   38400    245.33686   -200.68824    263624.46   -25709.223    1985.4865    -27694.71   -367.82976    329.47738    78.579212    18.392098    27.374104 
   38600    247.21497   -235.89327    263624.46   -25736.022    2000.6859   -27736.708   -569.69555    331.40192     78.57932    18.390778    27.373823 
   38800    236.74646   -311.95535    263624.46   -25796.655    1915.9653   -27712.621   -897.75532    335.38451    78.579304    18.390648    27.364774 
   39000    242.65602   -359.25092    263624.46   -25663.498    1963.7907   -27627.289   -1080.9146    336.87107    78.579548    18.389653    27.375042 
   39200    238.63245   -246.18573    263624.46   -25757.813    1931.2284   -27689.041   -610.85569    338.30595     78.57871    18.389721    27.370009 
   39400    246.25309   -224.18504    263624.46   -25678.237    1992.9015   -27671.139   -525.27807    340.18264    78.577219    18.391351    27.342587 
   39600     244.3601   -346.37696    263624.46   -25666.365    1977.5817   -27643.947    -1047.982     343.7126    78.576971    18.392917    27.341767 
   39800    235.52613   -267.77045    263624.46   -25678.019    1906.0892   -27584.109   -706.17258    348.90642    78.578424    18.393246    27.343735 
   40000    239.88773   -450.91897    263624.46   -25682.438    1941.3873   -27623.826   -1525.2933    352.20575    78.578321    18.393151    27.344654 
   40200    239.02511   -278.92578    263624.46   -25657.727    1934.4061   -27592.133   -731.18169    354.36567    78.578908    18.394196    27.373189 
   40400    236.24124   -385.84623    263624.46   -25691.065    1911.8766   -27602.942   -1217.6469     359.1285     78.57732    18.394974    27.397751 
   40600     242.1804   -324.35735    263624.46   -25644.245    1959.9416   -27604.187   -954.98962     363.0805    78.576754    18.393462    27.399129 
   40800    240.17608   -200.97117    263624.46   -25689.754    1943.7208   -27633.474   -417.02593    367.84269    78.577555      18.3925    27.399796 
   41000    234.02573   -215.69412    263624.46   -25705.207    1893.9467   -27599.153    -463.8597    373.11727    78.577836    18.393344    27.406444 
   41200    245.73128   -129.06756    263624.46   -25591.135    1988.6785   -27579.814   -70.307705    375.96034    78.579304    18.391467    27.396326 
   41400     234.5149   -196.69491    263624.46    -25666.02    1897.9055   -27563.926   -372.57341     379.3781    78.578099    18.392132    27.406139 
   41600    233.11904   -274.93161    263624.46    -25674.46    1886.6089   -27561.069   -751.85675    382.23747    78.576841    18.393585     27.40834 
   41800    243.65489   -230.09276    263624.46   -25670.931    1971.8745   -27642.805   -494.55265    383.03217    78.577566    18.393212    27.374715 
   42000    238.76034   -34.860871    263624.46   -25729.904    1932.2634   -27662.168    364.17533    381.45307    78.576409    18.394144    27.368889 
   42200    239.32766   -187.78401    263624.46   -25711.626    1936.8546   -27648.481   -362.52154    380.59931    78.576852    18.397102    27.371428 
   42400    238.88203   -330.34558    263624.46   -25732.161    1933.2482    -27665.41   -989.99631    379.95984    78.576363    18.396279    27.359703 
   42600    244.37656   -263.89993    263624.46   -25728.037    1977.7149   -27705.752   -653.01412    381.56349    78.575406    18.398207     27.36484 
   42800    238.73511   -469.83905    263624.46   -25741.324    1932.0592   -27673.384   -1597.4598    381.86213    78.575395     18.39958    27.353238 
   43000    243.65425    -297.6995    263624.46   -25725.858    1971.8693   -27697.727   -806.91196    382.57505    78.575854    18.399922    27.370805 
   43200     237.4977   -258.98887    263624.46   -25690.561     1922.045   -27612.606   -679.19691    382.47107     78.57602    18.400578     27.36303 
   43400    240.47146   -183.94852    263624.46   -25703.957    1946.1113   -27650.068   -319.02188    383.92227    78.576862    18.400665    27.361221 
   43600    238.00943   -333.09866    263624.46   -25677.503    1926.1863    -27603.69   -973.30562    383.14019    78.578307    18.400973    27.371222 
   43800    230.80225   -162.15753    263624.46     -25742.3    1867.8594   -27610.159   -202.60697    383.74081    78.579192    18.401473     27.38419 
   44000    242.00662   -342.14177    263624.46   -25792.402    1958.5352   -27750.937   -1038.9534    384.17389    78.580112    18.401308    27.386414 
   44200    241.49932   -212.60646    263624.46   -25721.279    1954.4297   -27675.709     -471.251    383.46072    78.579548    18.398675       27.372 
   44400    233.44482    -324.3275    263624.46   -25744.595    1889.2454    -27633.84   -945.88039    383.67304    78.580492    18.399483    27.370096 
   44600    237.71903   -125.28038    263624.46   -25741.204    1923.8361    -27665.04   -63.263947    383.74049    78.579536    18.400151    27.356564 
   44800    235.51082   -343.16481    263624.46   -25706.405    1905.9653   -27612.371   -1017.0097    385.61229    78.578307    18.401464    27.360503 
   45000    241.73527   -182.47949    263624.46   -25677.283    1956.3392   -27633.622     -333.305    388.54936    78.578988    18.401547    27.360396 
   45200    245.09026   -20.248832    263624.46   -25679.934    1983.4908   -27663.424    423.83548    389.34514    78.580883    18.400727    27.375371 
   45400    237.98977   -223.45443    263624.46   -25744.986    1926.0272   -27671.013   -515.56847    390.18807    78.582332    18.398989    27.366639 
   45600    242.75819   -237.06399    263624.46   -25692.747    1964.6176   -27657.364   -563.72047    387.15951    78.581259    18.399062    27.387812 
   45800    242.66815    -306.9909    263624.46   -25692.294    1963.8889   -27656.183   -893.91159     385.6846    78.581392    18.397072    27.390421 
   46000    239.06213   -254.99023    263624.46     -25663.3    1934.7057   -27598.006   -675.19297     388.5733    78.582189    18.397075     27.39007 
   46200    239.81174   -205.58186    263624.46    -25651.47    1940.7722   -27592.242   -419.94392    391.69695    78.582796    18.398173    27.374957 
   46400    240.30861   -180.59906    263624.46     -25740.4    1944.7934   -27685.194   -291.12072    395.16325     78.58283    18.398864    27.372135 
   46600    242.71186   -303.75628    263624.46    -25701.26    1964.2427   -27665.503   -858.75386    396.47696    78.582196    18.398662    27.370571 
   46800    243.14707   -160.14782    263624.46   -25673.981    1967.7647   -27641.746   -174.08134    399.85518    78.580689    18.398441    27.361458 
   47000    236.79971   -272.28854    263624.46   -25730.313    1916.3962    -27646.71   -734.16635    402.42256    78.579833    18.398184    27.347095 
   47200    236.17876   -203.72332    263624.46   -25715.727    1911.3709   -27627.098   -420.01707    402.77445    78.577177    18.398005    27.359836 
   47400    236.30405   -413.50903    263624.46   -25713.633    1912.3848   -27626.018   -1336.0549    401.69287    78.575801    18.396347    27.366575 
   47600    241.26294   -127.96727    263624.46    -25696.71    1952.5167   -27649.226   -50.023876    400.59726    78.575107    18.394489    27.384316 
   47800     238.2898    -389.8932    263624.46   -25724.518    1928.4553   -27652.973   -1239.7704    403.30591    78.575645    18.397223    27.400076 
   48000    237.48519   -276.86519    263624.46   -25717.043    1921.9438   -27638.987   -754.17016    404.09314    78.575446    18.398862    27.405064 
   48200    239.47921   -336.09971    263624.46   -25741.144    1938.0811   -27679.225   -969.57231    405.44853    78.574579    18.398541    27.365058 
   48400    237.03187   -431.73911    263624.46   -25697.551     1918.275   -27615.826   -1420.8455    407.84763    78.574017    18.398186    27.377788 
   48600    241.45661   -161.43221    263624.46   -25726.628     1954.084   -27680.712   -210.84977    410.06575     78.57265    18.399167    27.369977 
   48800     241.5729   -338.96419    263624.46   -25709.748    1955.0251   -27664.773   -1007.5184    411.42746    78.571696    18.398352    27.379919 
   49000    236.26072   -123.97503    263624.46   -25729.921    1912.0342   -27641.956   -59.098915    412.97516    78.571204    18.399466    27.366192 
   49200    243.23146   -229.05514    263624.46   -25653.469    1968.4477   -27621.917    -519.2653     416.6416    78.573019    18.398005    27.359233 
   49400    235.00383   -297.15042    263624.46   -25748.882    1901.8623   -27650.745   -840.20119    421.04183    78.574026    18.398459    27.367832 
   49600    241.04558   -220.54132    263624.46   -25698.846    1950.7576   -27649.604   -468.77496    426.12648    78.575328    18.397617    27.368545 
   49800    239.16598   -208.75928    263624.46   -25742.101    1935.5462   -27677.648   -381.40053    430.01994    78.576551     18.39778    27.389467 
   50000    242.32517    -342.1452    263624.46   -25727.611    1961.1132   -27688.724   -1015.3861    431.52502     78.57633    18.398509    27.391561 
   50200     237.6363   -395.13059    263624.46   -25677.286    1923.1667   -27600.452   -1265.7733    434.09535     78.57738    18.397576    27.396567 
   50400    237.68903   -185.17243    263624.46   -25701.088    1923.5934   -27624.681   -288.77036    434.31923    78.578279    18.394241    27.419659 
   50600    247.32529    -136.5129    263624.46   -25601.535    2001.5786   -27603.114   -78.463042       436.02    78.578761    18.393272    27.407213 
   50800    235.68955   -264.88817    263624.46   -25746.302    1907.4118   -27653.713   -617.16497    437.72768    78.580578    18.391688    27.413629 
   51000    237.63999   -332.61583    263624.46   -25767.224    1923.1965   -27690.421   -976.11565    439.36734    78.579718    18.391539     27.40485 
   51200     236.2276   -299.35434    263624.46   -25813.033    1911.7662   -27724.799   -791.96998    440.96937    78.578986    18.392499       27.402 
   51400    238.60506   -198.63034    263624.46   -25762.691    1931.0067   -27693.697   -412.05991    443.98172    78.578933    18.395471    27.403607 
   51600    242.35149   -329.50313    263624.46    -25697.51    1961.3262   -27658.837   -985.52708    444.36179    78.579945    18.395605    27.390163 
   51800    236.75847   -321.98433    263624.46   -25659.791    1916.0625   -27575.853   -948.44395    442.83002    78.581861    18.396704    27.370686 
   52000    241.49194   -166.20762    263624.46   -25690.473      1954.37   -27644.843   -224.31115    440.75047    78.582605    18.395274    27.360952 
   52200    237.47389   -204.17601    263624.46   -25795.308    1921.8523    -27717.16   -386.62977    440.28241    78.584001    18.395972    27.367249 
   52400    226.49002    -399.4221    263624.46   -25883.883    1832.9609   -27716.844   -1270.2254     440.4776    78.585467    18.396071    27.343861 
   52600    239.99525   -151.90849    263624.46   -25721.135    1942.2574   -27663.392   -149.15871    443.14935    78.586495    18.398216    27.359924 
   52800     246.5688   -298.15327    263624.46   -25644.812    1995.4565   -27640.269   -821.44066    448.77682    78.585351    18.398404    27.361254 
   53000    239.09007   -347.78545    263624.46    -25660.48    1934.9319   -27595.412   -1000.8505    454.68806    78.584769    18.399305    27.378296 
   53200    237.43632   -97.344919    263624.46   -25775.098    1921.5483   -27696.646    53.540602    454.56039     78.58434    18.398312    27.355441 
   53400    239.76463   -289.41382    263624.46   -25714.402     1940.391   -27654.794   -800.28746    456.58424    78.583727    18.396772    27.351128 
   53600    239.80409   -238.94901    263624.46     -25785.6    1940.7103    -27726.31   -529.00325     459.7126    78.584078    18.397612    27.356405 
   53800    239.22392    -292.0934    263624.46   -25705.828    1936.0151   -27641.843   -840.77659    464.49605    78.585273    18.395758    27.366215 
   54000    243.42433   -361.59767    263624.46   -25741.281    1970.0086   -27711.289   -1137.8568    469.51149    78.585315    18.396223    27.365205 
   54200    238.31891    -313.5384    263624.46   -25629.218    1928.6909   -27557.909   -877.63893     469.7553    78.585585     18.39625    27.368913 
   54400    243.04756   -310.84831    263624.46   -25656.605    1966.9594   -27623.565    -867.4155    471.43773    78.586811    18.395695    27.373684 
   54600    245.05951   -325.51159    263624.46   -25627.981    1983.2419   -27611.223   -952.88372    477.46592    78.586881    18.396269    27.360132 
   54800    240.04032   -310.18739    263624.46   -25622.999    1942.6221   -27565.621   -872.25346    478.97154    78.585868    18.398203    27.346721 
   55000    240.26568   -386.12478    263624.46   -25604.741     1944.446   -27549.187   -1187.8855    480.80495    78.585784    18.397949     27.35339 
   55200    240.39386   -194.25617    263624.46   -25741.868    1945.4833   -27687.351   -341.32319    482.43833    78.584634    18.396793    27.346099 
   55400    237.73078   -339.33031    263624.46   -25711.302    1923.9312   -27635.233    -1007.263    483.94938    78.584441    18.394299     27.35005 
   55600    242.05412   -352.05083    263624.46   -25682.634    1958.9196   -27641.554   -1072.6085    489.49046    78.583935    18.393325    27.350069 
   55800    241.28821   -338.92925    263624.46   -25653.824    1952.7212   -27606.545   -1010.0236    491.90746    78.584375    18.392875    27.365916 
   56000    245.62938   -389.28065    263624.46   -25680.756    1987.8539    -27668.61   -1238.0601    494.58534    78.584176    18.396156    27.385468 
   56200    241.16676   -332.62841    263624.46   -25655.534    1951.7383   -27607.272     -970.299    496.01336    78.584689    18.397355    27.390808 
   56400    233.23376   -227.79888    263624.46   -25752.373    1887.5373    -27639.91   -503.34419    499.05693    78.583367    18.396393    27.394544 
   56600     231.1485   -386.95446    263624.46   -25813.884    1870.6615   -27684.546   -1216.4968    505.89602    78.584044    18.395319    27.377349 
   56800    240.29499   -295.00011    263624.46   -25743.572    1944.6832   -27688.255   -809.16325    511.95221    78.584649    18.395449    27.376995 
   57000     236.8991   -263.66301    263624.46   -25822.272    1917.2005   -27739.472   -658.50819    518.15959    78.585189    18.397049     27.38501 
   57200    242.73266   -216.78457    263624.46    -25702.92    1964.4109   -27667.331   -454.91787    518.10141    78.583473     18.39823    27.381216 
   57400    239.87241   -49.218601    263624.46   -25749.717    1941.2633    -27690.98    296.91203        516.9    78.581925    18.398659    27.384666 
   57600    234.62774    -203.6437    263624.46    -25778.67    1898.8186   -27677.489    -394.3723    517.05397    78.581485    18.398933    27.381838 
   57800    240.03103   -300.66344    263624.46   -25627.695     1942.547   -27570.242   -830.36275    516.42494     78.58363    18.397175    27.404754 
   58000    244.28474   -205.03773    263624.46   -25667.562    1976.9718   -27644.533   -429.84114     520.1787    78.585198    18.395884    27.401639 
   58200    247.43614   -267.64303    263624.46   -25670.911    2002.4757   -27673.387   -665.67368    523.20016    78.586352    18.394442    27.408366 
   58400     237.7023   -244.08606    263624.46   -25680.952    1923.7007   -27604.652   -568.77334    523.68134      78.5873    18.394222    27.409163 
   58600    235.86514   -250.48217    263624.46   -25671.344    1908.8328   -27580.177   -615.75737    521.80409    78.588002    18.393553    27.418526 
   58800    236.49498   -270.81071    263624.46   -25715.149    1913.9301   -27629.079    -709.7192    521.06384    78.588617    18.394329    27.436644 
   59000    243.81457   -396.98383    263624.46   -25651.404    1973.1668   -27624.571   -1272.6596    518.74582    78.588101    18.393063    27.441582 
   59200    240.12944    -556.5314    263624.46   -25667.303    1943.3434   -27610.647   -1982.0861    517.30394    78.586796    18.391679    27.433973 
   59400     237.2454   -137.20397    263624.46    -25691.84    1920.0031   -27611.843   -64.850066    518.41242    78.587381    18.390604    27.416567 
   59600    238.88786   -288.18681    263624.46   -25710.083    1933.2954   -27643.378   -811.29708    521.87867    78.587756    18.389332    27.425401 
   59800    233.52017   -304.24614    263624.46   -25796.088    1889.8552   -27685.943   -885.18083    527.32181    78.589029    18.387109    27.422366 
   60000    237.05242   -303.01728    263624.46   -25739.356    1918.4414   -27657.798   -838.46809    529.38533     78.58858    18.386141    27.418487 
   60200    235.15751   -484.07792    263624.46   -25739.526     1903.106   -27642.632   -1666.9928    531.41083    78.587407    18.387108    27.403416 
   60400    242.61198    -212.3348    263624.46   -25643.791    1963.4343   -27607.226   -421.66218    532.10845    78.590001    18.386752    27.389932 
   60600    237.24052   -393.97515    263624.46   -25693.991    1919.9636   -27613.954   -1305.9682    530.09699    78.591133    18.386136    27.372815 
   60800    241.91065   -470.35322    263624.46   -25598.724    1957.7585   -27556.482   -1611.8681    529.02639    78.591386    18.384422    27.371054 
   61000    236.91279   -288.30547    263624.46   -25696.039    1917.3113   -27613.351   -744.55862    529.14357    78.591385    18.383605    27.361328 
   61200    241.83083   -226.65153    263624.46   -25646.165    1957.1126   -27603.278   -511.04338     529.5535    78.592521    18.385196    27.360295 
   61400    235.18477   -334.99343    263624.46   -25661.075    1903.3267   -27564.402   -1049.1183    535.53659    78.593387    18.384792    27.360027 
   61600    236.37821   -193.35404    263624.46   -25711.734    1912.9851   -27624.719    -402.9735    537.94248    78.594186    18.383972    27.366431 
   61800    234.06632   -233.34191    263624.46   -25748.209    1894.2751   -27642.484   -575.50266    538.06435    78.595434    18.383827    27.373481 
   62000    237.83975   -180.33238    263624.46   -25719.773    1924.8131   -27644.587   -314.79269     538.4461    78.596644    18.388237    27.364826 
   62200    238.82237   -321.60237    263624.46   -25716.466    1932.7654   -27649.231   -953.28314    538.33535    78.596578    18.388689    27.340087 
   62400    237.42835   -310.71382    263624.46   -25717.167    1921.4837   -27638.651   -904.48254    537.60806    78.596159    18.389933    27.339798 
   62600    238.19405   -276.63215    263624.46   -25711.223    1927.6805   -27638.903   -783.77063    537.46712    78.596917     18.38986    27.341428 
   62800    239.38784   -440.69737    263624.46   -25706.849    1937.3417   -27644.191   -1476.5792    538.06706    78.597427     18.39149    27.360118 
   63000    237.21422    -263.3328    263624.46   -25729.292    1919.7508   -27649.043   -681.87237    539.81763    78.599346    18.391853    27.343468 
   63200     243.9671    -334.2217    263624.46   -25635.252    1974.4012   -27609.653   -994.05135    541.65636     78.59876    18.389884    27.332188 
   63400    237.44975   -99.653062    263624.46   -25797.783    1921.6569   -27719.439    69.306474    538.83835    78.597182    18.390786    27.321221 
   63600    236.10318   -281.11856    263624.46   -25818.339    1910.7593   -27729.098   -771.40046    538.23174    78.595878    18.391915    27.312399 
   63800    239.59717   -113.58342    263624.46   -25874.195    1939.0358   -27813.231    6.4556267    536.33299    78.596598    18.392738    27.300018 
   64000    238.85008   -200.90375    263624.46   -25749.314    1932.9896   -27682.304   -403.78973    533.91384    78.597063    18.391466     27.28041 
   64200    238.16189   -297.60499    263624.46   -25718.762    1927.4202   -27646.182   -852.81602    531.58589    78.595598     18.39168    27.284866 
   64400    239.41169   -166.29222    263624.46   -25755.311    1937.5347   -27692.845    -245.0763     531.7723    78.595189    18.393737    27.278357 
   64600    235.25823   -293.95617    263624.46    -25776.43    1903.9212   -27680.351   -805.45989    532.79725    78.595187    18.394905    27.273489 
   64800    240.31496   -131.42559    263624.46   -25712.622    1944.8448   -27657.467   -72.906854    533.76928    78.595683    18.394767    27.271198 
   65000    239.80063   -416.18312    263624.46   -25674.761    1940.6824   -27615.443   -1367.9698    538.35835    78.594627    18.393029    27.290219 
   65200    240.49843   -213.97653    263624.46   -25745.743    1946.3296   -27692.073   -453.55571    537.21424      78.5934    18.392407    27.307905 
   65400    242.47938   -215.72711    263624.46   -25735.795    1962.3612   -27698.156   -485.59857      538.954    78.594594    18.391919     27.31282 
   65600    239.08434   -263.09165    263624.46   -25691.243    1934.8855   -27626.128    -706.4548    539.83602    78.595085    18.392535    27.307916 
   65800    238.85211   -346.89985    263624.46   -25731.706    1933.0061   -27664.712   -1079.8228    543.12263    78.594678    18.392256    27.327339 
   66000    240.34735   -350.06677    263624.46   -25723.434    1945.1069   -27668.541   -1057.3498    544.04403    78.595724    18.393932    27.340676 
   66200    236.70106   -335.63889    263624.46   -25731.891    1915.5978   -27647.489   -1010.3445    545.40126    78.595229    18.393645    27.344139 
   66400    238.71324   -422.71066    263624.46   -25715.869    1931.8822   -27647.751   -1438.8522    544.22755    78.594079    18.390662    27.345389 
   66600    237.40846   -186.69742    263624.46   -25743.804    1921.3228   -27665.126   -314.56782    544.10844    78.592215    18.387052    27.346321 
   66800    236.46991    -195.8194    263624.46   -25778.322    1913.7272   -27692.049   -381.50485    544.86262    78.591367    18.384692    27.375306 
   67000    237.91999   -335.23938    263624.46   -25849.857    1925.4625    -27775.32   -995.36076    543.82175    78.592939    18.385275    27.369573 
   67200     243.3516   -250.04085    263624.46   -25799.384      1969.42   -27768.804   -589.75802    545.29417    78.594151    18.384245    27.367995 
   67400    245.08334   -360.24889    263624.46   -25762.675    1983.4348   -27746.109    -1126.058    544.40876     78.59525    18.384635    27.358487 
   67600    248.81808   -333.56055    263624.46   -25678.692    2013.6597   -27692.352   -969.10374    549.38623    78.595262    18.384984    27.371233 
   67800    238.25213   -360.88847    263624.46   -25771.407    1928.1505   -27699.558   -1141.5489     555.1922    78.597177     18.38377    27.361075 
   68000    239.21195   -212.49349    263624.46   -25822.299    1935.9182   -27758.217   -444.10111    556.88855    78.599015    18.383459    27.351736 
   68200     240.1637   -218.74832    263624.46   -25785.356    1943.6206   -27728.977   -458.53144    558.66314    78.599471    18.383617    27.369773 
   68400    245.36998   -272.10347    263624.46    -25670.18    1985.7545   -27655.935   -722.80831    555.73798    78.598274    18.385512    27.360809 
   68600      243.192   -313.53253    263624.46   -25715.029    1968.1284   -27683.157   -927.37971    556.67152    78.598806    18.386577     27.38295 
   68800    233.20315   -422.26303    263624.46   -25663.172    1887.2896   -27550.461   -1372.8946    553.17683    78.598098    18.385581    27.359809 
   69000    241.97398   -283.87806    263624.46   -25691.907    1958.2711   -27650.178   -811.75146    553.04521    78.596288    18.384477    27.350636 
   69200    235.02952   -104.63853    263624.46   -25736.678    1902.0703   -27638.748    71.111333    552.85684    78.595724    18.385224     27.33301 
   69400    232.52374   -307.52376    263624.46   -25823.324    1881.7912   -27705.115   -870.87688    554.88064    78.597099    18.386579    27.315829 
   69600    247.68354   -390.25157    263624.46   -25615.808    2004.4779   -27620.286   -1259.7781    557.78458     78.59808    18.386782    27.284848 
   69800    240.00916   -202.94147    263624.46   -25753.985    1942.3699   -27696.355   -408.27585    558.12334    78.599879    18.387576    27.279136 
   70000    243.85715   -286.77177    263624.46   -25737.309    1973.5113    -27710.82   -789.33208    559.10107     78.60249    18.387092     27.25584 
   70200    245.02369   -418.16451    263624.46   -25721.071    1982.9521   -27704.023   -1373.0403    561.11106    78.603689    18.385667    27.261284 
   70400    240.86096   -10.110649    263624.46   -25652.109    1949.2635   -27601.373    442.52863    560.12941    78.604984     18.38638    27.261042 
   70600    239.29906   -297.73343    263624.46   -25748.803    1936.6232   -27685.426   -826.80031    560.48712    78.604803    18.387033      27.2595 
   70800    238.20814   -215.69249    263624.46   -25773.196    1927.7945   -27700.991   -406.93957    562.24568    78.604948     18.38877    27.258296 
   71000    239.07974   -322.65677    263624.46   -25806.973    1934.8483   -27741.821   -950.33637    566.54132    78.604981    18.388523    27.271201 
   71200    237.91354   -242.41136    263624.46   -25765.511    1925.4103   -27690.921   -588.68963    568.13503    78.604844    18.389388    27.275594 
   71400    238.19141    -282.5057    263624.46   -25785.984    1927.6591   -27713.643   -788.94405    568.54351    78.603415    18.391684    27.257873 
   71600    238.98569    17.063034    263624.46   -25750.792    1934.0872   -27684.879    602.57616     565.7359    78.602556    18.391136    27.241454 
   71800    230.92329   -344.75226    263624.46   -25815.882    1868.8389   -27684.721   -1020.7354    567.26349    78.600651    18.391181    27.247568 
   72000    237.29237   -225.25509    263624.46   -25772.164    1920.3832   -27692.548   -509.47863    566.41154    78.599225    18.387813    27.246938 
   72200    239.36782   -322.30675    263624.46   -25574.866    1937.1796   -27512.046   -917.82343    570.48808    78.601139    18.386772    27.260291 
   72400    239.87496   -283.61926    263624.46   -25740.863    1941.2839   -27682.147   -741.25357    574.33118    78.600404    18.386226    27.285073 
   72600     244.7582   -105.08809    263624.46   -25638.101    1980.8035   -27618.905    63.799808    573.47181    78.599741    18.385667    27.280366 
   72800    243.42288   -308.07573    263624.46   -25704.701    1969.9969   -27674.698   -872.40254    569.87844    78.598332    18.385738    27.282691 
   73000    238.51206   -246.64198    263624.46   -25680.376    1930.2541    -27610.63   -597.11707    567.39044    78.599866    18.387363    27.279972 
   73200    244.26803   -214.99994    263624.46   -25630.619    1976.8366   -27607.456    -433.9794    567.38013    78.598457    18.386058    27.281421 
   73400    241.12527   -236.54575    263624.46   -25622.142    1951.4025   -27573.544   -507.11187    570.36876    78.597822    18.384413    27.278694 
   73600    242.53832   -198.62265    263624.46   -25626.479    1962.8382   -27589.317   -365.45202    573.03135    78.598051    18.385235    27.282865 
   73800    238.90994   -247.05753    263624.46   -25784.393    1933.4741   -27717.867   -609.21837    577.23542    78.598876    18.386121    27.279408 
   74000    239.16645   -245.75554    263624.46   -25827.812      1935.55   -27763.362    -593.9791    577.34835    78.599722    18.387452    27.294601 
   74200    239.86119   -285.06313    263624.46   -25772.195    1941.1724   -27713.367   -750.74968    577.10009    78.598457    18.389427     27.30145 
   74400    240.79849   -372.51709    263624.46   -25692.637    1948.7579   -27641.395   -1175.2289    580.32867    78.599056    18.390507    27.317122 
   74600     238.9182   -272.07491    263624.46   -25768.249    1933.5409    -27701.79    -722.3896    578.35761    78.598839    18.391439    27.337648 
   74800    238.69675   -276.50891    263624.46   -25760.317    1931.7488   -27692.066   -729.83713    578.61661    78.598879     18.39067    27.331027 
   75000    238.90327   -295.20667    263624.46   -25744.815    1933.4201   -27678.235   -827.51539    580.17177    78.598156    18.391231    27.326983 
   75200    241.89421   -297.62639    263624.46   -25662.191    1957.6255   -27619.817    -772.1096     585.6246      78.5969    18.392504    27.335705 
   75400    235.01684   -176.37263    263624.46   -25717.772    1901.9676    -27619.74   -265.57887    589.26976    78.596522    18.394996    27.339061 
   75600    238.79101    -242.6556    263624.46   -25653.606    1932.5116   -27586.118   -620.70598    592.40792    78.595796    18.396571    27.348982 
   75800    241.79718   -276.26284    263624.46   -25622.239    1956.8402    -27579.08   -748.41604    596.06951    78.593595    18.398129    27.344033 
   76000      246.515   -205.46016    263624.46   -25656.201    1995.0211   -27651.222   -431.87807    599.64511    78.592565    18.399997    27.346612 
   76200    231.52359   -210.42247    263624.46   -25764.228    1873.6971   -27637.925   -415.31893    601.99093    78.592996     18.39821    27.346557 
   76400    241.87099   -296.40718    263624.46       -25721    1957.4375   -27678.438   -827.85625    602.51245    78.592633    18.399265    27.337656 
   76600    240.92152   -237.85422    263624.46    -25697.15    1949.7536   -27646.903   -490.89299    602.14527    78.594155    18.400419    27.342164 
   76800    238.46641   -284.94264    263624.46   -25746.209    1929.8847   -27676.094   -733.18197    599.30309    78.594115    18.400386    27.353821 
   77000    250.59688   -348.93219    263624.46    -25688.47    2028.0553   -27716.525   -1045.1578      596.414    78.593174    18.399775    27.371535 
   77200    236.64454   -302.13651    263624.46   -25738.302    1915.1405   -27653.442   -863.40263     595.0032    78.590804    18.397725    27.385922 
   77400    237.83861   -147.54996    263624.46   -25743.664    1924.8039   -27668.468   -161.09151      594.817    78.592243    18.398836    27.388904 
   77600    233.13819   -354.13711    263624.46    -25810.74    1886.7639   -27697.504   -1061.3181     600.0261    78.592681    18.399701    27.395514 
   77800    230.88152    -189.7145    263624.46    -25740.44    1868.5009    -27608.94   -332.82664     603.6637    78.592811    18.400676    27.415879 
   78000    233.74194   -319.07534    263624.46   -25707.584      1891.65   -27599.234   -911.49967     606.5791    78.593727    18.402178    27.431091 
   78200    243.07853   -219.47212    263624.46   -25696.177    1967.2101   -27663.387   -506.72183    609.87605    78.594215    18.403602    27.440102 
   78400    239.89599   -161.08887    263624.46   -25693.342    1941.4541   -27634.797   -208.85036    610.74289    78.594279    18.403773    27.441699 
   78600    242.14899   -326.29396    263624.46   -25634.498    1959.6874   -27594.186   -952.03411    611.20497    78.595401     18.40443    27.446211 
   78800    244.16657    -398.2849    263624.46   -25655.225    1976.0154   -27631.241    -1264.121     608.5052    78.593716    18.404989     27.45282 
   79000    238.90714   -292.49287    263624.46   -25688.837    1933.4514   -27622.288   -786.70678    611.12454    78.594099    18.403963     27.47063 
   79200    237.90501   -389.42935    263624.46   -25690.956    1925.3412   -27616.297    -1211.282    615.75327    78.593807     18.40496    27.465198 
   79400    240.83966   -276.72269    263624.46   -25652.101    1949.0911   -27601.192   -733.72845    619.96693    78.593096    18.406357    27.467654 
   79600    232.74479   -140.33056    263624.46   -25740.542    1883.5801   -27624.122   -117.29463    624.01599    78.593796    18.406059    27.446272 
   79800    237.55167   -296.28594    263624.46   -25718.629    1922.4817   -27641.111   -770.67089    627.51808    78.593889    18.406466    27.440782 
   80000    238.06257   -199.91665    263624.46   -25725.382    1926.6164   -27651.998   -362.77636     627.6666    78.592562    18.406071    27.449806 
   80200    236.45301   -246.31169    263624.46   -25737.163    1913.5904   -27650.753   -608.74203    627.52301    78.593368    18.405599    27.453683 
   80400    236.51664   -264.43623    263624.46   -25739.838    1914.1054   -27653.944   -684.92156    630.61817    78.594425    18.408083    27.465116 
   80600    242.19447   -308.10472    263624.46   -25666.383    1960.0554   -27626.439   -908.88971    634.45222    78.594087     18.40964    27.461326 
   80800    239.70364   -131.98022    263624.46   -25686.226    1939.8974   -27626.123   -35.929556    637.61856    78.592576    18.406927    27.453303 
   81000    242.14413   -386.64739    263624.46   -25658.658    1959.6481   -27618.306   -1199.1287     639.5993    78.594675    18.407647    27.444014 
   81200    239.00939   -284.61488    263624.46   -25654.718    1934.2789   -27588.996    -761.9338    638.44151    78.596798    18.408488    27.441157 
   81400    242.97794   -147.35612    263624.46   -25662.705     1966.396   -27629.101   -139.41672    635.58396    78.598066     18.40682    27.445572 
   81600    236.88739   -210.18764    263624.46   -25739.526    1917.1058   -27656.631   -404.84838    635.86435    78.599096    18.405617    27.443282 
   81800    228.13783    -319.6784    263624.46   -25794.372    1846.2965   -27640.669   -886.35901    638.38076    78.597496    18.405481    27.456456 
   82000     246.4632   -332.67741    263624.46   -25713.661    1994.6019   -27708.262    -999.7493    642.38095    78.595595    18.405163    27.464382 
   82200    244.54217   -132.31129    263624.46   -25658.903    1979.0551   -27637.958   -93.332262    644.51123    78.594241     18.40527    27.459687 
   82400    244.01501   -171.95183    263624.46   -25679.432    1974.7889    -27654.22   -235.23104    648.64661    78.594607    18.402721    27.466141 
   82600    237.44141   -191.95099    263624.46   -25627.859    1921.5894   -27549.449   -353.15209    647.97781    78.593791    18.403368    27.459518 
   82800    234.46602   -190.88072    263624.46   -25715.417    1897.5099   -27612.927   -354.06287    646.83076    78.593632    18.403577    27.448634 
   83000    242.79227   -296.56668    263624.46   -25684.723    1964.8934   -27649.617   -788.86197    653.47908    78.592391    18.406139     27.43208 
   83200    240.62698   -332.55579    263624.46   -25711.513    1947.3699   -27658.883   -926.78028    655.90841    78.592284    18.404431    27.428957 
   83400    241.60392   -259.47195    263624.46   -25733.895    1955.2762   -27689.171   -626.01759    654.42214    78.591938    18.402269    27.434995 
   83600    233.37721   -321.15463    263624.46   -25796.101    1888.6983   -27684.799   -894.75635     657.0028    78.589683    18.402654    27.418523 
   83800    243.46547   -245.46858    263624.46   -25739.681    1970.3415   -27710.022   -517.18031    657.02126    78.587011    18.403945    27.442961 
   84000    238.47603     -315.469    263624.46   -25714.616    1929.9625   -27644.579   -907.07863    662.22764    78.585614    18.405131    27.439991 
   84200    240.24891   -319.66852    263624.46    -25694.05    1944.3102    -27638.36   -889.04955     665.3012    78.584912    18.406634    27.423874 
   84400    239.16554   -285.11604    263624.46   -25753.892    1935.5426   -27689.435   -816.47594    664.65868    78.586108    18.407546    27.418686 
   84600    241.09327   -206.26305    263624.46   -25690.941    1951.1435   -27642.084   -468.71823    664.66461    78.584228    18.408005    27.419951 
   84800    239.25024   -191.78658    263624.46   -25711.963    1936.2281   -27648.192   -393.41958    663.42184    78.583757    18.406297    27.407934 
   85000    244.14331   -239.25421    263624.46   -25722.078    1975.8272   -27697.906   -579.11988    660.77262    78.583496    18.407456    27.383368 
   85200    236.21347   -412.06422    263624.46   -25712.871    1911.6518   -27624.523    -1300.401    660.00436    78.583429     18.40806    27.386809 
   85400    239.05104   -195.14346    263624.46   -25780.009     1934.616   -27714.625   -357.30245    661.69821    78.583696    18.408755    27.384043 
   85600    236.57307   -204.60791    263624.46   -25780.226     1914.562   -27694.788   -396.71875    661.80837    78.582431    18.410207    27.383398 
   85800     243.9996   -404.23713    263624.46    -25728.04    1974.6642   -27702.704   -1332.5739    662.57783    78.582888    18.407798    27.377559 
   86000    243.01235   -148.00458    263624.46   -25756.869    1966.6745   -27723.544   -175.08473    658.63547       78.583    18.405263    27.387394 
   86200    245.47553   -355.40965    263624.46   -25714.395    1986.6087   -27701.003   -1021.3753    659.00272    78.581751    18.405739    27.391593 
   86400    240.97165    -337.0726    263624.46   -25793.173    1950.1593   -27743.332   -986.60178    659.01437    78.583274    18.404384    27.375031 
   86600    237.18476   -317.38878    263624.46   -25738.381    1919.5123   -27657.893   -913.45527    661.26954    78.584827    18.407907    27.371836 
   86800    239.46053   -327.35512    263624.46   -25817.763    1937.9299   -27755.693    -944.1175      667.057    78.586158    18.410775    27.367214 
   87000    244.87744    -91.95302    263624.46   -25767.023    1981.7685   -27748.791    120.49018    670.49798    78.588909    18.411221    27.365798 
   87200    241.85228   -331.71695    263624.46   -25788.849    1957.2862   -27746.135   -963.93153    669.41032    78.589815     18.41146     27.37462 
   87400    236.31878   -239.44583    263624.46    -25855.96    1912.5041   -27768.464   -557.82982    669.90917    78.589139    18.410094    27.377128 
   87600    239.27331   -297.17756    263624.46   -25781.057    1936.4148   -27717.471   -828.73324    675.15839    78.588246    18.408724    27.387661 
   87800      239.869   -226.54782    263624.46   -25768.342    1941.2357   -27709.578    -471.0936    676.68588    78.588086    18.409196    27.386081 
   88000    239.68706   -275.80092    263624.46   -25765.719    1939.7633   -27705.482   -705.10701    677.99078    78.589829    18.409489    27.395363 
   88200    239.41288   -217.40869    263624.46   -25875.872    1937.5443   -27813.416   -467.56625    677.47655    78.590955    18.408706    27.401811 
   88400    236.76707   -197.84381    263624.46   -25795.169     1916.132   -27711.301   -418.06201    676.49338    78.591968    18.408342    27.405248 
   88600    238.22916   -288.06482    263624.46   -25809.436    1927.9646     -27737.4   -784.72642    678.01482    78.591234    18.408325    27.380351 
   88800    238.11269   -186.03146    263624.46    -25758.79     1927.022   -27685.812   -285.15504    676.45673    78.592814    18.406343    27.389505 
   89000    241.44903   -335.61676    263624.46   -25690.457    1954.0227   -27644.479   -1037.0815    677.51645    78.593253    18.405805    27.385326 
   89200    243.69004   -71.172588    263624.46   -25678.557    1972.1589   -27650.716    186.31243    677.06078    78.590958    18.405017    27.406029 
   89400    238.08753   -244.70243    263624.46    -25679.77    1926.8184   -27606.588   -564.89549    678.58503    78.590406    18.404623    27.390466 
   89600    237.36126   -379.88492    263624.46   -25787.239    1920.9407    -27708.18   -1140.8228    683.88476     78.59128    18.404067    27.384413 
   89800    240.99079   -306.70925    263624.46    -25672.13    1950.3142   -27622.444   -872.88314     687.3995    78.594025    18.404737    27.384043 
   90000    239.45947   -267.71043    263624.46   -25697.744    1937.9214   -27635.666    -664.5521    689.97633     78.59615     18.40574    27.396139 
   90200    237.92242   -191.78368    263624.46   -25742.054    1925.4822   -27667.536    -362.4832    694.42575    78.595345    18.405147    27.415529 
   90400    239.00317   -328.91655    263624.46   -25740.876    1934.2286   -27675.104   -965.06726    697.25606    78.596146     18.40368    27.404027 
   90600    242.72815   -154.42971    263624.46   -25685.907    1964.3745   -27650.282   -169.25647     701.3689    78.596897    18.402883    27.406271 
   90800    236.93154   -427.70234    263624.46    -25702.59    1917.4631   -27620.053   -1426.3364    704.95785    78.599442    18.400523    27.414508 
   91000    242.06382   -19.721371    263624.46   -25702.109    1958.9981   -27661.107     448.0241    707.36907     78.59944    18.401222    27.400939 
   91200    234.11203   -400.53158    263624.46   -25790.436    1894.6451   -27685.081   -1276.5304    710.80596    78.599013     18.40326    27.417867 
   91400    242.33718   -190.83033    263624.46   -25707.178    1961.2104   -27668.388   -330.69711     710.3496    78.598327    18.403486     27.43239 
   91600    243.25846   -305.51692    263624.46    -25624.68    1968.6662   -27593.346   -879.12983    710.29248     78.59969     18.40449    27.411931 
   91800    243.42718   -98.223101    263624.46   -25607.716    1970.0316   -27577.748     53.41366    709.35719    78.599097    18.403666    27.415181 
   92000    236.66991   -183.38193    263624.46   -25640.818    1915.3458   -27556.164   -314.64871    713.89323    78.598201    18.402442    27.413776 
   92200     243.9973   -151.80132    263624.46   -25707.617    1974.6455   -27682.263    -188.1654    710.89917    78.599949    18.402341     27.41872 
   92400    237.79747   -263.54137    263624.46   -25669.446     1924.471   -27593.917   -682.25586    711.59777    78.600479    18.401821    27.405781 
   92600    242.83271   -227.98067    263624.46   -25595.999    1965.2207    -27561.22   -557.97016    712.56142    78.599863    18.401768    27.432211 
   92800    241.57009   -254.09201    263624.46   -25687.888    1955.0024   -27642.891   -605.05501    714.66326    78.598481    18.400945    27.412158 
   93000    234.60679   -265.25657    263624.46   -25722.699    1898.6491   -27621.348   -709.09724    712.38687    78.600568    18.400872    27.417619 
   93200     240.0088   -372.32452    263624.46    -25714.26    1942.3671   -27656.627    -1178.916    707.92582    78.601513    18.399719    27.419455 
   93400    231.86806    -227.4807    263624.46   -25841.252    1876.4849   -27717.737   -530.20653    704.58596    78.600919    18.399029    27.422153 
   93600    239.14919   -241.02342    263624.46   -25785.022    1935.4103   -27720.433   -537.75837    706.90349    78.601159    18.400178    27.429407 
   93800    234.85509   -209.39721    263624.46   -25796.271    1900.6586    -27696.93   -454.40996    709.35536    78.601961    18.399239    27.422329 
   94000    240.29129   -311.21951    263624.46   -25798.992    1944.6532   -27743.645   -911.44486    711.75393    78.600561     18.40142    27.397902 
   94200    240.29968   -377.72742    263624.46    -25682.93    1944.7211   -27627.651   -1174.9598     712.6794    78.600112    18.402886     27.39067 
   94400    239.54659   -243.69517    263624.46   -25769.364    1938.6264    -27707.99   -558.04122    711.48558    78.599251    18.403513    27.382715 
   94600    238.40851   -252.68408    263624.46    -25795.67    1929.4161   -27725.086   -609.87185     714.7992     78.59852    18.404572    27.374872 
   94800    236.77902   -362.17779    263624.46   -25780.742    1916.2288    -27696.97   -1118.9672    717.48231    78.597285    18.403177    27.367339 
   95000    235.43864   -334.98321    263624.46   -25787.944    1905.3812   -27693.326   -992.65128    720.48172    78.596939    18.401299    27.365443 
   95200    241.63048   -273.74742    263624.46   -25720.183    1955.4911   -27675.674   -696.23861    722.37841    78.595471    18.403664     27.35479 
   95400    238.65015   -257.94828    263624.46   -25687.634    1931.3716   -27619.005   -649.15124    723.90328    78.594532    18.405943    27.358583 
   95600    237.80861   -60.780115    263624.46   -25692.203    1924.5611   -27616.764    267.94743    723.12012    78.595053    18.407647    27.380589 
   95800    241.12256   -341.51942    263624.46   -25689.126    1951.3806   -27640.507   -1018.9858    724.13661    78.593163    18.408062    27.394406 
   96000    240.84042   -129.66214    263624.46   -25664.999    1949.0973   -27614.096   -61.256101    722.54223    78.593064    18.408727    27.388386 
   96200    239.47833   -232.00209    263624.46   -25636.006     1938.074    -27574.08    -499.0598     722.7421     78.59302    18.410355    27.353335 
   96400    242.42038   -422.32996    263624.46   -25703.391    1961.8837   -27665.275   -1416.6435    723.22132    78.594624     18.41011    27.363039 
   96600    241.48291   -357.56678    263624.46   -25763.188    1954.2969   -27717.485   -1066.9397    721.89247    78.596402    18.408919    27.356501 
   96800    242.17302   -197.42958    263624.46   -25683.998    1959.8819    -27643.88   -358.94024     721.3375     78.59628    18.406454    27.359268 
   97000    238.59109   -321.00253    263624.46   -25759.919    1930.8937   -27690.813   -904.27635    723.83676    78.598046    18.405872    27.359534 
   97200    236.97715   -305.49905    263624.46   -25753.276    1917.8322   -27671.109   -857.01867    725.16983    78.598519    18.403579    27.366033 
   97400    240.08634   -301.65232    263624.46   -25723.646    1942.9946    -27666.64   -839.62293    728.62229     78.59815    18.401805    27.360195 
   97600    242.49122    -100.4049    263624.46   -25657.457    1962.4571   -27619.914    119.10646    727.02472    78.597926    18.402384    27.345882 
   97800     240.5491   -232.16446    263624.46   -25667.225    1946.7397   -27613.965   -516.61466     728.4981    78.597402    18.404813    27.344681 
   98000    240.54142   -343.67623    263624.46   -25744.244    1946.6775   -27690.921   -1005.8427    726.20454    78.597645    18.403236     27.35471 
   98200     239.9466   -490.36707    263624.46   -25748.838    1941.8637   -27690.702   -1695.9653    725.10675    78.598699    18.404314    27.357611 
   98400    240.47071     -151.573    263624.46   -25739.943    1946.1052   -27686.048   -125.94609    724.47108    78.598895    18.405242    27.365146 
   98600    237.28906   -273.45411    263624.46   -25741.952    1920.3565   -27662.308   -733.08377    724.24896    78.599175    18.406068    27.373196 
   98800    236.89243    -180.8593    263624.46   -25695.831    1917.1466   -27612.978   -283.66883    725.54826    78.600126    18.407697     27.37599 
   99000    240.88115   -338.68385    263624.46    -25735.58    1949.4269   -27685.007   -1046.1828    724.60926    78.600702    18.406953    27.369242 
   99200    236.53466   -350.23008    263624.46   -25724.901    1914.2512   -27639.153   -1043.3937    721.53203    78.599131    18.409412    27.417309 
   99400    234.61426   -249.12552    263624.46   -25798.549    1898.7096   -27697.259   -626.09731    720.25765    78.598997    18.410207       27.427 
   99600    238.74089   -367.36484    263624.46   -25737.887     1932.106   -27669.993    -1143.713    722.68678    78.599316    18.410451    27.401599 
   99800    238.68717   -353.92608    263624.46   -25777.157    1931.6712   -27708.828   -1112.9153    723.23821    78.600248    18.410896    27.400367 
  100000      239.854   -249.31188    263624.46   -25733.179    1941.1143   -27674.293   -637.79354    723.55032    78.600598    18.411485    27.425153 
  100200    240.51685   -183.02633    263624.46   -25797.407    1946.4786   -27743.886   -312.63568    723.78836    78.601015    18.412961    27.432071 
  100400    245.79343   -286.09753    263624.46    -25718.09    1989.1815   -27707.271   -778.54542    727.15508    78.601362    18.411947    27.413007 
  100600    238.65985   -196.27919    263624.46   -25707.448    1931.4502   -27638.898    -355.3686    727.48739    78.602994    18.412661    27.404353 
  100800    239.83585   -400.38061    263624.46   -25752.951    1940.9674   -27693.918   -1284.9528     728.0118    78.601885    18.415821    27.383364 
[...]
 5176000    227.37711   -1145.8911    263624.46   -28582.732    1840.1401   -30422.872   -4485.8589    7173.3756    76.552209    15.601714    27.200994 
 5176200     226.1711   -1008.6446    263624.46   -28545.315      1830.38   -30375.695   -3893.1345    7168.6307    76.552283    15.602088    27.205669 
 5176400    229.70061   -1058.7562    263624.46    -28560.24    1858.9439   -30419.184   -4099.3208    7170.5808    76.552548    15.601189    27.201626 
 5176600     233.1314   -1114.5103    263624.46   -28495.102     1886.709   -30381.811   -4355.6396    7172.6643    76.552655    15.602268    27.201611 
 5176800    231.97746   -958.36665    263624.46   -28524.534    1877.3702   -30401.904   -3627.6804     7168.567    76.552971    15.602486    27.198595 
 5177000    224.91788   -1149.3206    263624.46   -28514.175    1820.2377   -30334.412    -4473.098    7174.2573    76.553154    15.602589    27.199562 
 5177200    225.89309   -1010.9273    263624.46   -28480.009      1828.13   -30308.139   -3833.6411    7171.0708    76.553166     15.60249    27.201837 
 5177400    231.06025   -1030.7282    263624.46   -28443.798    1869.9473   -30313.745   -3943.2075    7170.2156     76.55327    15.602166    27.202488 
 5177600     232.6059    -1072.571    263624.46   -28449.639    1882.4561   -30332.095   -4164.7493    7173.2757    76.552446    15.601565    27.206855 
 5177800    226.47586   -975.21465    263624.46   -28516.259    1832.8463   -30349.105   -3754.5142    7168.5705    76.552705    15.602209    27.200472 
 5178000    224.79842   -1119.3513    263624.46    -28545.99     1819.271   -30365.261   -4386.2321    7174.0789    76.552473    15.602608    27.199766 
 5178200    228.55107   -1007.8974    263624.46   -28514.432    1849.6408   -30364.073   -3915.7553    7169.9842    76.552293    15.602798    27.198299 
 5178400    231.00239   -1019.3252    263624.46   -28500.392    1869.4791   -30369.871   -3924.8787    7171.2645    76.552611    15.603405    27.198692 
 5178600    225.84167   -1147.6315    263624.46   -28514.158    1827.7139   -30341.872   -4508.8906    7172.9306    76.552648    15.603993    27.200222 
 5178800    227.19022   -999.22783    263624.46   -28472.044    1838.6276   -30310.672     -3852.38    7167.8097    76.554067    15.603995    27.202573 
 5179000      223.762   -1158.2072    263624.46   -28530.082    1810.8833   -30340.965   -4544.8416     7171.942    76.553428    15.604328    27.204953 
 5179200    228.44436    -1128.154    263624.46   -28554.322    1848.7772     -30403.1   -4396.6138    7169.9332    76.554354    15.605507    27.202729 
 5179400    233.14191   -1124.8907    263624.46   -28436.388     1886.794   -30323.182   -4401.1423    7170.5758    76.554075    15.605762    27.199408 
 5179600    225.79321   -1081.3044    263624.46   -28521.971    1827.3217   -30349.292    -4200.197    7170.7412    76.555387    15.607393    27.197759 
 5179800    222.40657   -1056.0293    263624.46   -28556.499     1799.914   -30356.412   -4106.1487    7169.0338    76.555705    15.607138    27.193508 
 5180000    220.35839   -1176.4652    263624.46   -28632.299    1783.3383   -30415.638   -4630.2401    7171.2126    76.555681    15.607058    27.197371 
 5180200    224.57273   -993.40305    263624.46   -28590.579    1817.4445   -30408.023   -3813.5241    7170.3373    76.556966    15.607315    27.199189 
 5180400    225.22965   -1073.3034    263624.46   -28482.474    1822.7609   -30305.235   -4160.7249    7169.4729    76.556941    15.608432    27.199784 
 5180600    232.28455   -1101.3456    263624.46   -28514.333    1879.8555   -30394.188   -4259.8615    7171.2763    76.557101    15.608865    27.205723 
 5180800    220.80907   -1072.0639    263624.46   -28575.408    1786.9856   -30362.393   -4177.6183    7168.9673    76.557412    15.610197    27.204705 
 5181000    219.74141    -1190.608    263624.46   -28489.527    1778.3451   -30267.872   -4705.5983    7170.5535    76.557336     15.60969    27.203939 
 5181200    219.77813   -1088.2895    263624.46   -28566.919    1778.6422   -30345.562   -4258.5066    7169.5936    76.558172    15.610235    27.204525 
 5181400    224.62203   -1093.5175    263624.46   -28526.025    1817.8434   -30343.869   -4270.0747    7171.4205    76.557682    15.610103    27.202553 
 5181600     221.4962   -1062.5444    263624.46   -28562.938    1792.5464   -30355.484   -4142.4742    7169.9329    76.558438    15.611043    27.203433 
 5181800    225.71434   -1091.4168    263624.46   -28504.174    1826.6834   -30330.857   -4248.1223    7170.5479    76.557816    15.610964    27.203326 
 5182000    225.43103   -1079.3111    263624.46   -28506.713    1824.3906   -30331.103   -4211.5111    7170.6194    76.558668    15.612187    27.202305 
 5182200    229.52844   -1085.4089    263624.46   -28478.841    1857.5506   -30336.391   -4247.7688    7171.4525     76.55843    15.612245    27.205645 
 5182400    222.36953   -1087.1746    263624.46    -28561.94    1799.6142   -30361.554   -4246.3529    7168.3081    76.557968    15.611962    27.202815 
 5182600    224.77806   -1060.0724    263624.46   -28546.475    1819.1062   -30365.581   -4114.4174     7171.269    76.558386    15.612708    27.203708 
 5182800    231.61083   -1091.2784    263624.46   -28513.394    1874.4032   -30387.797   -4251.7554     7169.775     76.55875    15.613101    27.204457 
 5183000    229.99761   -1010.6187    263624.46    -28459.76    1861.3475   -30321.108   -3919.9147    7169.7684     76.55935     15.61268    27.199704 
 5183200    230.07313   -1109.7235    263624.46   -28498.755    1861.9587   -30360.714   -4316.1769    7170.9545    76.559844    15.612403    27.199142 
 5183400    227.48211   -1078.3409    263624.46   -28595.327    1840.9898   -30436.317   -4211.4099    7168.3496    76.560264    15.611332    27.195459 
 5183600    221.06235   -1148.9243    263624.46   -28565.571    1789.0353   -30354.606   -4476.3865    7169.7902    76.560233    15.610753    27.196479 
 5183800     225.0975   -1040.1058    263624.46   -28550.935    1821.6914   -30372.626   -4003.1124    7169.1769    76.560961    15.610897    27.198093 
 5184000     228.3864   -1062.3095    263624.46   -28509.133    1848.3082   -30357.441   -4098.6762    7171.2031    76.563061     15.61144    27.199324 
 5184200    227.08556   -1068.2828    263624.46   -28503.924    1837.7806   -30341.705   -4133.5617    7170.9692    76.563012     15.61167    27.199519 
 5184400    228.58112   -1036.1301    263624.46   -28516.174     1849.884   -30366.058   -4030.5641    7170.5514    76.563369    15.612301    27.201868 
 5184600    226.08192   -1046.4839    263624.46    -28525.15    1829.6582   -30354.808   -4028.1666    7169.3586    76.564399    15.611911    27.202707 
 5184800    228.39235   -1054.5063    263624.46   -28520.158    1848.3563   -30368.514   -4049.1691    7169.9902    76.565269    15.611889    27.203615 
 5185000    227.26575   -977.35693    263624.46   -28516.608    1839.2388   -30355.847   -3725.0832    7168.5067    76.566399    15.612727    27.203205 
 5185200    224.99964   -1135.1651    263624.46   -28552.891    1820.8994    -30373.79   -4461.4035    7171.2079    76.566354    15.612132    27.202684 
 5185400    222.03907   -1008.3448    263624.46   -28518.861    1796.9399     -30315.8    -3891.139    7169.4087    76.567558    15.612223    27.202228 
 5185600    229.30545   -1078.2905    263624.46   -28530.802    1855.7459   -30386.548   -4188.3596    7171.1869    76.567859    15.612293     27.20384 
 5185800    231.83193   -1095.3015    263624.46   -28492.998    1876.1925   -30369.191    -4280.459    7171.4986    76.568155    15.612487    27.200822 
 5186000    225.60467   -962.47715    263624.46    -28453.01    1825.7959   -30278.806   -3678.0852     7167.604    76.568517     15.61102    27.199135 
 5186200    229.61035   -1076.9736    263624.46   -28498.947    1858.2134    -30357.16   -4173.2165    7173.2187    76.569281    15.611917    27.202727 
 5186400    228.76608   -1034.3273    263624.46   -28519.479    1851.3809    -30370.86      -4002.4    7167.9905     76.56891    15.613309     27.20011 
 5186600    227.40596    -1150.635    263624.46   -28535.501    1840.3735   -30375.874   -4539.2786    7170.2266    76.568565      15.6141    27.203243 
 5186800    231.11992   -1095.2023    263624.46   -28447.382    1870.4303   -30317.812   -4261.8735     7171.224    76.569081    15.614402    27.201275 
 5187000    237.46187   -1029.8938    263624.46   -28455.396     1921.755   -30377.151   -4023.5123    7169.3125    76.569993      15.6153    27.198792 
 5187200    226.31605   -1171.3226    263624.46   -28601.581     1831.553   -30433.134   -4619.4324    7171.9981    76.570868    15.614691     27.20426 
 5187400    221.96694   -1078.2082    263624.46     -28614.4    1796.3561   -30410.756   -4194.4419    7169.5368    76.572863    15.614752    27.195609 
 5187600    226.08563   -1116.4977    263624.46   -28516.824    1829.6882   -30346.512   -4397.3256     7169.127    76.572775    15.614835      27.1996 
 5187800    230.96206   -1064.7658    263624.46   -28551.325    1869.1527   -30420.478   -4135.1915    7172.0631    76.572932     15.61625    27.204515 
 5188000    233.03071   -1067.0969    263624.46   -28469.796    1885.8941    -30355.69   -4112.4834    7169.0454    76.573414     15.61556    27.199201 
 5188200    228.88032   -1060.1337    263624.46   -28490.954    1852.3054   -30343.259   -4083.6362    7169.3962    76.574141    15.617569     27.20224 
 5188400    223.82405   -1016.0338    263624.46   -28539.549    1811.3855   -30350.935   -3894.1742     7168.744    76.573784    15.616859    27.203633 
 5188600    225.01201   -1073.9168    263624.46   -28578.802    1820.9995   -30399.801   -4152.9701    7169.1189    76.574439    15.617239    27.199559 
 5188800    224.43948   -1017.1791    263624.46   -28561.119    1816.3661   -30377.485   -3907.8665    7168.9367    76.574674    15.617833    27.200616 
 5189000    223.43387   -1058.0134    263624.46   -28523.856    1808.2278   -30332.083   -4088.6973    7169.7964    76.575226    15.618496    27.203059 
 5189200    220.12943   -1060.9623    263624.46   -28620.491    1781.4853   -30401.976   -4089.3372    7169.0738    76.576388    15.618629    27.200061 
 5189400    226.22981   -1059.2264    263624.46   -28553.757    1830.8551   -30384.612   -4082.7056    7168.6223    76.576277    15.617583    27.198484 
 5189600    226.88201   -1087.7332    263624.46   -28517.865    1836.1333   -30353.998   -4216.1653    7170.6836    76.577249    15.617764    27.198505 
 5189800    221.99736   -1024.6188    263624.46   -28561.684    1796.6022   -30358.286   -3958.2897    7169.6577    76.577854    15.618225    27.197387 
 5190000    222.17434   -1113.7883    263624.46   -28551.191    1798.0346   -30349.226   -4401.6257    7169.2128    76.577822    15.619017    27.196927 
 5190200    224.27963   -1156.0896    263624.46   -28580.983    1815.0724   -30396.055   -4566.1109    7171.4358    76.577303    15.619256    27.200281 
 5190400    231.35106   -1067.9103    263624.46   -28421.895    1872.3008   -30294.196   -4164.0603    7169.7448    76.577999    15.619496    27.202015 
 5190600      224.749   -1183.7672    263624.46   -28535.131     1818.871   -30354.002   -4669.5914    7171.0897    76.578244    15.619987    27.204834 
 5190800    228.42256   -1097.7832    263624.46   -28529.388    1848.6007   -30377.989   -4298.7943    7170.1609    76.578801    15.620135    27.203285 
 5191000    228.15501   -993.98718    263624.46   -28566.963    1846.4355   -30413.398   -3816.0701    7166.9536    76.578243    15.620432    27.202379 
 5191200    226.69459   -1159.3216    263624.46   -28532.145    1834.6165   -30366.761    -4564.695     7172.311    76.577289    15.620768    27.203326 
 5191400     226.3365   -1016.9662    263624.46   -28534.299    1831.7185   -30366.018   -3915.2194    7168.4459    76.577311    15.621729    27.199448 
 5191600    224.75087   -1101.0458    263624.46    -28561.33    1818.8861   -30380.216   -4300.8676    7170.1679     76.57815    15.622057    27.197341 
 5191800    231.90873   -1087.3368    263624.46   -28455.468     1876.814   -30332.282   -4213.2441    7169.4102    76.578655     15.62366     27.19835 
 5192000    232.09181   -988.78565    263624.46    -28454.79    1878.2956   -30333.086   -3788.8105    7168.9232     76.57825    15.624421    27.195383 
 5192200    227.28856   -1136.1583    263624.46    -28518.96    1839.4234   -30358.384   -4470.3018    7171.6081     76.57787    15.624669    27.198885 
 5192400    229.01929   -1017.0932    263624.46   -28507.791    1853.4301   -30361.221   -3928.7933    7169.1812    76.578189    15.624297    27.199555 
 5192600     226.9537   -1010.2201    263624.46   -28562.531    1836.7134   -30399.245    -3890.917    7168.4511    76.578165    15.624863    27.194783 
 5192800    234.46401   -1105.1352    263624.46   -28504.416    1897.4936   -30401.909   -4299.7622    7171.8512    76.578375    15.625172    27.197165 
 5193000    223.87916   -957.18438    263624.46   -28548.347    1811.8315   -30360.179   -3634.7401    7167.7035     76.57971    15.625805    27.196561 
 5193200    230.18364   -1157.5063    263624.46   -28493.139     1862.853   -30355.992   -4518.7077     7171.516    76.579321    15.625652    27.200133 
 5193400    226.39655    -993.6114    263624.46   -28570.777    1832.2044   -30402.982   -3806.6122    7168.6232    76.579985    15.625879    27.197496 
 5193600    230.59049   -1079.1383    263624.46   -28469.764    1866.1456   -30335.909   -4194.6155    7170.2576    76.580356    15.625828    27.201168 
 5193800    219.51187   -1129.2978    263624.46   -28564.962    1776.4875   -30341.449   -4441.1394    7171.7607    76.579966     15.62615    27.200566 
 5194000    222.21143   -997.07929    263624.46    -28640.89    1798.3348   -30439.224   -3864.0627    7167.1524    76.579857    15.626404    27.197761 
 5194200    221.99653   -1162.8222    263624.46   -28564.774    1796.5955    -30361.37   -4563.2617    7171.7453    76.579168    15.626755    27.200854 
 5194400    229.79882   -1045.2153    263624.46   -28496.593    1859.7387   -30356.332   -4020.1948    7168.7944    76.579233    15.627931     27.19887 
 5194600    228.93426   -1015.4175    263624.46   -28477.528    1852.7419   -30330.269   -3890.5526    7168.7386    76.579851    15.628582    27.201953 
 5194800    229.77486   -1096.5964    263624.46   -28486.987    1859.5448   -30346.532   -4267.1556    7170.9767    76.580464    15.629353    27.202041 
 5195000    224.74686   -1057.4349    263624.46   -28511.461    1818.8537   -30330.314   -4107.2106    7167.5883    76.580366    15.630617    27.197376 
 5195200    227.72114   -1100.0195    263624.46   -28491.443    1842.9242   -30334.367   -4313.9913    7169.4278    76.579588    15.631711    27.201307 
 5195400    228.59572   -1059.6568    263624.46    -28479.69    1850.0021   -30329.692   -4098.7254    7170.5285     76.58025    15.631759    27.197142 
 5195600    224.87819   -1029.5621    263624.46   -28571.153    1819.9165    -30391.07    -3967.388    7167.8481    76.581413    15.631404    27.198497 
 5195800    231.53071   -1103.5443    263624.46   -28419.834    1873.7547   -30293.589   -4331.0325    7171.4361    76.581806    15.632209    27.204084 
 5196000    223.50958   -1014.9773    263624.46   -28505.757    1808.8405   -30314.598   -3903.7672    7168.0262    76.582022    15.633481    27.194599 
 5196200    228.81828   -1154.2916    263624.46   -28509.202    1851.8033   -30361.006   -4555.1085       7170.9    76.582288    15.633931    27.200282 
 5196400    226.68741   -1094.4928    263624.46   -28494.635    1834.5584   -30329.194   -4249.8482     7168.681    76.581989    15.634361     27.19487 
 5196600    227.38697   -1023.6503    263624.46   -28546.189    1840.2199   -30386.409   -3970.5532    7168.1891    76.581756    15.634239    27.196501 
 5196800    232.92972   -1113.8867    263624.46   -28512.104    1885.0768    -30397.18   -4352.2515    7170.7189    76.582766    15.633797    27.197733 
 5197000    227.69096   -973.41841    263624.46   -28460.349      1842.68   -30303.029   -3741.5041    7167.9177    76.581745    15.634525    27.197756 
 5197200    227.53587   -1090.7533    263624.46   -28528.109    1841.4249   -30369.534   -4245.9165    7169.2629    76.581408    15.636326    27.202523 
 5197400    228.11402   -1108.1701    263624.46    -28500.05    1846.1038   -30346.154   -4297.4836    7170.6736    76.581542    15.637059     27.19743 
 5197600    226.85891    -1064.348    263624.46   -28549.456    1835.9463   -30385.402   -4113.4491    7168.0995    76.580728    15.638277    27.195312 
 5197800    221.39403   -1135.9263    263624.46    -28616.61    1791.7196    -30408.33   -4446.5011    7171.0943    76.581886    15.638322    27.202906 
 5198000    232.15781   -990.45379    263624.46   -28495.224    1878.8297   -30374.054   -3794.9831    7169.9954    76.582842    15.637991    27.194665 
 5198200    225.32642   -1020.5764    263624.46   -28479.035     1823.544   -30302.579   -3932.4857     7169.655    76.583088    15.639077    27.198112 
 5198400    220.97587   -1125.5847    263624.46   -28568.082    1788.3355   -30356.417   -4349.7375    7170.5067    76.582928    15.640421    27.196101 
 5198600    227.06693   -1006.0435    263624.46   -28599.468    1837.6298   -30437.098   -3851.4804    7167.1158    76.582936    15.641535    27.197146 
 5198800    226.13271   -1164.0608    263624.46   -28525.281    1830.0692   -30355.351   -4598.8982    7171.2219    76.583214    15.641374    27.194751 
 5199000    233.84412   -1017.3723    263624.46   -28466.136    1892.4769   -30358.613   -3909.9066    7169.9449     76.58372    15.641452    27.196443 
 5199200    233.04884   -980.29954    263624.46   -28523.321    1886.0408   -30409.362   -3770.5953    7168.4393    76.583705    15.641872    27.198097 
 5199400    228.22712   -1187.1343    263624.46   -28546.264    1847.0191   -30393.283   -4677.5228    7173.4268    76.585387    15.642084    27.196891 
 5199600    230.47376   -1019.3842    263624.46   -28522.154    1865.2009   -30387.355   -3952.7281    7166.5759    76.585469    15.643166     27.19798 
 5199800    226.71763   -1090.1827    263624.46   -28510.427     1834.803    -30345.23   -4260.2925     7171.451    76.585932    15.642706    27.199581 
 5200000    227.31742   -1082.7529    263624.46   -28523.278     1839.657   -30362.935   -4246.2569    7170.5352    76.586304    15.641451    27.195614 
Loop time of 15740.3 on 80 procs for 5200000 steps with 9436 atoms

Performance: 285.433 ns/day, 0.084 hours/ns, 330.362 timesteps/s
98.0% CPU use with 80 MPI tasks x no OpenMP threads

MPI task timing breakdown:
Section |  min time  |  avg time  |  max time  |%varavg| %total
---------------------------------------------------------------
Pair    | 0.27692    | 3580       | 12913      |7685.8 | 22.74
Neigh   | 0.4372     | 232.07     | 858.19     |1939.3 |  1.47
Comm    | 10.831     | 4905.4     | 13947      |6991.8 | 31.16
Output  | 171.5      | 171.61     | 173.75     |   1.9 |  1.09
Modify  | 368.05     | 6774.2     | 15501      |8054.3 | 43.04
Other   |            | 77.07      |            |       |  0.49

Nlocal:        117.950 ave         368 max           0 min
Histogram: 36 0 24 0 0 0 0 0 2 18
Nghost:        750.487 ave        1207 max           0 min
Histogram: 10 2 0 4 4 0 30 6 4 20
Neighs:         0.00000 ave           0 max           0 min
Histogram: 80 0 0 0 0 0 0 0 0 0
FullNghs:      11380.5 ave       44122 max           0 min
Histogram: 50 10 0 0 0 0 0 0 9 11

Total # of neighbors = 910438
Ave neighs/atom = 96.485587
Neighbor list builds = 556214
Dangerous builds = 0
write_data 		${DIR}/data.${NAME}_run
write_data 		run_13/data.${NAME}_run
write_data 		run_13/data.ibeam_cooling_13_run
System init for write_data ...
Total wall time: 4:22:54
