
# Set production fixes - Nose/Hoover
#
fix                 4 water temp/csvr ${START_TEMP} ${END_TEMP} 500.0 928347
fix                 4 water temp/csvr 240 ${END_TEMP} 500.0 928347
fix                 4 water temp/csvr 240 227 500.0 928347


## divide "droplet" into core and surface
#region		core_reg cylinder z 135 135 44.6 20 INF units box
#region		surface_reg cylinder z 135 135 44.6 20 INF units box side out
#group		core dynamic all region core_reg
#group		surface dynamic all region surface_reg

## compute pressure core
#compute        peratom_core core stress/atom NULL
#compute        p_core core reduce sum c_peratom_core[1] c_peratom_core[2] c_peratom_core[3]
#variable       press_core equal -(c_p_core[1]+c_p_core[2]+c_p_core[3])/(3*1249982.5)


## compute pressure surface
#compute        peratom_surf surface stress/atom NULL
#compute        p_surf surface reduce sum c_peratom_surf[1] c_peratom_surf[2] #c_peratom_surf[3]
#variable       press_surf equal -(c_p_surf[1]+c_p_surf[2]+c_p_surf[3])/(3*42395)

## compute total pressure of drop
compute        peratom water stress/atom NULL
compute        p water reduce sum c_peratom[1] c_peratom[2] c_peratom[3]
variable       press equal -(c_p[1]+c_p[2]+c_p[3])/(3*50320)


# compute order parameter
compute        3 all orientorder/atom nnn NULL cutoff 3.5

# compute center of mass of bridge
compute 	4 water com

# Run simulation
thermo_style        custom step c_2 press vol etotal ke pe v_press c_1[4] c_4[*]
thermo              200
dump		     1 water custom 400 ${DIR}/prod.${NAME}.dump id type x y z vx vy vz c_3[*] c_peratom[*]
dump		     1 water custom 400 run_26/prod.${NAME}.dump id type x y z vx vy vz c_3[*] c_peratom[*]
dump		     1 water custom 400 run_26/prod.ibeam_cooling_26.dump id type x y z vx vy vz c_3[*] c_peratom[*]
run                 ${STEPS}
run                 5200000
Neighbor list info ...
  update every 1 steps, delay 0 steps, check yes
  max neighbors/atom: 2000, page size: 100000
  master list distance cutoff = 6.67472
  ghost atom cutoff = 6.67472
  binsize = 3.33736, bins = 48 13 11
  2 neighbor lists, perpetual/occasional/extra = 1 1 0
  (1) pair sw, perpetual
      attributes: full, newton on
      pair build: full/bin/atomonly
      stencil: full/bin/3d
      bin: standard
  (2) compute orientorder/atom, occasional, copy from (1)
      attributes: full, newton on
      pair build: copy
      stencil: none
      bin: none
Per MPI rank memory allocation (min/avg/max) = 0.8535 | 5.969 | 7.261 Mbytes
Step c_2 Press Volume TotEng KinEng PotEng v_press c_1[4] c_4[1] c_4[2] c_4[3] 
       0    242.00436   -232.94218    216009.12   -18599.784     1407.391   -20007.175   -409.72109    34.227416    78.756199    22.603253    25.702369 
     200    237.90203   -494.30097    216009.12   -18649.462    1383.5336   -20032.995   -1528.1403    35.730236    78.756745    22.604494    25.698808 
     400    239.61906   -372.62366    216009.12   -18660.356    1393.5191   -20053.876   -999.38764    36.655299    78.755279    22.604253    25.707938 
     600    246.85225   -352.57141    216009.12   -18550.381    1435.5842   -19985.965   -968.67779    37.791515    78.754399    22.604722    25.696788 
     800    241.15388   -209.46255    216009.12   -18506.917     1402.445   -19909.362   -325.61756    39.069582    78.755779    22.606157     25.69986 
    1000     238.1739   -333.24082    216009.12   -18611.516    1385.1147   -19996.631   -877.48055    40.574655    78.755172     22.60359    25.716172 
    1200    241.56264   -410.38438    216009.12    -18562.53    1404.8222   -19967.352   -1179.7419    42.739953     78.75313    22.602201    25.710644 
    1400    238.91359   -389.95099    216009.12   -18548.906    1389.4164   -19938.322   -1094.5239    44.331665    78.752864    22.600904    25.710287 
    1600    239.87239   -477.45638    216009.12   -18513.459    1394.9924   -19908.451   -1460.7976    46.482037    78.753835      22.6035    25.714195 
    1800    246.74462   -177.35521    216009.12   -18491.275    1434.9582   -19926.233   -234.25685    48.913352    78.753106    22.602762    25.731796 
    2000     245.1165   -393.23226    216009.12    -18466.73    1425.4898    -19892.22   -1076.9575    50.753379    78.754285    22.604904    25.732881 
    2200    240.40714   -337.74675    216009.12   -18565.168    1398.1023    -19963.27   -873.91124     51.85987    78.754389    22.606461    25.728965 
    2400    244.31044   -445.82692    216009.12       -18528    1420.8021   -19948.802   -1295.5168    53.102581    78.751711    22.606031       25.704 
    2600    241.23797   -305.87687    216009.12   -18604.542     1402.934   -20007.476   -695.79451    54.434306    78.749498    22.605558    25.688025 
    2800    241.45826   -153.84956    216009.12    -18531.96    1404.2151   -19936.175   -89.343099    55.773451    78.750177    22.605149    25.692485 
    3000    238.09435   -162.11183    216009.12   -18544.584    1384.6521   -19929.236   -93.261237    57.636067    78.750761    22.607044    25.705459 
    3200    235.49581   -260.03159    216009.12   -18655.215    1369.5401   -20024.756   -471.31678    59.877146    78.751373    22.607154    25.684181 
    3400    245.82293   -148.79972    216009.12   -18647.152    1429.5981    -20076.75   -74.877639    61.372286    78.752328    22.609581    25.702917 
    3600    241.61474   -182.04238    216009.12   -18619.113    1405.1251   -20024.238   -234.73237    63.219829    78.751596    22.611568    25.715319 
    3800    238.34025   -324.80502    216009.12   -18572.808    1386.0821    -19958.89   -759.91374    65.175867    78.749019    22.611109    25.720178 
    4000    231.46541   -181.29503    216009.12    -18666.32     1346.101   -20012.421   -245.62033    66.545685    78.745523    22.613299    25.715255 
    4200    237.16585   -387.35369    216009.12   -18599.332    1379.2523   -19978.584    -1099.806    66.545123     78.74403    22.613854    25.716969 
    4400    240.79932   -213.98836    216009.12    -18614.42     1400.383   -20014.803   -350.00454    67.597083    78.745055    22.615207    25.694987 
    4600    229.82889   -419.16165    216009.12   -18683.204    1336.5838   -20019.788   -1214.5893    69.584874     78.74367    22.616035    25.682608 
    4800     242.9225   -478.23067    216009.12   -18563.713    1412.7304   -19976.443   -1400.6718     70.48659    78.744047    22.614635     25.68123 
    5000    235.21849   -313.19909    216009.12   -18628.165    1367.9273   -19996.092   -759.60016    71.836324    78.746092    22.610387    25.686805 
    5200    237.19347   -271.59274    216009.12   -18626.767     1379.413   -20006.179   -580.75473    73.193593    78.744933    22.609977    25.681991 
    5400    245.67928   -354.53168    216009.12   -18653.363    1428.7627   -20082.126   -921.91086    75.347089    78.745516    22.608119    25.684148 
    5600    235.90851   -348.54366    216009.12    -18703.96    1371.9402     -20075.9   -862.05194    77.023442    78.745104    22.606254     25.69777 
    5800    241.69582   -280.95552    216009.12   -18645.794    1405.5967   -20051.391   -608.41579    79.575225    78.746768    22.604376    25.706972 
    6000    237.89657   -359.07656    216009.12   -18671.227    1383.5018   -20054.729   -997.35245    81.175047    78.746892    22.602969    25.682802 
    6200    233.55269   -362.24464    216009.12   -18648.775    1358.2398   -20007.015   -985.13895    81.391841     78.74448    22.603261    25.678351 
    6400    239.76942   -377.99443    216009.12   -18630.268    1394.3935   -20024.662   -1020.8294    82.931629    78.743596    22.605354    25.684475 
    6600    238.96058   -228.32714    216009.12   -18671.228    1389.6897   -20060.918   -425.07296     83.79375    78.746212    22.606219    25.689002 
    6800    242.20804   -348.87938    216009.12   -18677.893    1408.5755   -20086.469   -920.43872    85.923997    78.746594    22.607629     25.67533 
    7000    242.36337   -400.17956    216009.12   -18656.535    1409.4788   -20066.014   -1114.1255    88.806743    78.747264    22.608999    25.683497 
    7200     234.7436     -252.493    216009.12    -18696.33    1365.1656   -20061.496   -505.07337    88.733024    78.746164    22.610355    25.694047 
    7400    241.33807   -315.97057    216009.12   -18651.302    1403.5161   -20054.818   -787.07327    89.746377    78.745498    22.611007    25.685103 
    7600    243.47677   -97.221295    216009.12   -18600.926    1415.9539    -20016.88     152.5537    90.522492     78.74592    22.612224      25.6813 
    7800    233.59846   -291.96469    216009.12    -18670.07     1358.506   -20028.576   -656.57678    91.113707    78.744249    22.612528    25.664995 
    8000    240.17868   -181.85296    216009.12   -18527.877    1396.7736   -19924.651   -174.76976    92.701502    78.743572    22.613588     25.68007 
    8200     241.3932    -309.6717    216009.12   -18561.317    1403.8368   -19965.154   -717.64531     93.01556    78.746853    22.615536    25.670943 
    8400    238.17284    -274.1483    216009.12   -18537.726    1385.1086   -19922.834   -614.45564    92.948125    78.747037    22.616429    25.651228 
    8600    237.93487   -264.56907    216009.12   -18596.344    1383.7246   -19980.069   -586.56372    92.901022    78.742139    22.615683    25.664121 
    8800    236.04342    -358.2024    216009.12   -18627.131    1372.7248   -19999.856   -942.45558    94.850122     78.74167    22.614369    25.663498 
    9000    245.91643   -386.81764    216009.12    -18608.15    1430.1418   -20038.292   -1082.8902    95.983175    78.743137    22.613876    25.661014 
    9200    246.25114   -278.47998    216009.12    -18553.48    1432.0884   -19985.569   -629.71028    96.667174    78.743022    22.614894    25.663338 
    9400    241.53949   -210.25356    216009.12   -18623.372    1404.6875   -20028.059   -314.90976    98.704914    78.740871    22.616793    25.661337 
    9600    238.80418    -335.5593    216009.12   -18649.771    1388.7802   -20038.551    -830.3797    99.755421    78.742065    22.616913    25.659298 
    9800    244.13576   -356.76195    216009.12   -18526.253    1419.7863   -19946.039   -960.64301    100.53529    78.742034    22.616137    25.633658 
   10000    246.86388   -234.34805    216009.12   -18596.083    1435.6518   -20031.735   -429.17339    101.06082    78.740505    22.615767    25.600204 
   10200    243.14944   -385.99353    216009.12   -18540.694    1414.0503   -19954.744   -1077.2751    103.10763    78.740433    22.616444    25.594144 
   10400    243.77249   -249.20712    216009.12   -18554.135    1417.6736   -19971.808   -469.26209    103.31824    78.742479    22.617375    25.596284 
   10600    239.39749   -311.90896    216009.12   -18638.286    1392.2306   -20030.516   -760.24242    105.15724    78.743506    22.617529    25.602717 
   10800    236.13818   -295.48363    216009.12   -18664.498    1373.2759   -20037.774   -734.34717    105.90782    78.744685    22.617601    25.604076 
   11000    241.81086   -360.63501    216009.12   -18641.842    1406.2657   -20048.108   -970.64997    107.52418    78.746786    22.616694    25.604882 
   11200    235.61372   -505.16922    216009.12   -18623.278    1370.2258   -19993.504   -1599.7402    108.75061    78.746862    22.617507    25.618534 
   11400    241.69573   -409.03618    216009.12   -18601.026    1405.5961   -20006.622   -1127.0877    109.92013    78.745054    22.617473    25.621162 
   11600    239.66801   -318.97416    216009.12   -18568.689    1393.8038   -19962.492   -778.83381    111.80193    78.745214    22.620123    25.629863 
   11800    238.81272   -332.38268    216009.12   -18560.613    1388.8298   -19949.442   -810.05171    113.05946    78.743003    22.619909    25.658353 
   12000     245.5897   -340.31349    216009.12   -18577.451    1428.2417   -20005.693   -836.38929    115.23822    78.742746      22.6186    25.662092 
   12200    244.56337   -295.07906    216009.12   -18605.903    1422.2731   -20028.176   -704.84685    115.31815    78.744811    22.616751    25.653653 
   12400    239.49513   -285.00496    216009.12    -18626.14    1392.7984   -20018.939   -619.24192     116.4054    78.745947    22.616306    25.658189 
   12600    239.55634   -280.43283    216009.12   -18593.974    1393.1543   -19987.128   -618.63393    117.81958    78.747362    22.618186    25.655114 
   12800    237.43665   -201.40542    216009.12   -18635.739    1380.8272   -20016.566   -290.18631    118.55065    78.747479    22.618871     25.62139 
   13000    237.84563   -366.28273    216009.12   -18658.254    1383.2056    -20041.46   -935.97965    120.48796    78.746752    22.619686    25.619833 
   13200    235.55567   -216.44115    216009.12   -18667.837    1369.8882   -20037.726   -334.61374    122.15455    78.744651    22.621546    25.614242 
   13400     237.1077   -125.69908    216009.12   -18709.928    1378.9141   -20088.842    45.675371    122.32136    78.743531    22.622551    25.617578 
   13600    235.72279   -335.06465    216009.12   -18675.632    1370.8601   -20046.492   -850.01018    123.38128    78.743615    22.622898    25.618374 
   13800      238.555   -311.91786    216009.12   -18573.645     1387.331   -19960.976   -779.59654    124.99798    78.742179    22.626151    25.612226 
   14000    243.89366   -214.65348    216009.12   -18531.906    1418.3783   -19950.284   -327.48731    125.23995    78.739535    22.628147    25.630499 
   14200    241.73812   -219.20497    216009.12   -18619.845    1405.8426   -20025.688   -335.21175    127.14163      78.7369    22.628574    25.627896 
   14400    231.65076    -297.5868    216009.12   -18668.805     1347.179   -20015.984   -699.21107     128.6536    78.734638    22.630744    25.625167 
   14600    237.34691   -341.25635    216009.12   -18648.194    1380.3053   -20028.499   -888.05832    129.00257    78.730729    22.631646    25.620201 
   14800    244.17468   -285.15293    216009.12   -18618.933    1420.0126   -20038.946   -635.58533    130.37344    78.728557    22.632023    25.619219 
   15000     241.5463    -412.7594    216009.12   -18644.257    1404.7271   -20048.984   -1149.4617    130.93885    78.727333    22.632874    25.615133 
   15200    237.82818   -178.28154    216009.12   -18619.902    1383.1042   -20003.006   -201.18874    131.60004    78.725762    22.635267    25.614859 
   15400    238.96861   -529.40823    216009.12   -18684.918    1389.7364   -20074.655   -1691.9913    132.98276     78.72301    22.635358     25.61543 
   15600    247.74716    -253.1488    216009.12   -18549.519    1440.7886   -19990.307   -492.76886    132.68554    78.724702    22.638243     25.61208 
   15800    239.07657   -404.39516    216009.12   -18579.175    1390.3643   -19969.539   -1119.2521    132.56087    78.723512    22.638896    25.615975 
   16000    246.20686   -266.52619    216009.12   -18621.376    1431.8309   -20053.207   -584.64226    133.65476    78.723336     22.63847    25.623996 
   16200    237.49515   -356.39211    216009.12   -18590.263    1381.1674    -19971.43    -946.0736    135.63395    78.721099    22.637843    25.621347 
   16400    239.03038   -186.86122    216009.12   -18634.039    1390.0956   -20024.135   -209.12271    136.30923    78.722761    22.636966    25.606549 
   16600    243.35172   -358.54815    216009.12   -18568.556    1415.2266   -19983.783   -964.23665    139.00912    78.720016    22.637949    25.609644 
   16800    242.90298   -257.52863    216009.12   -18600.769     1412.617   -20013.386   -486.48691    140.29438    78.718517    22.639451    25.590586 
   17000    238.06096    -450.4937    216009.12   -18658.897    1384.4579   -20043.355    -1332.653    141.04915    78.717918    22.642723    25.559802 
   17200    236.32793   -348.73336    216009.12   -18641.175    1374.3794   -20015.555     -894.703    142.51547    78.720482    22.645088    25.534649 
   17400    230.34731   -59.182311    216009.12   -18704.499    1339.5987   -20044.098    319.46166    142.77121     78.72174     22.64644    25.556793 
   17600    227.40473   -385.79564    216009.12    -18625.87    1322.4859   -19948.356   -1062.3036    144.35431    78.721752     22.64454    25.574398 
   17800    230.98563   -203.25534    216009.12   -18632.242    1343.3109   -19975.553   -287.19048    144.92364    78.721459    22.646521    25.583685 
   18000    237.83063   -380.38575    216009.12   -18603.443    1383.1184   -19986.562   -1045.9359    146.29377    78.721573    22.644338    25.563724 
   18200    235.94161   -368.72058    216009.12   -18601.109    1372.1327   -19973.242   -1013.4936    147.79507    78.721326    22.642939    25.571991 
   18400    242.21422   -344.01777    216009.12   -18575.609    1408.6114    -19984.22   -900.17795    148.43466    78.719154    22.644588    25.579558 
   18600    242.28384   -193.29411    216009.12   -18607.551    1409.0163   -20016.567   -229.96926    150.17546    78.718642    22.644178    25.605319 
   18800    235.70784   -263.44572    216009.12   -18644.808    1370.7732   -20015.581   -573.45918    150.99312     78.71497    22.644251    25.598534 
   19000    242.70897   -251.03544    216009.12   -18574.095    1411.4887   -19985.584   -524.03162    152.42685    78.713146    22.643709    25.635554 
   19200    242.21949   -436.35896    216009.12   -18602.264    1408.6421   -20010.906   -1268.8783    153.56079    78.711665     22.64537    25.677819 
   19400    243.92394   -261.26001    216009.12   -18553.383    1418.5544   -19971.937    -561.3049    153.29576    78.712061    22.646496     25.65381 
   19600    241.61918   -317.55496    216009.12   -18549.177    1405.1509   -19954.328   -799.23204    154.30055     78.71416    22.644257    25.643778 
   19800    241.07356    -239.2181    216009.12   -18549.321    1401.9778   -19951.299   -440.77357    155.95682    78.715184    22.643929    25.650326 
   20000    238.29592   -231.33491    216009.12    -18583.51    1385.8243   -19969.335   -427.98711    158.23771    78.716856    22.639808    25.628712 
   20200    246.16884   -114.14872    216009.12   -18620.742    1431.6097   -20052.352    152.01051    157.66749    78.716599    22.638261    25.610281 
   20400     245.2349   -449.91734    216009.12   -18570.235    1426.1784   -19996.414   -1334.4385    159.23624    78.715573    22.636267     25.59164 
   20600    235.92541    -140.1367    216009.12   -18646.227    1372.0385   -20018.266   -16.901038    159.88384    78.717232    22.634371    25.593236 
   20800    249.50505   -543.00939    216009.12   -18574.856    1451.0117   -20025.868   -1758.9462    162.16619    78.716784     22.63228     25.59047 
   21000    232.86551   -218.34972    216009.12    -18594.23    1354.2434   -19948.474   -412.29986    161.77847     78.71461    22.630706    25.591921 
   21200    240.60651   -397.85782    216009.12   -18552.419    1399.2617    -19951.68   -1159.1932    163.84291    78.714697    22.629234    25.576635 
   21400    236.56447    -190.8105    216009.12   -18596.103     1375.755   -19971.858   -220.50387    163.95704    78.715851    22.631497    25.587126 
   21600    240.51341   -350.83571    216009.12   -18500.123    1398.7203   -19898.843   -932.77326    166.12964    78.716738    22.631299    25.600917 
   21800    238.18328   -405.64834    216009.12   -18634.926    1385.1693   -20020.095   -1157.6792    166.55471    78.717725    22.632562    25.597607 
   22000    233.61215   -281.30479    216009.12   -18673.387    1358.5856   -20031.973   -615.12353     167.2811    78.719085    22.631815    25.599995 
   22200    231.72823   -404.06517    216009.12    -18683.17    1347.6295   -20030.799   -1129.4236    168.63896    78.719205    22.628397    25.580763 
   22400    244.90462   -296.60353    216009.12   -18555.892    1424.2576   -19980.149   -693.24628    170.05951    78.718821     22.62661    25.593556 
   22600    237.92635   -372.53846    216009.12   -18552.733    1383.6751   -19936.408   -985.00113    170.89683    78.718317    22.626193     25.61147 
   22800    246.40624   -331.06679    216009.12    -18515.39    1432.9904    -19948.38   -833.92749    172.21754    78.719074    22.628869    25.608738 
   23000    238.04303   -278.23308    216009.12   -18587.169    1384.3536   -19971.523   -612.73805    174.00887    78.720858    22.628404    25.566652 
   23200    238.86507   -334.93844    216009.12   -18531.024    1389.1342   -19920.158   -830.33541     173.8831     78.72238    22.628899    25.523247 
   23400    237.71475   -245.74458    216009.12    -18573.27    1382.4445   -19955.715   -485.18032    173.91243    78.720005    22.628946    25.521283 
   23600    241.90968   -415.32465    216009.12   -18490.594    1406.8403   -19897.435   -1162.6366    175.54183    78.720236    22.628839    25.525289 
   23800    243.29628   -294.45969    216009.12   -18516.005    1414.9042   -19930.909   -691.41341    176.88272    78.717263    22.628029    25.532715 
   24000    245.05065   -324.02817    216009.12   -18559.837    1425.1068   -19984.944   -807.75577    178.58775    78.719693    22.627654    25.544685 
   24200    241.13255   -389.92429    216009.12    -18593.43    1402.3209   -19995.751   -1113.4989    179.33808    78.720546     22.62939    25.533164 
   24400    239.72908   -185.24538    216009.12   -18626.019    1394.1589   -20020.178   -208.95574    180.26439    78.723711    22.629857    25.524538 
   24600    230.37659   -351.63021    216009.12   -18651.153     1339.769   -19990.922   -950.36964    182.63312    78.722597    22.630644    25.491792 
   24800    234.22857   -345.96668    216009.12   -18618.141    1362.1704   -19980.311   -905.64662     183.9465    78.721386    22.628329    25.506679 
   25000    236.67141    -202.8451    216009.12    -18626.42    1376.3769   -20002.796   -281.84246    183.80567    78.722097    22.627162    25.508969 
   25200    232.27567   -392.47527    216009.12   -18717.327    1350.8132    -20068.14   -1088.5673    184.70941    78.723087    22.626295    25.477079 
   25400    240.90418    -283.3254    216009.12   -18618.602    1400.9928   -20019.595   -652.02508    184.87626     78.72342    22.626598    25.453964 
   25600    241.31213   -311.36519    216009.12   -18466.949    1403.3653   -19870.314   -745.24078     185.8462    78.722609    22.625623    25.421024 
   25800    237.23313   -250.65966    216009.12   -18518.431    1379.6436   -19898.074   -445.27125    187.61127    78.723246    22.625817     25.41968 
   26000    242.46696   -264.20325    216009.12   -18541.581    1410.0812   -19951.662   -549.70903    188.36987    78.723812    22.626387    25.443751 
   26200    237.87481   -327.35983    216009.12   -18558.498    1383.3753   -19941.874   -776.34951    191.14169    78.723871      22.6281    25.453169 
   26400    230.13236   -174.05948    216009.12   -18623.427    1338.3486   -19961.775   -134.03066    193.83421    78.723373    22.627937    25.451204 
   26600    248.58946   -247.30016    216009.12   -18519.953     1445.687    -19965.64   -456.17853    195.44242    78.722917    22.627953    25.431731 
   26800    246.52089   -412.39093    216009.12   -18590.112    1433.6571   -20023.769    -1193.996    198.21702     78.72149    22.626985    25.412693 
   27000    243.78113   -395.85786    216009.12    -18540.74    1417.7239   -19958.464   -1101.6291    199.17777    78.717026    22.624879    25.434808 
   27200    238.49405   -304.91442    216009.12   -18575.061    1386.9766   -19962.037   -698.07386    199.80888    78.717585     22.61874     25.43037 
   27400    245.13213   -389.83341    216009.12   -18515.392    1425.5807   -19940.972   -1068.8833    200.87224    78.719331    22.615876    25.396942 
   27600      238.935   -350.36926    216009.12   -18636.086    1389.5409   -20025.627   -928.19515      202.468    78.721538    22.615664    25.388752 
   27800    241.33597   -481.27247    216009.12   -18528.644    1403.5039   -19932.147   -1482.6107    203.99568    78.720727    22.614984    25.382452 
   28000    235.82781   -128.96135    216009.12   -18610.481    1371.4709   -19981.952   -17.957393    204.12215    78.719943    22.614791    25.383986 
   28200    234.94285   -366.15306    216009.12   -18591.917    1366.3243   -19958.241   -1004.1844    205.57148    78.718786    22.613856    25.408368 
   28400    238.13397   -408.06821    216009.12   -18614.953    1384.8825   -19999.835   -1174.5417    207.33206    78.719194    22.612912    25.414458 
   28600     239.8168   -241.47894    216009.12   -18602.968    1394.6691   -19997.637    -509.7076    209.65442    78.722212    22.613935    25.415065 
   28800    236.04867   -240.45647    216009.12   -18597.039    1372.7553   -19969.795   -416.39942    210.50729    78.723264    22.612695    25.415822 
   29000    242.04398   -494.52903    216009.12   -18578.012    1407.6214   -19985.633   -1582.4306    211.09904    78.724287    22.612775    25.415342 
   29200    238.41639   -214.42807    216009.12   -18539.503    1386.5249   -19926.028   -342.27681    210.86567    78.726097    22.613741     25.42142 
   29400    238.83212   -354.86394    216009.12   -18530.518    1388.9426   -19919.461   -954.83113    212.81391    78.726117    22.616295    25.440033 
   29600    244.01896   -194.16705    216009.12   -18546.276     1419.107   -19965.383   -241.20539    214.17054    78.723104    22.621662    25.427978 
   29800    236.38542   -273.22887    216009.12   -18645.979    1374.7137   -20020.692      -615.35    216.88295    78.723321    22.621939      25.4231 
   30000    236.95772   -245.90792    216009.12    -18669.88     1378.042   -20047.922   -482.00934     216.5266    78.723887    22.621853    25.434983 
   30200    235.10884   -323.15091    216009.12   -18644.538    1367.2896   -20011.827   -753.96218    218.18085    78.724567    22.623696    25.448988 
   30400    234.91808   -307.28407    216009.12   -18610.018    1366.1803   -19976.198   -724.97124    219.45535    78.725664    22.622978    25.443673 
   30600    239.36221   -288.63888    216009.12   -18657.069    1392.0254   -20049.094    -640.6232     219.7222    78.727139    22.622915    25.449296 
   30800    239.64376    -281.7558    216009.12   -18588.437    1393.6628     -19982.1   -592.90515    220.74296    78.729035    22.623062    25.460092 
   31000    239.01966   -322.48382    216009.12   -18574.771    1390.0333   -19964.804   -843.96715    221.98798    78.728348    22.623582    25.470192 
   31200    244.02297   -354.01078    216009.12   -18566.001    1419.1303   -19985.131   -909.44207    223.80983    78.727004    22.625482    25.451423 
   31400    240.15833   -375.02453    216009.12   -18590.281    1396.6553   -19986.936   -1031.8367    224.69643    78.726731    22.625361    25.447684 
   31600    236.40682   -199.18483    216009.12   -18583.795    1374.8382   -19958.633   -283.75569    225.00879    78.728891    22.623549    25.450202 
   31800     239.9307   -166.90256    216009.12   -18511.778    1395.3315   -19907.109   -149.35756    224.92899     78.72894    22.623691    25.443946 
   32000    233.23531   -435.97466    216009.12   -18607.246    1356.3941    -19963.64   -1251.7906    227.26323    78.728042    22.625066    25.416833 
   32200    237.90843   -320.41591    216009.12   -18594.141    1383.5709   -19977.712   -795.55671    229.62209       78.729    22.623633    25.427863 
   32400    240.13469   -340.23444    216009.12   -18605.264    1396.5178   -20001.782   -897.86847    231.57529    78.729819    22.623371     25.43198 
   32600     241.5714   -236.96804    216009.12   -18576.328    1404.8731   -19981.202   -466.06984    233.23618    78.729234    22.623596    25.404248 
   32800    241.89277   -358.15171    216009.12   -18573.528     1406.742    -19980.27    -910.5705    234.63168    78.729092    22.623505    25.429037 
   33000     247.1729   -245.83907    216009.12   -18555.889    1437.4489   -19993.338   -486.06246    234.61675      78.7289    22.625584     25.43496 
   33200    239.45664   -241.79376    216009.12   -18575.258    1392.5745   -19967.833   -433.64029    235.13856    78.727879    22.627191    25.416059 
   33400    237.12376    -352.6992    216009.12   -18629.481    1379.0075   -20008.488   -891.98579    236.43785    78.730111    22.627619     25.43507 
   33600    236.62916   -284.52595    216009.12   -18664.524    1376.1312   -20040.655   -616.34664    236.57884    78.730969    22.629376    25.415037 
   33800     251.0933   -285.24447    216009.12   -18527.308    1460.2482   -19987.556   -661.63942    237.84152    78.731413    22.627283    25.412375 
   34000     242.6761    -127.9254    216009.12   -18620.955    1411.2975   -20032.253    31.023194    239.11112    78.731685    22.627462    25.404659 
   34200    240.39207   -400.15507    216009.12   -18593.536    1398.0146   -19991.551   -1120.3226    239.94777    78.730462    22.629672    25.397208 
   34400    233.46438   -230.71869    216009.12   -18651.506    1357.7262   -20009.233   -380.05209    240.70397    78.730153    22.628925    25.408238 
   34600    241.67706   -258.36227    216009.12   -18524.633    1405.4875    -19930.12   -526.97106    243.59996    78.728946    22.629685    25.400511 
   34800    237.02984   -297.89737    216009.12   -18595.996    1378.4613   -19974.457   -724.87637    243.42518    78.728635      22.6285    25.393279 
   35000     233.5993    -233.6174    216009.12    -18590.14    1358.5108   -19948.651   -453.89496    243.72386    78.727874    22.627974    25.391446 
   35200    247.76239   -282.18034    216009.12   -18512.562    1440.8772   -19953.439   -654.23367    244.00841    78.727568    22.630013    25.392322 
   35400    244.98224   -195.04369    216009.12   -18546.485     1424.709   -19971.194   -219.45951     246.9934     78.72881    22.631844    25.402707 
   35600    240.03496   -356.96756    216009.12   -18571.099    1395.9378   -19967.037   -940.91819    247.50353    78.729018    22.632035    25.393479 
   35800    250.60989   -252.39252    216009.12   -18503.205    1457.4369   -19960.642   -514.90795    248.77317    78.728897    22.634447    25.390669 
   36000    236.20818   -267.54488    216009.12   -18604.153    1373.6829   -19977.836   -577.75922    248.93592     78.72887    22.634653    25.412822 
   36200    243.29968   -405.72376    216009.12   -18571.639     1414.924   -19986.563   -1196.2334    249.82935    78.727127    22.635311    25.390391 
   36400    243.58175    -168.4864    216009.12   -18593.037    1416.5644   -20009.601   -126.54436    249.86259    78.725467     22.63556    25.395389 
   36600    242.78882   -160.98112    216009.12   -18613.647     1411.953     -20025.6   -126.69355    251.08733    78.724384    22.635278    25.372512 
   36800    239.03542   -346.26131    216009.12   -18651.511    1390.1249   -20041.636   -896.57022    251.86132     78.72385    22.635895    25.364223 
   37000    239.79979   -280.27083    216009.12   -18626.188    1394.5702   -20020.759   -624.30331    253.78475    78.723168    22.635933    25.377573 
   37200    240.70832    -321.5623    216009.12   -18648.314    1399.8538   -20048.168   -813.02123    253.64178    78.723139    22.638934    25.405126 
   37400    240.43459   -313.19695    216009.12   -18623.686    1398.2619   -20021.948   -786.25198    255.30828     78.72392    22.640053     25.36834 
   37600    240.68636   -225.34393    216009.12   -18640.983    1399.7261   -20040.709   -407.06795     255.8768    78.726258    22.640936    25.361958 
   37800    237.38355   -320.93466    216009.12   -18688.151    1380.5184   -20068.669   -786.08906    256.26024    78.727482    22.640524    25.377943 
   38000     243.9906   -444.15199    216009.12    -18572.76    1418.9421   -19991.702   -1300.1067    256.74584    78.730377    22.640456    25.384185 
   38200     246.5889   -304.42025    216009.12   -18554.504    1434.0526   -19988.556   -722.78655     257.0393    78.731523     22.64033    25.359747 
   38400    239.69823   -298.98813    216009.12   -18537.977    1393.9796   -19931.957   -684.57312    258.78416    78.730695    22.640425     25.35386 
   38600    243.88531   -347.00314    216009.12   -18595.907    1418.3298   -20014.237   -925.11203    259.69237    78.729021    22.642901    25.357923 
   38800    242.46336   -262.44561    216009.12   -18620.692    1410.0603   -20030.752   -603.20982    261.74725    78.729412    22.645513    25.379223 
   39000    243.82981   -377.67338    216009.12   -18557.346     1418.007   -19975.353   -1014.1945     262.9312    78.727976     22.64527     25.35911 
   39200    235.66482   -382.93223    216009.12   -18646.698     1370.523   -20017.221   -1027.6504    263.73777    78.729946    22.641279    25.359124 
   39400    236.17985   -393.07869    216009.12    -18601.85    1373.5182   -19975.369   -1105.1934    264.40624    78.730038    22.640605    25.356943 
   39600    243.53723   -354.27323    216009.12   -18566.254    1416.3055    -19982.56   -1004.3037    264.33005    78.729501    22.639135      25.3698 
   39800    241.48634   -391.53069    216009.12   -18630.381    1404.3784   -20034.759   -1134.2078    265.88464    78.728253    22.638518    25.364658 
   40000    239.54439   -336.06211    216009.12   -18612.514    1393.0849   -20005.599   -872.42417    267.48703    78.724828    22.638006    25.341833 
   40200    240.23518   -177.67183    216009.12   -18618.563    1397.1022   -20015.665   -178.23025    267.51984    78.725778    22.635952    25.352799 
   40400    239.16297   -328.83519    216009.12   -18674.536    1390.8667   -20065.402   -782.74023    269.94483    78.725877    22.635185    25.361439 
   40600    246.33702   -300.51904    216009.12   -18616.342    1432.5878   -20048.929   -705.69649    272.58744    78.726081    22.632521    25.349003 
   40800    239.26069   -289.43808    216009.12   -18693.386     1391.435   -20084.821    -677.5256    274.59922    78.726131    22.631568    25.343169 
   41000    237.88585   -313.74715    216009.12   -18652.069    1383.4395   -20035.509   -719.93694    274.98936    78.723291    22.631898     25.33239 
   41200    239.62789   -291.73346    216009.12   -18590.276    1393.5705   -19983.846   -705.58388    275.59484    78.724148    22.632496    25.328731 
   41400     243.5086   -300.62711    216009.12   -18592.468     1416.139   -20008.607   -724.71384    277.02345    78.723181    22.634013    25.316664 
   41600    242.10863   -300.03508    216009.12   -18598.366    1407.9974   -20006.364   -723.69826    278.53978    78.722852    22.632677    25.329656 
   41800    241.32338   -361.37969    216009.12   -18586.536    1403.4307   -19989.966   -1011.4876    278.03727    78.723788    22.630728    25.369799 
   42000    232.16954   -262.83096    216009.12   -18573.781     1350.196   -19923.977   -559.72193    279.50387    78.721025    22.630129    25.376918 
   42200    233.77794   -404.97768    216009.12   -18585.436    1359.5497   -19944.986   -1161.9535    280.47881    78.719912    22.628075    25.361866 
   42400    242.94064   -331.67417    216009.12   -18557.308    1412.8359   -19970.144   -863.99343    280.43135    78.718219     22.62734    25.370281 
   42600     242.7429   -161.23218    216009.12   -18575.002     1411.686   -19986.688   -115.27001    282.12217    78.717521    22.626747    25.375327 
   42800    243.38575     -406.922    216009.12   -18558.449    1415.4245   -19973.874   -1216.9182    283.86758    78.718984    22.626217    25.376607 
   43000    247.39395   -245.12943    216009.12   -18569.503    1438.7345   -20008.238   -446.17501    284.51277    78.720898    22.627022    25.387231 
   43200    241.31172    -368.0482    216009.12   -18569.644    1403.3629   -19973.007   -1003.6471    286.66444    78.719509    22.627557    25.391431 
   43400    242.29586   -367.63093    216009.12   -18530.302    1409.0862   -19939.389    -979.0116    287.21569     78.71793    22.627501    25.381302 
   43600    233.39565   -295.29622    216009.12   -18546.083    1357.3265   -19903.409   -656.46462    288.49325    78.716542       22.627    25.370175 
   43800    232.92134   -195.28453    216009.12    -18614.21    1354.5681   -19968.779    -247.6882    290.58317    78.714123    22.627282    25.378263 
   44000    236.06075   -335.19802    216009.12   -18637.136    1372.8255   -20009.961   -839.50328    291.84104    78.712769    22.625826    25.378539 
   44200    234.78865   -369.85326    216009.12   -18599.494    1365.4276   -19964.921   -960.98953    292.63691    78.713204    22.625759    25.370904 
   44400    236.49669   -122.92993    216009.12   -18599.702    1375.3608   -19975.062    58.289836    293.28678    78.712222    22.627358    25.367749 
   44600    242.25881   -307.71738    216009.12   -18639.632    1408.8707   -20048.503   -715.78313    293.83163    78.709388     22.62789    25.362736 
   44800    236.30619   -321.83539    216009.12   -18658.706    1374.2529   -20032.959   -811.02424    296.17733     78.70504    22.629328    25.368513 
   45000     238.0538   -385.51935    216009.12   -18627.446    1384.4163   -20011.863   -1062.1659      296.029    78.701012    22.631275    25.377784 
   45200    241.03473   -269.08555    216009.12   -18588.932     1401.752   -19990.684   -568.73315    296.94446    78.700812     22.63204    25.388297 
   45400    237.17731   -368.41033    216009.12   -18646.352     1379.319   -20025.671   -993.81517    297.23484    78.701104    22.629111    25.406416 
   45600       237.08   -321.85496    216009.12   -18539.935    1378.7531   -19918.688   -765.15862    297.77891    78.697325    22.630686    25.406883 
   45800    246.41248   -274.79157    216009.12   -18580.003    1433.0267    -20013.03   -575.59427    298.22797    78.696698    22.634386    25.409797 
   46000    248.00101   -301.18041    216009.12   -18523.912    1442.2649   -19966.176   -754.83386    301.71005    78.696687    22.634654    25.425552 
   46200    241.12042   -366.60909    216009.12   -18535.497    1402.2504   -19937.747   -936.81591     304.6881    78.697712    22.635534    25.444218 
   46400     232.9138   -257.09289    216009.12   -18611.894    1354.5243   -19966.418   -517.83631    304.09411    78.697268    22.636032    25.442658 
   46600    238.30004   -396.44164    216009.12   -18582.056    1385.8483   -19967.904   -1104.5718    305.26758    78.698451    22.635922    25.428489 
   46800    238.64233   -207.02637    216009.12   -18559.391    1387.8389    -19947.23   -289.45113    307.34478    78.696784    22.635392    25.424737 
   47000    247.97174   -354.49213    216009.12   -18539.581    1442.0947   -19981.676   -877.59985    308.52783    78.695109    22.636587    25.430867 
   47200    229.01197   -171.15138    216009.12   -18682.768    1331.8329   -20014.601    -167.0386    307.95315    78.694729    22.635764     25.43625 
   47400    235.13523   -288.20475    216009.12   -18626.764    1367.4431   -19994.207   -645.62527    309.57813    78.695765    22.637527    25.448848 
   47600    237.28105   -255.24715    216009.12   -18646.483    1379.9223   -20026.405   -467.02197    309.91098    78.695418    22.637848    25.434446 
   47800    243.07677   -464.21945    216009.12   -18580.509    1413.6276   -19994.136   -1330.1283    311.84438    78.694066    22.636179    25.441806 
   48000     243.7299   -158.77734    216009.12   -18620.747     1417.426   -20038.173   -57.546553    313.96941    78.694546    22.632482    25.443154 
   48200    241.15785   -370.22161    216009.12   -18640.286     1402.468   -20042.754   -964.67564    315.19256    78.694445    22.635499    25.440306 
   48400    235.03408    -359.9994    216009.12   -18612.736    1366.8549   -19979.591   -907.60586    316.26743    78.696326     22.63684    25.427018 
   48600    233.77898   -143.25674    216009.12   -18689.447    1359.5558   -20049.003    17.815636    317.19358    78.697289    22.636721    25.412109 
   48800    238.51488   -393.17381    216009.12   -18648.786    1387.0977   -20035.883   -1116.9526    318.42352    78.695983    22.635724    25.425011 
   49000    240.01225   -265.62772    216009.12   -18616.831    1395.8057   -20012.637   -567.38477    318.21009    78.695873    22.635173    25.390505 
   49200    242.31536   -191.53081    216009.12   -18583.321    1409.1996    -19992.52   -246.50616    320.38739    78.695205    22.634233    25.416832 
   49400    231.23891   -515.79453    216009.12   -18651.354    1344.7838   -19996.138   -1625.0742    322.24664    78.693048    22.634727     25.40839 
   49600    243.11947   -308.51854    216009.12   -18627.611     1413.876   -20041.487   -709.96835    323.17158    78.692978    22.637438    25.428752 
   49800     239.8821   -386.95472    216009.12    -18613.58    1395.0488   -20008.629    -1039.479    326.04715    78.691959    22.638426    25.438065 
   50000    235.25245   -307.96421    216009.12   -18640.416    1368.1248   -20008.541   -685.54365    326.74752    78.693703    22.637276    25.444147 
   50200     243.8698   -524.58337    216009.12   -18576.742    1418.2396   -19994.982   -1681.2418    326.88318    78.694135    22.635689     25.44177 
   50400    246.90597   -245.94113    216009.12   -18604.594    1435.8966   -20040.491   -430.35815    328.20581    78.696375    22.635155    25.448117 
   50600    238.98137   -311.44346    216009.12   -18502.327    1389.8106   -19892.138   -757.26876    329.64765    78.699516    22.633498    25.431589 
   50800    228.43014   -207.71679    216009.12   -18631.384    1328.4493   -19959.833   -348.54637    331.00163    78.699854    22.629482     25.42639 
   51000    239.48577    -546.3021    216009.12   -18580.297     1392.744   -19973.041   -1753.1015     329.0198     78.70028    22.628138    25.428236 
   51200    240.47583   -300.79032    216009.12   -18606.347    1398.5017   -20004.849   -651.55608     329.2266    78.700454     22.62895    25.416803 
   51400    244.19876    -287.5958    216009.12   -18584.662    1420.1526   -20004.814   -641.26044    330.72259    78.701147    22.627603    25.423852 
   51600    239.34386   -228.62392    216009.12    -18667.87    1391.9187   -20059.788   -374.92243    332.66209    78.699601    22.629631     25.39844 
   51800    243.15308   -345.07267    216009.12   -18607.678    1414.0714    -20021.75   -898.39166    333.83624    78.698824    22.630464    25.421068 
   52000    232.36874    -261.0495    216009.12   -18675.519    1351.3545   -20026.874    -535.1591    335.15124    78.696971     22.62928    25.434201 
   52200    234.91261   -397.25244    216009.12   -18692.691    1366.1485   -20058.839   -1109.0945    337.38321    78.694066    22.626331    25.439351 
   52400    244.26077   -289.74769    216009.12   -18695.773    1420.5133   -20116.286   -666.00614    336.39322    78.692704    22.622228    25.442822 
   52600    235.79638    -505.4991    216009.12   -18615.194    1371.2881   -19986.483   -1576.4345    338.45667    78.692951    22.622117    25.470771 
   52800    240.63755   -237.83323    216009.12   -18541.936    1399.4422   -19941.378   -457.61047      339.137    78.689866    22.622281    25.487284 
   53000    242.04127   -390.36825    216009.12   -18555.871    1407.6056   -19963.477   -1074.1224     341.2185    78.690464    22.620511    25.481908 
   53200    235.70267   -284.77385    216009.12   -18655.823    1370.7431   -20026.566   -630.48227    340.61977    78.691498    22.621375    25.484561 
   53400    247.58423   -488.86201    216009.12   -18612.311    1439.8411   -20052.152   -1470.5373    341.17924    78.693448    22.620048    25.498515 
   53600    228.41071   -275.70712    216009.12   -18709.701    1328.3363   -20038.037   -578.04165    343.08328     78.69359    22.619256    25.517488 
   53800     235.7302   -320.80248    216009.12   -18664.276    1370.9032   -20035.179   -795.30559    344.84931    78.694764    22.618226    25.521259 
   54000    236.71595   -366.34499    216009.12   -18649.305    1376.6359   -20025.941   -976.39237    347.92418    78.697224    22.621252    25.530768 
   54200    241.08506   -332.02083    216009.12   -18598.527    1402.0447   -20000.571   -867.42049    346.61262    78.697896    22.619333    25.530854 
   54400    246.06752   -379.05861    216009.12   -18557.557    1431.0206   -19988.577   -1084.3772    347.00899    78.697536    22.621823    25.541261 
   54600    242.06858   -396.17829    216009.12   -18578.382    1407.7644   -19986.147   -1094.2459    346.29569    78.698413    22.621964    25.544975 
   54800    240.09218   -202.87771    216009.12   -18592.009    1396.2706    -19988.28   -299.69572    346.81986    78.697739      22.6208    25.513395 
   55000    241.84086   -303.66934    216009.12   -18561.464    1406.4401   -19967.904   -742.31081    347.80489    78.699758    22.621255    25.527077 
   55200    233.63331   -81.119341    216009.12   -18692.779    1358.7086   -20051.488    260.20459    348.21048    78.702915    22.622085    25.543187 
   55400    238.82393   -417.70826    216009.12   -18640.956     1388.895   -20029.851   -1174.2186     349.9956    78.704185    22.623462    25.553512 
   55600    241.95834   -187.33696    216009.12   -18634.058    1407.1233   -20041.181    -198.9105    350.31471    78.706389    22.626945    25.538895 
   55800    243.73908   -163.27923    216009.12   -18553.204    1417.4794   -19970.683   -151.38429    351.51804    78.707679    22.628867    25.532984 
   56000    241.13896   -184.63136    216009.12    -18585.17    1402.3582   -19987.528   -204.62238    352.07563    78.707299    22.628903    25.527329 
   56200    248.07454    -382.2516    216009.12   -18592.403    1442.6925   -20035.095   -1050.7081    353.48908    78.708208    22.627611     25.50975 
   56400    232.39768   -257.79042    216009.12   -18688.182    1351.5227   -20039.705   -516.48134    354.61304    78.709069    22.627971    25.520566 
   56600    237.07536   -305.39988    216009.12   -18768.078    1378.7261   -20146.805   -690.23055    355.81628    78.710496    22.628037    25.528533 
   56800    243.38698   -391.66995    216009.12   -18676.929    1415.4317    -20092.36   -1068.6753    356.18933    78.711689    22.630408    25.522882 
   57000    238.59979   -418.49183    216009.12   -18728.763    1387.5915   -20116.355   -1199.7993    355.55762    78.713274    22.629941    25.501855 
   57200    241.87859   -313.73934    216009.12   -18675.408    1406.6596   -20082.067   -806.46687    355.49548     78.71498    22.629829     25.47425 
   57400    240.59471   -389.67006    216009.12   -18737.919    1399.1931   -20137.112   -1072.4723    355.58219    78.717865    22.632202    25.474929 
   57600    232.44957   -192.39481    216009.12   -18755.237    1351.8245   -20107.062   -254.54562    356.95822    78.716994    22.635563    25.478608 
   57800    241.00704    -369.6616    216009.12   -18673.091     1401.591   -20074.682    -1005.427    357.71147    78.721338    22.636234     25.49103 
   58000    241.32426   -363.71134    216009.12   -18678.929    1403.4358   -20082.365   -974.62385     358.5911     78.72314     22.63747    25.488963 
   58200    237.44967   -133.00878    216009.12   -18644.192    1380.9029   -20025.095    -2.278432    359.18713    78.725844    22.636289      25.4905 
   58400    242.37358   -324.86178    216009.12   -18687.308    1409.5382   -20096.846   -802.50175    362.52231    78.725719    22.638778    25.489935 
   58600    238.42604   -315.24547    216009.12   -18718.708    1386.5811   -20105.289   -813.94581    363.12508    78.725509    22.641644     25.46398 
   58800    240.84428   -436.36216    216009.12   -18695.186    1400.6445   -20095.831   -1265.5639    365.99191    78.724421    22.640832    25.467204 
   59000    242.24641   -415.32698    216009.12   -18612.649    1408.7986   -20021.448   -1184.8653    365.85291     78.72534    22.640126    25.476623 
   59200    242.48355   -322.21625    216009.12   -18675.609    1410.1777   -20085.787   -792.58203    366.26524    78.724063    22.641634    25.494344 
   59400    236.48623   -336.65099    216009.12   -18696.457       1375.3   -20071.757    -841.0064    367.14088    78.725017    22.642056    25.489454 
   59600    236.16842   -319.06061    216009.12   -18727.148    1373.4517     -20100.6   -791.73684     368.0545     78.72599    22.642407     25.49628 
   59800    241.97441   -192.37013    216009.12    -18667.74    1407.2168   -20074.957   -230.54003    368.73441     78.72553     22.64359    25.486555 
   60000    241.22786   -218.68403    216009.12   -18679.331    1402.8752   -20082.206   -371.21247    371.10967    78.725669    22.646354    25.448123 
   60200    231.95106   -347.89692    216009.12    -18715.55    1348.9254   -20064.476   -896.06964    371.69591     78.72675    22.648338    25.447665 
   60400    242.85062   -218.33122    216009.12   -18713.143    1412.3124   -20125.456   -303.83202    370.37841    78.727114    22.648442    25.479885 
   60600    243.42337   -273.59869    216009.12   -18659.869    1415.6433   -20075.512   -604.45615    371.31566    78.725155    22.647788    25.484494 
   60800    250.68676   -292.70127    216009.12   -18631.363     1457.884   -20089.247   -696.42518    372.06228     78.72235    22.647779    25.484576 
   61000    242.42825   -383.23863    216009.12   -18697.925    1409.8562   -20107.781   -1045.2137    372.67693    78.723296    22.647128    25.513263 
   61200    244.21701   -243.16653    216009.12   -18636.686    1420.2588   -20056.945   -464.70887    372.78249    78.724136    22.644119    25.498793 
   61400    245.55286    -219.4859    216009.12   -18644.698    1428.0275   -20072.726   -330.88157    374.31182    78.724129    22.641797     25.52106 
   61600    237.14646   -278.68968    216009.12    -18652.85    1379.1396    -20031.99   -612.78498    376.91643    78.724666    22.641356    25.542892 
   61800    233.50377   -315.21157    216009.12   -18687.278    1357.9553   -20045.233   -770.63583    378.04359    78.725126    22.643374    25.568331 
   62000    232.31537   -260.01214    216009.12   -18612.024    1351.0441   -19963.068   -558.06366    377.95523    78.726519    22.642169    25.578048 
   62200    241.64815   -315.03637    216009.12   -18583.573    1405.3194   -19988.893   -780.43377    378.50513    78.725992    22.642994    25.588587 
   62400    235.13933   -307.45813    216009.12   -18569.307     1367.467   -19936.774   -758.81238    379.65407     78.72502    22.643564    25.605683 
   62600     241.7543   -345.37176    216009.12   -18625.998    1405.9367   -20031.935   -904.42283    379.34427      78.7245    22.643884     25.61723 
   62800    235.32143   -363.81897    216009.12   -18682.113     1368.526   -20050.639   -1001.4261    380.85377    78.720283    22.645385    25.619227 
   63000    241.37025   -311.46946    216009.12   -18599.153    1403.7033   -20002.857   -798.09456    380.82058    78.717634    22.645876    25.637955 
   63200    237.85788   -170.34961    216009.12   -18610.843    1383.2768    -19994.12   -157.87315    381.43763    78.720392    22.645668    25.627765 
   63400    233.74955   -349.99566    216009.12   -18664.864    1359.3846   -20024.248   -900.37146    382.24678    78.721298    22.646094    25.625082 
   63600    242.59699   -306.86941    216009.12   -18640.044    1410.8374   -20050.882   -731.20582    384.24071    78.721165    22.646452    25.613826 
   63800    234.99159   -400.31701    216009.12   -18694.764    1366.6078   -20061.372    -1138.275    384.62956    78.720184    22.645218    25.590002 
   64000    242.32469   -226.65507    216009.12   -18609.098    1409.2539   -20018.352   -412.23329    384.99441    78.721037    22.645095    25.586625 
   64200    239.32035     -348.326    216009.12   -18621.359     1391.782   -20013.141   -921.50867    384.41567    78.719521    22.644498    25.576016 
   64400    240.31381   -403.17921    216009.12   -18635.812    1397.5595   -20033.371   -1170.0052    386.47016    78.719669    22.645144    25.607261 
   64600    234.81129   -223.99464    216009.12   -18664.814    1365.5592   -20030.374   -383.45701    387.51056    78.717948     22.64438    25.594162 
   64800    238.79543   -359.99364    216009.12   -18615.744    1388.7292   -20004.473   -967.55402    389.59157    78.718447    22.642893    25.602389 
   65000     251.9091   -197.18633    216009.12   -18548.094    1464.9926   -20013.087   -268.10742    392.33679    78.719687    22.640334    25.622635 
   65200     234.7304   -264.92933    216009.12    -18597.87    1365.0888   -19962.959   -590.06881    394.73414    78.719497    22.639861     25.62023 
   65400    241.63761   -195.04715    216009.12   -18617.022    1405.2581    -20022.28    -256.3332     395.5339    78.720184    22.639586    25.648208 
   65600    238.88321   -381.06459    216009.12   -18536.257    1389.2397   -19925.497   -1057.5162    396.60281     78.71921    22.638181    25.637235 
   65800    244.10324   -300.79919    216009.12   -18544.007    1419.5972   -19963.604   -670.06347    398.08942     78.71626    22.636395     25.62738 
   66000    237.95757    -280.8855    216009.12   -18571.665    1383.8566   -19955.522   -677.19369    399.64213    78.712452    22.634727    25.595612 
   66200    239.81837   -432.11858    216009.12   -18608.125    1394.6782   -20002.803   -1263.3708    400.31061     78.70925    22.635925    25.558408 
   66400    235.14641   -325.29823    216009.12   -18592.048    1367.5082   -19959.556   -787.04681     402.6804    78.708956    22.636565    25.553707 
   66600    247.21594   -228.41985    216009.12   -18566.384    1437.6992   -20004.083   -368.80963    402.73873    78.710166    22.636943    25.580756 
   66800    228.53704   -440.55328    216009.12   -18590.617     1329.071   -19919.688   -1324.3808    405.26678    78.710421     22.63625    25.590818 
   67000    235.90801   -433.93602    216009.12   -18644.375    1371.9373   -20016.312   -1237.7819    409.10934    78.709332    22.637155    25.589382 
   67200    236.02857   -264.14797    216009.12   -18583.596    1372.6384   -19956.234   -549.81418    407.87173    78.709979      22.6394    25.594901 
   67400    237.17333    -263.3021    216009.12   -18552.415    1379.2958   -19931.711   -483.98149    411.12479    78.709009    22.640696    25.595617 
   67600    242.03854   -271.32415    216009.12    -18547.87    1407.5897   -19955.459   -542.00525    410.63964    78.707496      22.6421    25.579495 
   67800    238.19785   -262.38642    216009.12   -18605.755     1385.254   -19991.009   -485.43059    412.53849    78.707422    22.643762    25.594453 
   68000    233.46056   -301.62129    216009.12    -18627.34     1357.704   -19985.044   -703.38952    412.32845    78.708667     22.64227    25.560281 
   68200    242.16557   -396.97521    216009.12   -18630.074    1408.3285   -20038.402   -1143.2926     415.1837    78.706002    22.640745    25.541552 
   68400    243.17591   -281.30798    216009.12   -18555.677    1414.2042   -19969.881   -605.57354    416.77473    78.705529    22.641274    25.530175 
   68600    241.16947   -364.36213    216009.12   -18579.927    1402.5356   -19982.463   -974.71739    415.72382    78.706955    22.643748    25.530708 
   68800    244.38877   -385.54783    216009.12   -18551.223    1421.2576    -19972.48   -1082.5745    418.72062    78.706267    22.645297     25.54063 
   69000    238.94325    -317.1713    216009.12   -18567.626    1389.5889   -19957.215   -777.35642    421.08478    78.707396    22.643962    25.543589 
   69200     236.6738     -395.822    216009.12   -18638.413    1376.3908   -20014.804   -1116.3572    422.66005    78.706316    22.643413    25.543969 
   69400     234.6747    -128.4574    216009.12    -18660.87    1364.7649   -20025.635    15.734763    423.19862    78.706654    22.641462    25.535513 
   69600    245.58569   -320.10653    216009.12   -18509.805    1428.2184   -19938.024   -781.68141    425.62121    78.708696    22.641701    25.553713 
   69800    236.69395   -271.88153    216009.12   -18656.384    1376.5079   -20032.892   -573.43887    425.13684    78.711095    22.640395    25.542783 
   70000    245.15259   -446.01874    216009.12    -18619.18    1425.6997    -20044.88   -1360.4717    427.54863    78.711917    22.640859    25.553311 
   70200    243.91459   -260.78029    216009.12   -18605.182       1418.5   -20023.682   -553.34595    427.69604     78.71232    22.640963    25.556773 
   70400    249.10932   -380.26554    216009.12    -18563.15    1448.7103    -20011.86   -1041.8193    430.05735    78.713595    22.640523    25.562415 
   70600    237.28368   -222.36951    216009.12   -18643.403    1379.9376   -20023.341    -336.1237    429.71119     78.71567    22.639622    25.576615 
   70800     237.6712   -289.84376    216009.12   -18673.254    1382.1912   -20055.445   -619.49231    431.48874    78.714504    22.636516    25.577196 
   71000    238.21328   -235.12794    216009.12   -18672.526    1385.3437   -20057.869   -424.54843    431.29417    78.716483    22.634056    25.567483 
   71200    233.38131   -233.75044    216009.12   -18659.084    1357.2431   -20016.327   -437.62848    431.73191    78.715881    22.633889    25.564792 
   71400    243.50607   -344.70468    216009.12    -18681.76    1416.1242   -20097.884   -855.49833    431.77883     78.71619     22.63216    25.549498 
   71600     241.7021    -290.8379    216009.12   -18617.382    1405.6332   -20023.015   -734.62555    432.12774    78.715363    22.635944      25.5541 
   71800    227.29524   -403.73438    216009.12    -18702.42    1321.8492    -20024.27   -1172.6099    434.69133    78.714761    22.635127    25.566509 
   72000    241.97661   -382.80479    216009.12   -18664.445    1407.2296   -20071.674   -1095.5787    435.82701    78.713703     22.63935    25.572478 
   72200    243.88633   -289.55252    216009.12   -18560.201    1418.3357   -19978.536   -649.87528    437.20409    78.712675    22.640357    25.574755 
   72400    236.71537   -325.86538    216009.12   -18654.898    1376.6325    -20031.53   -806.63413    436.23412    78.712737    22.639556    25.591173 
   72600    237.18481   -299.73332    216009.12   -18604.175    1379.3626   -19983.538   -654.32558    436.85639    78.712353     22.64072    25.621391 
   72800    243.33689   -348.43934    216009.12     -18615.8    1415.1404    -20030.94   -877.24668    438.79417    78.711855    22.639786    25.635185 
   73000    239.61633   -341.02887    216009.12   -18639.642    1393.5033   -20033.146   -833.08172    439.29802    78.712717    22.641338    25.636231 
   73200    240.57574   -336.81271    216009.12   -18565.105    1399.0828   -19964.188   -880.72693    440.54666    78.712132    22.643238     25.64017 
   73400    241.62969   -377.16912    216009.12   -18548.566    1405.2121   -19953.778   -1020.7262    440.13869    78.712999    22.643285    25.660257 
   73600      243.986   -233.80837    216009.12   -18589.236    1418.9153   -20008.151   -436.61585    439.88864    78.710366    22.643194    25.660899 
   73800    237.90522   -160.52031    216009.12   -18710.287    1383.5522   -20093.839    -144.3263    441.35926    78.709462    22.639575    25.657238 
   74000    230.58999   -301.77636    216009.12   -18704.537      1341.01   -20045.547   -718.40618    442.36473    78.707632    22.637573    25.667324 
   74200    236.47076   -418.02851    216009.12   -18599.242      1375.21   -19974.452   -1241.9617    442.25077    78.707052    22.635584    25.670796 
   74400     242.0197   -257.78619    216009.12   -18579.188    1407.4802   -19986.668   -523.57858    444.01772    78.709165    22.636545    25.654404 
   74600    232.86371   -310.14697    216009.12   -18604.321     1354.233   -19958.554   -719.22664    447.97288    78.709372    22.637797     25.65868 
   74800     239.0559   -267.96016    216009.12   -18603.596     1390.244    -19993.84   -566.88349    445.97696    78.707902    22.637773    25.682381 
   75000    239.78896   -350.43813    216009.12   -18622.212    1394.5072   -20016.719   -861.28481    448.21085    78.709425    22.636923    25.683711 
   75200    242.65024   -313.29863    216009.12    -18581.37    1411.1471   -19992.517   -753.44954    446.30224    78.708018    22.638883    25.677616 
   75400    238.78447   -324.38792    216009.12   -18618.646    1388.6655   -20007.311   -797.38542    447.37553    78.709855    22.638015    25.682311 
   75600    231.85743   -273.05745    216009.12    -18590.73    1348.3809   -19939.111   -550.74305    446.50485    78.710819    22.638467    25.693988 
   75800    237.69601   -360.02965    216009.12   -18535.804    1382.3355    -19918.14    -953.5213    446.75398    78.710397    22.638135    25.646721 
   76000     241.7108   -443.46199    216009.12   -18528.865    1405.6838   -19934.549    -1344.733    446.86426    78.710109    22.638796    25.651843 
   76200    234.92832   -389.63265    216009.12   -18651.485    1366.2398   -20017.725   -1092.3491    449.27455    78.710686    22.640146    25.631291 
   76400    234.14557    -348.7217    216009.12   -18612.981    1361.6877   -19974.669   -876.11291    448.49766    78.709015    22.639495    25.632097 
   76600    237.32922   -384.58316    216009.12   -18562.259    1380.2024   -19942.461   -1058.4034    450.76699     78.70852    22.641044     25.61654 
   76800    237.17352   -219.61275    216009.12   -18580.929    1379.2969   -19960.226   -372.46715    449.46782    78.709268    22.644795    25.644338 
   77000    238.18403   -339.94369    216009.12   -18527.441    1385.1736   -19912.615   -866.70428    452.92303    78.711585    22.646138    25.639662 
   77200    243.76154   -370.75204    216009.12   -18504.737      1417.61   -19922.347   -990.61574     454.0535    78.709479    22.645335    25.659254 
   77400     242.4747   -317.09061    216009.12   -18526.519    1410.1263   -19936.645   -781.71397    454.65444    78.708633    22.645022    25.665911 
   77600     231.9922   -305.91102    216009.12    -18585.35    1349.1646   -19934.515   -718.96539    456.59458    78.708617    22.646679    25.658154 
   77800    240.91725   -249.48588    216009.12   -18558.236    1401.0688   -19959.305   -469.50465    457.86466    78.709097     22.64735    25.661488 
   78000    233.87484   -388.48227    216009.12   -18578.985    1360.1132   -19939.098   -1093.4762    460.11339    78.707524    22.648351    25.646294 
   78200    236.28316   -345.28598    216009.12    -18516.91     1374.119   -19891.029   -919.28901    461.44867    78.706131    22.648352    25.659361 
   78400    236.51416   -338.97254    216009.12    -18522.62    1375.4624   -19898.082    -894.0041    464.35959    78.706048     22.64904    25.652371 
   78600    241.59878   -304.58697    216009.12   -18539.055    1405.0323   -19944.088    -694.6399    465.61495     78.70647    22.648394    25.681947 
   78800    244.13743   -237.25185    216009.12   -18565.299     1419.796   -19985.095    -433.6212    466.68343    78.708622    22.648939    25.656984 
   79000    237.04577   -198.80106    216009.12   -18537.846     1378.554     -19916.4   -209.64616    464.47995    78.710726    22.651301    25.643764 
   79200    241.47103   -311.40266    216009.12   -18535.752    1404.2894   -19940.042   -750.57811    466.65789    78.710734    22.651138    25.628824 
   79400    246.11967   -308.25714    216009.12   -18508.981    1431.3238   -19940.305    -733.8485    468.43436    78.709294    22.651139     25.62656 
   79600    231.91529   -447.84847    216009.12    -18614.74    1348.7174   -19963.457   -1355.3285    468.62916    78.710542    22.653558    25.634345 
   79800    237.36133   -295.15278    216009.12   -18609.956    1380.3892   -19990.345   -683.57563    470.78513    78.709434    22.653856    25.645484 
   80000    235.00748    -345.6613    216009.12   -18628.103    1366.7002   -19994.803   -938.92939    469.54284    78.709745    22.651969    25.643097 
   80200      243.664   -308.16802    216009.12   -18606.846    1417.0427   -20023.888   -716.15359    470.95815    78.710872    22.650472    25.645142 
   80400    237.41965   -365.57139    216009.12   -18612.686    1380.7283   -19993.414   -977.53509    472.51442    78.712588    22.649832    25.644943 
   80600    245.62201   -471.42319    216009.12   -18589.259    1428.4296   -20017.688   -1430.0297    474.22616    78.712883    22.649557    25.649457 
   80800    245.13845   -217.63089    216009.12   -18583.162    1425.6175   -20008.779   -313.85834    474.44996    78.711084    22.647641    25.658506 
   81000    243.00418    -294.2174    216009.12   -18527.862    1413.2055   -19941.067   -692.84603    475.27256    78.711379    22.645794     25.65769 
   81200    243.65299   -394.14118    216009.12   -18565.939    1416.9787   -19982.918   -1078.6691    476.86224    78.709759    22.646073    25.650992 
   81400    244.45599    -416.8127    216009.12   -18567.535    1421.6486   -19989.183   -1204.8245    475.95312     78.70816    22.647155     25.64764 
   81600    236.05948   -279.68491    216009.12    -18612.68    1372.8182   -19985.498   -641.44217    478.24638    78.707927    22.646516    25.621866 
   81800    225.51682   -315.71571    216009.12   -18666.028    1311.5067   -19977.535   -766.27401    480.27654    78.707028    22.648079    25.612393 
   82000    244.40402   -286.41928    216009.12   -18591.248    1421.3463   -20012.594   -632.52152    478.28489    78.706797    22.648316     25.59037 
   82200    238.03325   -217.48423    216009.12   -18515.408    1384.2967   -19899.705   -360.84324    479.04541     78.70688     22.64773    25.615711 
   82400     247.0423   -273.54672    216009.12   -18571.373    1436.6894   -20008.062   -596.39896    479.27785    78.705876    22.646397    25.587818 
   82600    245.96752   -199.81946    216009.12   -18509.609     1430.439   -19940.048   -332.54708    479.32244    78.704937    22.646333    25.574515 
   82800    240.42666   -441.21141    216009.12   -18575.614    1398.2158    -19973.83   -1298.9933    481.09637    78.702316    22.645246    25.555551 
   83000    244.99184   -406.61681    216009.12    -18529.87    1424.7648   -19954.635   -1165.0459    482.39069    78.701345    22.644663    25.557713 
   83200    241.19758   -223.36979    216009.12   -18564.154    1402.6991   -19966.853   -383.39912    483.61215    78.701793      22.6446    25.561347 
   83400    242.82683   -145.63664    216009.12   -18591.561    1412.1741   -20003.735   -47.737259     484.8659    78.699786    22.643309    25.564582 
   83600    238.26895   -340.14899    216009.12   -18683.409    1385.6675   -20069.076   -890.16882    485.01755    78.699382    22.645586    25.597461 
   83800    236.05203    -385.6762    216009.12   -18657.759    1372.7748   -20030.534    -1069.904    486.83743    78.696968    22.646399    25.611093 
   84000     248.1016   -322.25443    216009.12    -18615.51    1442.8499    -20058.36   -772.41161    488.27906    78.696786    22.645125    25.607124 
   84200    239.33852   -353.62472    216009.12   -18595.834    1391.8876   -19987.722   -874.13626     488.3512    78.696377    22.644596    25.614405 
   84400      238.544   -260.13141    216009.12   -18630.717     1387.267   -20017.984   -493.89392    488.79875    78.696591    22.644597    25.589464 
   84600    247.47468   -242.01114    216009.12    -18601.99     1439.204   -20041.194   -423.34612    489.83968    78.697953    22.645109    25.583662 
   84800    236.78973   -356.78066    216009.12   -18622.435     1377.065     -19999.5   -935.23242    492.48009    78.698838    22.642598    25.574852 
   85000    238.81703   -357.22531    216009.12   -18629.278    1388.8548   -20018.133   -969.38175      491.959    78.701848    22.641034    25.571382 
   85200    233.17285   -352.28278    216009.12   -18633.935    1356.0308   -19989.966   -913.19236    491.76216    78.701538    22.640609    25.579426 
   85400    240.05101   -367.09138    216009.12   -18675.195    1396.0311   -20071.226   -955.83649    489.34629    78.703071    22.639637    25.579761 
   85600    237.83834    -246.5709    216009.12   -18656.857    1383.1632    -20040.02   -460.84392    491.76885    78.701357      22.6412    25.590358 
   85800    241.32304   -302.74099    216009.12   -18593.422    1403.4287   -19996.851    -715.8223    494.47351    78.700504    22.641701    25.594848 
   86000    236.52299   -271.84338    216009.12   -18624.064    1375.5137   -19999.577   -567.87216    497.20588    78.700943    22.638648     25.58438 
   86200    240.72246    -376.0731    216009.12   -18623.082     1399.936   -20023.018    -1052.592    499.66031    78.698396    22.637652    25.591522 
   86400    243.68066    -368.8754    216009.12   -18675.614    1417.1396   -20092.754   -982.50113    500.84064    78.697515    22.635534    25.574651 
   86600    243.62779   -472.04517    216009.12   -18549.879    1416.8322   -19966.711    -1459.984    500.99436    78.696432    22.635127     25.55345 
   86800    234.36915   -484.73206    216009.12   -18579.175    1362.9879   -19942.163   -1498.7664    503.10511    78.696129    22.636007    25.527921 
   87000    237.83587    -390.8836    216009.12   -18549.061    1383.1489    -19932.21   -1064.0024     503.0147    78.696919    22.638685      25.5115 
   87200    244.46424   -256.22079    216009.12   -18577.388    1421.6966   -19999.085    -535.1117    500.70033    78.697395    22.642583    25.500981 
   87400     241.1807   -276.24286    216009.12   -18598.517     1402.601   -20001.118    -602.3805    503.01804    78.700308    22.647064    25.505077 
   87600    236.74745   -266.14182    216009.12    -18621.58    1376.8191   -19998.399   -563.39887    505.18221    78.702005    22.648686     25.51723 
   87800    241.57162   -304.28106    216009.12    -18662.13    1404.8744   -20067.005   -772.22104    505.99171    78.704422    22.649388    25.528677 
   88000    238.37541   -329.96632    216009.12    -18632.01    1386.2866   -20018.297   -831.32702     506.6462    78.703305    22.648764    25.541123 
   88200    229.75298   -408.02027    216009.12   -18683.497    1336.1423    -20019.64   -1207.1672    508.53231    78.703203    22.647651    25.566993 
   88400    234.90913   -379.60937    216009.12   -18571.796    1366.1282   -19937.924   -1097.3674    509.48526    78.702855    22.647493    25.545385 
   88600    245.46059   -440.83603    216009.12   -18590.022    1427.4909   -20017.513   -1347.9121    510.01663    78.702227    22.647472    25.545063 
   88800    233.86214   -197.35112    216009.12    -18633.29    1360.0394    -19993.33   -292.57703    511.38694    78.702109    22.644762    25.533042 
   89000    242.24944   -383.87444    216009.12   -18575.155    1408.8163   -19983.971   -1066.5369    511.89917    78.702468    22.642744    25.535153 
   89200      242.998    -329.9507    216009.12   -18552.396    1413.1695   -19965.566   -820.13293    512.03601    78.704184    22.641249    25.569419 
   89400    235.62298   -238.51516    216009.12   -18567.075    1370.2797   -19937.355   -454.45512      513.214    78.703224    22.641373    25.583467 
   89600    229.45998   -346.79676    216009.12   -18679.569    1334.4383   -20014.007   -863.87044    516.36764    78.701932    22.641929    25.602996 
   89800    245.78599   -162.50809    216009.12   -18555.272    1429.3833   -19984.655   -96.535903     516.5204     78.70132    22.641298    25.592063 
   90000     238.0826    -407.5808    216009.12   -18582.926    1384.5838    -19967.51   -1121.3763    517.13362    78.701242    22.641777    25.564914 
   90200    241.17775   -410.68801    216009.12   -18618.741    1402.5838   -20021.324   -1170.4709    515.87726    78.702102    22.643754    25.536443 
   90400    242.03167   -332.13187    216009.12   -18589.608    1407.5498   -19997.158    -855.7034    515.20406    78.703506    22.645845    25.537859 
   90600    243.37802   -386.23794    216009.12   -18586.551    1415.3796   -20001.931   -1077.9414    516.39697    78.704628    22.645959    25.555334 
   90800    236.49025   -516.63174    216009.12   -18602.101    1375.3234   -19977.425   -1634.2193    517.19342    78.703991    22.644414    25.548293 
   91000    241.36719   -265.34045    216009.12    -18633.34    1403.6855   -20037.025   -568.90102    516.26711    78.702185    22.643871    25.552843 
   91200    232.63112   -419.01924    216009.12    -18734.75    1352.8803    -20087.63   -1200.0192    521.84975    78.701854    22.641264    25.538489 
   91400    229.80396   -258.94198    216009.12   -18667.547    1336.4388   -20003.985   -546.47602    519.41201    78.703538    22.640808    25.567351 
   91600      240.846   -429.54715    216009.12   -18556.841    1400.6544   -19957.495   -1319.0584    521.64607    78.703417    22.640241    25.609162 
   91800    245.75133   -493.43765    216009.12   -18604.537    1429.1817   -20033.719   -1488.4325    521.81026    78.704243    22.638222    25.616831 
   92000    242.38157   -318.45463    216009.12   -18608.995    1409.5847    -20018.58   -755.02173    523.27082    78.705076    22.636337    25.609959 
   92200    238.64032   -313.55544    216009.12   -18625.493    1387.8272    -20013.32   -758.90803    524.28706    78.706784    22.634458    25.600066 
   92400    239.38728   -284.39071    216009.12   -18587.964    1392.1712   -19980.135   -650.56499     528.0088     78.70807     22.63404    25.606367 
   92600    247.83201   -258.49295    216009.12   -18563.407     1441.282   -20004.689   -521.85362    527.09979    78.709387      22.6323    25.617711 
   92800    237.13653   -273.76626    216009.12   -18657.313    1379.0818   -20036.394   -605.53878    528.37299     78.70837    22.632157    25.586662 
   93000    234.11067   -172.82472    216009.12   -18662.503    1361.4847   -20023.988   -170.71634    528.31674    78.710723    22.633591    25.602914 
   93200    237.45274   -418.75068    216009.12   -18625.789    1380.9207    -20006.71   -1184.1027    527.54279    78.714913    22.632361    25.586593 
   93400    231.98804   -290.48208    216009.12   -18684.001    1349.1405   -20033.142    -636.6595     526.1003    78.713481    22.633101     25.61291 
   93600    241.03157   -224.37252    216009.12   -18632.196    1401.7337    -20033.93   -343.44258    525.25338    78.713952    22.633299    25.596147 
   93800    239.25082   -134.27027    216009.12   -18596.527    1391.3776   -19987.905    27.414728    526.98887    78.713932    22.633849    25.602874 
   94000    232.26912   -434.30935    216009.12   -18600.225    1350.7751       -19951   -1335.6078    530.75273     78.71438    22.634113    25.632128 
   94200    241.07325   -148.31357    216009.12   -18520.782    1401.9761   -19922.758    -25.11447    532.16026     78.71303    22.635656    25.631543 
   94400    236.64996   -173.90376    216009.12   -18577.342    1376.2521   -19953.594   -154.82379    532.39744    78.714318    22.635235    25.655641 
   94600    234.97571   -398.28784    216009.12   -18617.777    1366.5154   -19984.292   -1137.0469      532.907    78.715915    22.635698    25.656438 
   94800    240.35354   -247.58551    216009.12   -18631.862    1397.7905   -20029.652   -460.71494    532.88672    78.717108    22.637968    25.646526 
   95000    234.53401   -277.41052    216009.12   -18632.562    1363.9467   -19996.509   -592.83403    533.37409    78.717893    22.636075    25.641418 
   95200    236.73742   -470.68094    216009.12   -18621.281    1376.7608   -19998.042   -1449.8325    537.19886    78.718279    22.636135     25.64774 
   95400    241.31903   -282.56523    216009.12   -18648.145    1403.4054    -20051.55   -665.99602    537.73053    78.716751    22.636438    25.641835 
   95600    240.35052   -341.70859    216009.12   -18642.136     1397.773   -20039.909   -889.59812     538.5036    78.716852     22.63623    25.617936 
   95800    237.22924   -307.56225    216009.12   -18575.131     1379.621   -19954.752   -724.44999    537.98572    78.715816    22.633733    25.625919 
   96000    246.35375   -323.39117    216009.12   -18553.496    1432.6851   -19986.181    -820.3767    538.20204    78.716671    22.635816    25.616936 
   96200    238.26365   -302.70828    216009.12   -18546.432    1385.6366   -19932.069   -734.58124    539.06461    78.715126    22.634872    25.602412 
   96400    239.46224   -269.84858    216009.12   -18593.709    1392.6071   -19986.316   -563.49011    539.62249    78.713881    22.635099    25.558415 
   96600    234.60515   -372.83135    216009.12   -18655.944    1364.3604   -20020.305   -1027.4379    542.10358    78.714993    22.635658    25.548808 
   96800    245.16005   -218.13047    216009.12     -18629.9    1425.7431   -20055.643   -324.41769    541.58339     78.71509     22.63655    25.581133 
   97000    237.85427     -375.318    216009.12   -18673.209    1383.2559   -20056.465   -1042.9005    541.16547    78.714641    22.636157    25.563213 
   97200    241.01319    -333.5844    216009.12   -18614.551    1401.6268   -20016.178   -843.23669    544.48133    78.714534     22.63419    25.557766 
   97400    239.56247   -259.08289    216009.12   -18629.475      1393.19   -20022.665   -532.63856     545.1179    78.713042    22.635245    25.577708 
   97600    239.48131   -328.59332    216009.12   -18567.335     1392.718   -19960.053   -828.47734    544.29247     78.70852    22.637182    25.581532 
   97800    240.78816   -303.06981    216009.12   -18595.538    1400.3181   -19995.856   -758.04215    545.79284    78.707708    22.638047    25.569171 
   98000    240.10145   -375.68196    216009.12   -18635.448    1396.3245   -20031.773   -1000.3456    545.64906    78.707434    22.637797    25.562525 
   98200    236.22712   -279.02076    216009.12   -18672.583    1373.7931   -20046.376     -606.906    545.47902    78.705448    22.640565    25.583726 
   98400    243.33348   -366.98324    216009.12   -18631.234    1415.1205   -20046.355   -977.38506    546.31114    78.703025    22.640832    25.566598 
   98600    240.26996   -336.85149    216009.12   -18652.145    1397.3045   -20049.449   -854.61196    546.64978    78.701442    22.641637    25.565689 
   98800     240.2695   -233.57161    216009.12   -18582.551    1397.3018   -19979.853    -456.6145    550.08204    78.700313    22.644784    25.580157 
   99000    239.92418   -443.91799    216009.12   -18629.823    1395.2936   -20025.116   -1342.6662    552.34672    78.697527    22.644865    25.566084 
   99200    239.92735   -334.56864    216009.12   -18635.866     1395.312   -20031.178   -858.64431    550.58136    78.696337    22.644979    25.565067 
   99400    230.96421   -242.86269    216009.12   -18657.201    1343.1863   -20000.387   -477.45503    553.38038    78.693017    22.644788    25.561116 
   99600     236.7246   -222.35709    216009.12   -18598.509    1376.6862   -19975.195   -326.81805    553.50787     78.69017    22.644676    25.579969 
   99800    239.93801   -250.54771    216009.12   -18628.159     1395.374   -20023.533   -470.96581    555.37902    78.690252    22.645315    25.595661 
  100000     241.5127   -177.98361    216009.12   -18634.479    1404.5317   -20039.011    -176.6045    554.55932    78.689731    22.645124    25.583257 
  100200     239.2948   -306.48207    216009.12   -18703.235    1391.6334   -20094.869   -718.50217    558.34701    78.690446    22.645074    25.575792 
  100400    243.68059   -281.52571    216009.12   -18660.347    1417.1392   -20077.486   -593.82504    557.45834    78.691194    22.646242    25.602066 
  100600    235.95419   -425.67734    216009.12   -18648.291    1372.2058   -20020.497   -1212.2933    560.74733    78.691173    22.644669    25.596501 
  100800    237.76329   -366.46943    216009.12   -18705.647    1382.7268   -20088.373   -1027.7851    560.57861    78.689493     22.64453    25.575066 
[...]
 5175800    220.65355   -642.44031    216009.12   -20612.783    1283.2241   -21896.007   -2115.7343    5861.3514    79.350326    23.361111    25.450306 
 5176000    222.16563   -727.53829    216009.12   -20606.167    1292.0176   -21898.184   -2480.6525    5859.4079    79.349688     23.36004    25.447236 
 5176200    227.85262   -715.48593    216009.12   -20622.219    1325.0907   -21947.309   -2445.9522    5860.2457    79.348546    23.359428    25.447821 
 5176400    225.63478   -614.93118    216009.12   -20646.558    1312.1927   -21958.751   -1972.7401    5859.1083    79.347678    23.356982    25.439108 
 5176600    223.93614   -646.77883    216009.12   -20602.045    1302.3142    -21904.36   -2101.7469    5857.9798    79.346765    23.355771    25.436226 
 5176800    228.80702   -605.54293    216009.12   -20576.509     1330.641    -21907.15   -1908.1029    5861.1499    79.347477    23.354565    25.438418 
 5177000    234.83397   -621.41661    216009.12   -20571.382    1365.6911   -21937.073   -2008.5199    5858.9955    79.346899    23.353641    25.439254 
 5177200    219.79779   -699.51999    216009.12   -20580.663    1278.2473   -21858.911    -2331.904    5860.3195    79.346414    23.353591    25.438899 
 5177400    230.69371    -646.5353    216009.12   -20608.645    1341.6132   -21950.258   -2124.1017    5859.2896    79.346225     23.35229    25.438322 
 5177600    234.01559   -615.12867    216009.12   -20544.396    1360.9318   -21905.327   -2010.2001    5861.4638     79.34542    23.353894    25.446807 
 5177800    224.49167   -720.63674    216009.12   -20584.677    1305.5449   -21890.222   -2448.0864    5860.2079    79.345167    23.353243     25.44755 
 5178000    233.17011   -661.05053    216009.12   -20606.773    1356.0148   -21962.788   -2158.2623     5860.658    79.344414    23.352122    25.442638 
 5178200    223.62207   -608.61311    216009.12   -20606.668    1300.4877   -21907.156   -1952.9772     5858.873    79.344192    23.351628    25.442271 
 5178400    223.11151   -668.81464    216009.12   -20619.634    1297.5185   -21917.153   -2207.8557     5859.684    79.344525    23.350707    25.444812 
 5178600    228.11083   -728.51049    216009.12   -20610.979    1326.5923   -21937.572   -2461.9698    5862.1709    79.344688    23.350605    25.436001 
 5178800    229.22805   -570.70168    216009.12   -20565.451    1333.0896   -21898.541   -1804.3764    5860.3307    79.345606    23.349578    25.433726 
 5179000    226.42918   -659.07703    216009.12   -20588.049    1316.8126   -21904.861   -2141.2041    5860.7575    79.345844    23.348162    25.426548 
 5179200     232.9071   -756.50913    216009.12   -20570.774    1354.4853   -21925.259   -2605.5958    5860.6062    79.346795    23.347682    25.429792 
 5179400    225.81533    -529.6222    216009.12   -20635.069    1313.2427   -21948.312   -1570.2808    5861.4732    79.346812    23.346179     25.42745 
 5179600    231.20085   -669.81898    216009.12   -20521.583    1344.5625   -21866.146   -2204.3696     5863.266    79.346316    23.344125    25.430661 
 5179800    229.62142   -738.98395    216009.12   -20576.276    1335.3773   -21911.653    -2561.345    5861.5805    79.346755    23.343725    25.438117 
 5180000    227.25794   -617.67197    216009.12   -20602.873    1321.6323   -21924.505   -1994.7409     5859.542    79.346778    23.341448    25.435412 
 5180200    221.06697   -699.01876    216009.12   -20663.564    1285.6283   -21949.192   -2366.3349    5862.1509       79.348    23.339419    25.436908 
 5180400    224.14353   -654.22433    216009.12   -20635.084    1303.5202   -21938.604   -2126.7845    5860.7036    79.347704    23.337819    25.436271 
 5180600    226.98606   -630.39539    216009.12   -20577.818    1320.0512   -21897.869   -2020.5837    5860.3634    79.348549    23.336549    25.434185 
 5180800    226.05899   -644.29529    216009.12   -20559.354    1314.6597   -21874.014   -2059.5649    5862.0884    79.348798     23.33599    25.434261 
 5181000    226.17404   -661.62129    216009.12    -20603.97    1315.3288   -21919.299   -2136.1784    5859.9627    79.348401    23.335514    25.433803 
 5181200    223.24739   -659.67241    216009.12   -20610.053    1298.3087   -21908.362   -2208.9155    5860.9271    79.347529    23.335465    25.431468 
 5181400    222.72793   -652.73444    216009.12   -20644.835    1295.2877   -21940.123   -2175.4812    5860.6499    79.347518    23.336177    25.432514 
 5181600    222.64957   -732.12527    216009.12   -20578.714     1294.832   -21873.546   -2502.2716    5860.2055    79.347285    23.335777    25.435205 
 5181800    221.40678    -605.6778    216009.12   -20659.428    1287.6045   -21947.032   -1929.2345    5859.4878    79.347519    23.335928    25.430769 
 5182000    230.69649   -592.77954    216009.12   -20575.317    1341.6294   -21916.947     -1867.97    5859.1767    79.347814    23.337221    25.434877 
 5182200    233.20377   -693.88868    216009.12   -20575.044    1356.2106   -21931.254   -2338.8257    5860.6615    79.347695    23.334823    25.428364 
 5182400      229.227   -640.09808    216009.12   -20559.958    1333.0835   -21893.041   -2099.0148    5860.4016    79.349112    23.334775    25.435439 
 5182600    221.73969   -571.78826    216009.12    -20651.36    1289.5405   -21940.901   -1815.5653    5859.9552    79.349366     23.33407    25.439445 
 5182800    228.58941   -669.97666    216009.12   -20589.991    1329.3755   -21919.366   -2206.9786      5860.14    79.349034      23.3328    25.437701 
 5183000    227.33754   -683.59654    216009.12   -20581.127    1322.0952   -21903.222   -2269.7117    5858.6426    79.349271    23.331408    25.442342 
 5183200    232.31178   -625.42786    216009.12   -20538.199    1351.0232   -21889.222   -2012.6395    5860.0514    79.350126    23.330672    25.433812 
 5183400    227.91467    -722.7393    216009.12   -20543.008    1325.4515   -21868.459   -2451.6818    5858.7532    79.350954    23.330523    25.441165 
 5183600    225.80083    -635.9221    216009.12   -20619.877    1313.1584   -21933.036   -2062.6534    5859.3071    79.349241     23.32944    25.441531 
 5183800     223.2667    -596.1829    216009.12   -20648.682     1298.421   -21947.103   -1881.2063    5860.9145    79.351047    23.327247    25.442705 
 5184000    223.18388    -663.1127    216009.12   -20651.799    1297.9393   -21949.739   -2139.0024    5860.5141    79.351013    23.326912    25.438374 
 5184200    226.71594   -699.82214    216009.12   -20538.032    1318.4802   -21856.513   -2352.3309    5857.6473    79.351632     23.32493    25.434819 
 5184400    226.82583   -623.55326    216009.12   -20599.589    1319.1193   -21918.709   -2030.3315    5860.9636    79.352288    23.323638    25.439272 
 5184600    230.38053   -703.22872    216009.12   -20534.288    1339.7919   -21874.079   -2383.8184    5860.9795    79.353628    23.323082    25.435185 
 5184800    223.34361   -688.35755    216009.12   -20583.759    1298.8682   -21882.628   -2333.4487    5858.5196    79.354353    23.322729     25.43006 
 5185000    224.54173   -584.07904    216009.12   -20594.398     1305.836   -21900.234   -1868.1534    5860.8928    79.355058    23.323562    25.436594 
 5185200    228.10949    -682.4012    216009.12   -20582.899    1326.5845   -21909.483   -2263.2316    5862.5647    79.356585    23.322556     25.43529 
 5185400    227.89926   -703.96553    216009.12   -20630.792    1325.3619   -21956.154   -2355.4119    5860.7107    79.355981    23.321312    25.438402 
 5185600    226.61994   -524.19507    216009.12   -20592.889     1317.922   -21910.811   -1609.0279    5858.2871    79.356318    23.320421     25.44001 
 5185800    224.08915   -672.02976    216009.12   -20597.912     1303.204   -21901.116   -2212.1538    5863.5652    79.356329    23.320714    25.445601 
 5186000    226.21758   -690.24685    216009.12   -20560.993     1315.582   -21876.575   -2269.9903    5860.2015    79.356507    23.320906    25.443821 
 5186200    228.87334   -621.71003    216009.12   -20572.059    1331.0267   -21903.085   -2015.8209    5858.4438    79.356089    23.321034    25.448796 
 5186400    225.11445   -638.98227    216009.12   -20585.712    1309.1667   -21894.879   -2057.5015    5860.3528    79.355111    23.320146    25.442181 
 5186600    229.44097   -731.34528    216009.12   -20583.102    1334.3278   -21917.429   -2470.7441    5860.8131    79.355701    23.320365    25.445078 
 5186800    222.86441    -613.1123    216009.12   -20580.998    1296.0814   -21877.079   -1990.5885    5859.0302    79.354159    23.320795    25.442521 
 5187000     226.9066   -649.01738    216009.12   -20601.518     1319.589   -21921.107   -2119.7645    5859.6164    79.353668    23.319841    25.436464 
 5187200    229.94241   -689.70676    216009.12   -20568.805     1337.244   -21906.049   -2275.7543    5861.3298    79.352558    23.320074    25.440616 
 5187400    229.16036   -526.86295    216009.12   -20570.066    1332.6959   -21902.762   -1612.7358    5858.7034    79.353048    23.321466    25.444511 
 5187600    226.62543   -662.62297    216009.12   -20605.767    1317.9539   -21923.721   -2181.8152    5860.8378    79.353461    23.320963    25.432587 
 5187800    229.59497   -774.13311    216009.12   -20568.282    1335.2234   -21903.506   -2655.3871    5860.7397    79.354288    23.319123    25.435319 
 5188000    229.47612   -596.08878    216009.12   -20597.038    1334.5322    -21931.57   -1872.3064    5858.7962    79.354178    23.318196    25.432871 
 5188200     227.1054   -602.78713    216009.12   -20546.579    1320.7452   -21867.325   -1943.2765    5860.7295    79.354855    23.317267    25.432026 
 5188400    231.17251   -701.36029    216009.12   -20574.817    1344.3977   -21919.215   -2364.2816    5860.0708    79.355878    23.317471    25.436543 
 5188600    223.98676   -560.58666    216009.12   -20575.954    1302.6086   -21878.562   -1758.6161    5858.1144    79.357128    23.316831    25.435283 
 5188800    223.93574   -668.32152    216009.12   -20633.949    1302.3118    -21936.26   -2252.1509    5860.7586    79.356916    23.315248    25.437903 
 5189000    228.17498    -708.0182    216009.12    -20622.08    1326.9654   -21949.045    -2369.194    5861.3248     79.35635    23.315151    25.439499 
 5189200    224.89291   -612.92809    216009.12   -20611.756    1307.8783   -21919.634   -1960.5266    5858.5562    79.356822    23.315645    25.438037 
 5189400    218.61822   -636.20899    216009.12   -20672.915    1271.3875   -21944.302   -2041.5271    5862.3068    79.355503    23.314837    25.442135 
 5189600    227.17253   -696.41759    216009.12   -20626.037    1321.1356   -21947.172   -2340.0734    5860.8343    79.354535    23.314168    25.441478 
 5189800     231.5011    -580.7589    216009.12   -20582.368    1346.3086   -21928.677   -1809.5731    5857.5005    79.354773    23.313525    25.448207 
 5190000    229.94549   -686.39721    216009.12   -20620.482    1337.2619   -21957.744   -2305.0979    5861.9404    79.354578    23.312272    25.445943 
 5190200    226.64245   -732.70463    216009.12   -20592.001    1318.0529   -21910.054   -2499.9864     5861.834    79.353093     23.31133    25.442996 
 5190400     222.2128   -668.54122    216009.12   -20612.203     1292.292   -21904.495   -2243.2071    5860.4066    79.352814    23.310222    25.440361 
 5190600    237.16202   -616.88624    216009.12   -20540.658    1379.2301   -21919.888   -2010.0206    5864.2753    79.352647    23.311043    25.439879 
 5190800    221.21918   -731.49428    216009.12   -20612.684    1286.5135   -21899.197   -2482.9673    5862.5456    79.353577     23.31078    25.438802 
 5191000    225.09929   -635.41088    216009.12   -20596.052    1309.0785    -21905.13   -2055.5999    5858.8373    79.353452    23.310726    25.445669 
 5191200    224.29833   -630.70609    216009.12   -20577.293    1304.4205   -21881.713   -2105.0629    5860.6264    79.353318    23.312031    25.445647 
 5191400     225.2923   -650.83746    216009.12   -20616.109     1310.201    -21926.31   -2115.9552    5864.0341     79.35323    23.310588     25.44463 
 5191600    223.41166   -676.42264    216009.12   -20634.342     1299.264   -21933.606    -2241.684    5860.8512    79.354055    23.310395    25.441816 
 5191800    217.83643   -565.60287    216009.12   -20630.721    1266.8409   -21897.562   -1749.0237    5861.4998    79.353581    23.311142    25.438615 
 5192000    232.78958   -654.72604    216009.12   -20580.459    1353.8019   -21934.261    -2139.585    5863.6277      79.3525    23.311337     25.44264 
 5192200    227.47666   -627.87572    216009.12   -20552.364    1322.9042   -21875.269   -2030.8338    5861.7823    79.352027    23.312213    25.440409 
 5192400    230.66374   -586.80711    216009.12   -20625.447    1341.4389   -21966.886   -1872.0601    5859.0882    79.351014    23.313242    25.436613 
 5192600    231.37006   -625.62473    216009.12   -20609.396    1345.5466   -21954.942    -2001.491    5863.8247    79.350404    23.311982    25.441133 
 5192800    226.28414   -649.96348    216009.12   -20627.535    1315.9691   -21943.504   -2134.4293    5860.1536    79.351252    23.311456     25.44245 
 5193000    222.45951   -670.13943    216009.12    -20595.52    1293.7267   -21889.246   -2212.0287    5862.1585    79.350903    23.311813    25.437956 
 5193200    223.70108   -752.24407    216009.12   -20655.413    1300.9472    -21956.36   -2588.3375    5861.7134    79.350744    23.310445    25.435717 
 5193400    225.35484    -656.7499    216009.12   -20576.942    1310.5647   -21887.507   -2156.3255    5860.3258    79.349336    23.311543    25.445867 
 5193600     228.7247   -621.62104    216009.12   -20609.783    1330.1623   -21939.946   -2006.9923    5860.2844    79.349025    23.312116    25.442364 
 5193800    226.17532    -760.2422    216009.12   -20601.274    1315.3363   -21916.611   -2626.3351     5863.637    79.347863    23.311505    25.443492 
 5194000    225.81625   -666.95462    216009.12   -20591.527     1313.248   -21904.775   -2153.0072    5859.2541    79.348045    23.311497    25.442743 
 5194200    222.37301   -634.33981    216009.12   -20667.615    1293.2237   -21960.838    -2058.485    5859.2323    79.347089     23.31189    25.437876 
 5194400    220.97477   -758.30715    216009.12   -20639.053    1285.0921   -21924.146   -2596.6353    5864.1436    79.347283    23.312769    25.443582 
 5194600     219.9098   -801.92967    216009.12   -20604.516    1278.8987   -21883.415     -2821.75    5862.3316     79.34757    23.313716    25.444959 
 5194800    230.03618   -615.43162    216009.12   -20562.319    1337.7893   -21900.109   -1991.8293    5859.6794    79.347063    23.314357    25.441628 
 5195000     225.7012   -669.59226    216009.12   -20609.706    1312.5789   -21922.285   -2223.7246    5864.0935    79.345274     23.31396    25.442147 
 5195200    229.27262   -668.71649    216009.12   -20542.771    1333.3488   -21876.119   -2217.0208    5862.3795    79.344469    23.312926    25.443479 
 5195400    227.03102   -594.86373    216009.12   -20603.736    1320.3126   -21924.049   -1927.1078    5858.9518     79.34354    23.313845     25.44509 
 5195600    224.55502   -626.48997    216009.12   -20564.601    1305.9133   -21870.514   -2022.9894    5864.6511    79.344082    23.313077    25.445501 
 5195800    227.84502   -683.67662    216009.12   -20631.643    1325.0465    -21956.69   -2256.0111    5862.8915    79.344989    23.311762    25.446625 
 5196000    230.75053   -559.92385    216009.12   -20540.783    1341.9436   -21882.727   -1714.9832    5858.4739    79.345708    23.311505    25.451398 
 5196200    224.36926   -617.90831    216009.12   -20573.384     1304.833   -21878.217   -2006.2205    5862.3886    79.345289    23.311835    25.447556 
 5196400    226.07846   -716.43962    216009.12   -20627.849    1314.7729   -21942.622   -2420.3054    5862.8218     79.34442    23.311156    25.440165 
 5196600    224.23159   -543.30311    216009.12   -20595.043    1304.0324   -21899.076   -1666.9139     5857.666     79.34393    23.311277    25.440849 
 5196800    234.03362   -647.57265    216009.12    -20607.83    1361.0366   -21968.867   -2117.4841    5863.7986     79.34358    23.310653    25.449178 
 5197000    230.33252   -776.77003    216009.12   -20599.194    1339.5127   -21938.707   -2688.2578    5864.4686    79.343904    23.309079    25.444374 
 5197200    233.59885    -568.9903    216009.12   -20578.536    1358.5082   -21937.044   -1800.4653    5859.5408    79.344067    23.307181    25.442787 
 5197400    227.24199   -625.70196    216009.12   -20636.623    1321.5395   -21958.163   -2011.5465    5862.8938    79.345179    23.306184    25.449128 
 5197600    225.72983   -763.10401    216009.12   -20640.684    1312.7454    -21953.43   -2653.0854    5864.5377    79.346034    23.305813    25.449117 
 5197800    225.16353   -602.27636    216009.12   -20662.161    1309.4521   -21971.613   -1955.4427     5859.374    79.345263    23.304851    25.448097 
 5198000     225.4882   -601.72413    216009.12   -20703.873    1311.3403   -22015.214   -1909.0583    5860.9653    79.345954    23.305296    25.448116 
 5198200    228.07057    -750.7249    216009.12   -20598.557    1326.3582   -21924.916   -2577.6842    5865.1355    79.346095    23.305105    25.453574 
 5198400    228.49017    -689.3206    216009.12    -20599.69    1328.7984   -21928.488   -2286.6761     5860.876    79.345972    23.306372    25.451583 
 5198600    227.90012   -660.07049    216009.12    -20617.91    1325.3669   -21943.277   -2194.1734    5862.5715    79.346461    23.305763    25.450675 
 5198800    219.54245    -745.3677    216009.12   -20684.272    1276.7624   -21961.034   -2554.5029    5865.4019     79.34749    23.305618    25.448606 
 5199000    222.06117   -630.36369    216009.12   -20642.755    1291.4101   -21934.165   -2073.1736    5861.8844    79.347122    23.306191    25.450177 
 5199200     231.0938   -573.73051    216009.12   -20544.441    1343.9399   -21888.381   -1833.2451    5862.0044    79.347786    23.306444    25.448692 
 5199400    224.21425   -720.06731    216009.12   -20659.118    1303.9315    -21963.05   -2412.9336    5864.5794     79.34834    23.308002    25.448798 
 5199600    220.84427   -657.06608    216009.12   -20644.214    1284.3332   -21928.547    -2159.315    5859.7274    79.349394    23.308468    25.452748 
 5199800    226.09207   -581.13847    216009.12   -20616.311    1314.8521   -21931.164   -1859.6195    5860.6764    79.350537    23.309465    25.450128 
 5200000    226.74428   -631.28693    216009.12    -20623.04     1318.645   -21941.685   -2047.7084    5862.9841     79.35037    23.310726    25.453247 
Loop time of 6810.27 on 160 procs for 5200000 steps with 9248 atoms

Performance: 659.710 ns/day, 0.036 hours/ns, 763.553 timesteps/s
97.7% CPU use with 160 MPI tasks x no OpenMP threads

MPI task timing breakdown:
Section |  min time  |  avg time  |  max time  |%varavg| %total
---------------------------------------------------------------
Pair    | 0.24677    | 1376.2     | 5457.5     |5019.0 | 20.21
Neigh   | 0.30671    | 88.058     | 337.26     |1217.9 |  1.29
Comm    | 11.059     | 1741.5     | 5536.7     |4460.7 | 25.57
Output  | 89.503     | 89.573     | 91.46      |   1.6 |  1.32
Modify  | 194.33     | 3420.8     | 6623.7     |4668.1 | 50.23
Other   |            | 94.12      |            |       |  1.38

Nlocal:    57.8 ave 196 max 0 min
Histogram: 72 19 29 0 0 0 0 0 13 27
Nghost:    532.525 ave 911 max 0 min
Histogram: 21 3 0 8 8 32 37 15 23 13
Neighs:    0 ave 0 max 0 min
Histogram: 160 0 0 0 0 0 0 0 0 0
FullNghs:  5853.16 ave 23594 max 0 min
Histogram: 109 11 0 0 0 0 0 1 21 18

Total # of neighbors = 936506
Ave neighs/atom = 101.266
Neighbor list builds = 536746
Dangerous builds = 0
write_data 		${DIR}/data.${NAME}_run
write_data 		run_26/data.${NAME}_run
write_data 		run_26/data.ibeam_cooling_26_run
Total wall time: 1:53:45
