
# Set production fixes - Nose/Hoover
#
fix                 4 water temp/csvr ${START_TEMP} ${END_TEMP} 500.0 928347
fix                 4 water temp/csvr 240 ${END_TEMP} 500.0 928347
fix                 4 water temp/csvr 240 227 500.0 928347


## divide "droplet" into core and surface
#region		core_reg cylinder z 135 135 44.6 20 INF units box
#region		surface_reg cylinder z 135 135 44.6 20 INF units box side out
#group		core dynamic all region core_reg
#group		surface dynamic all region surface_reg

## compute pressure core
#compute        peratom_core core stress/atom NULL
#compute        p_core core reduce sum c_peratom_core[1] c_peratom_core[2] c_peratom_core[3]
#variable       press_core equal -(c_p_core[1]+c_p_core[2]+c_p_core[3])/(3*1249982.5)


## compute pressure surface
#compute        peratom_surf surface stress/atom NULL
#compute        p_surf surface reduce sum c_peratom_surf[1] c_peratom_surf[2] #c_peratom_surf[3]
#variable       press_surf equal -(c_p_surf[1]+c_p_surf[2]+c_p_surf[3])/(3*42395)

## compute total pressure of drop
compute        peratom water stress/atom NULL
compute        p water reduce sum c_peratom[1] c_peratom[2] c_peratom[3]
variable       press equal -(c_p[1]+c_p[2]+c_p[3])/(3*50320)


# compute order parameter
compute        3 all orientorder/atom nnn NULL cutoff 3.5

# compute center of mass of bridge
compute 	4 water com

# Run simulation
thermo_style        custom step c_2 press vol etotal ke pe v_press c_1[4] c_4[*]
thermo              200
dump		     1 water custom 400 ${DIR}/prod.${NAME}.dump id type x y z vx vy vz c_3[*] c_peratom[*]
dump		     1 water custom 400 run_30/prod.${NAME}.dump id type x y z vx vy vz c_3[*] c_peratom[*]
dump		     1 water custom 400 run_30/prod.ibeam_cooling_30.dump id type x y z vx vy vz c_3[*] c_peratom[*]
run                 ${STEPS}
run                 5200000
Neighbor list info ...
  update every 1 steps, delay 0 steps, check yes
  max neighbors/atom: 2000, page size: 100000
  master list distance cutoff = 6.67472
  ghost atom cutoff = 6.67472
  binsize = 3.33736, bins = 48 13 11
  2 neighbor lists, perpetual/occasional/extra = 1 1 0
  (1) pair sw, perpetual
      attributes: full, newton on
      pair build: full/bin/atomonly
      stencil: full/bin/3d
      bin: standard
  (2) compute orientorder/atom, occasional, copy from (1)
      attributes: full, newton on
      pair build: copy
      stencil: none
      bin: none
Per MPI rank memory allocation (min/avg/max) = 0.8534 | 5.954 | 7.143 Mbytes
Step c_2 Press Volume TotEng KinEng PotEng v_press c_1[4] c_4[1] c_4[2] c_4[3] 
       0    237.63571   -267.90525    216009.12   -18646.344    1381.9848   -20028.328   -612.96935    31.742164    78.746179    22.598839    25.557728 
     200    242.18443   -141.96469    216009.12   -18661.419    1408.4382   -20069.857    23.433125    34.149048    78.747026    22.597929    25.559343 
     400    236.42669   -417.78174    216009.12   -18644.765    1374.9537   -20019.719   -1230.6132    35.624416    78.748638     22.59914    25.571186 
     600    242.67308   -229.86815    216009.12   -18539.017    1411.2799   -19950.297   -477.09314    37.402476    78.749623    22.600186     25.58447 
     800    236.67798   -282.53756    216009.12    -18528.29    1376.4151   -19904.705    -610.3173    38.100858    78.750149    22.601196    25.593503 
    1000    235.63259   -392.29295    216009.12   -18624.984    1370.3356   -19995.319   -1102.8776    39.666015    78.750396    22.601502    25.604715 
    1200    240.21279   -168.71059    216009.12   -18581.673     1396.972   -19978.645    -180.9425      41.2041    78.750581    22.603599     25.58929 
    1400    239.01421   -293.51099    216009.12   -18578.615    1390.0016   -19968.616   -665.76391    42.833013    78.750609    22.604591      25.6002 
    1600    242.24324   -346.22557    216009.12   -18591.532    1408.7802   -20000.312   -909.32384    44.000059    78.749136    22.606869    25.602973 
    1800    243.15001   -250.55865    216009.12   -18569.735    1414.0536   -19983.789   -494.05444    44.242513    78.747479    22.606941    25.587583 
    2000    248.84698   -222.30662    216009.12   -18535.069    1447.1846   -19982.253   -368.08862    45.626789    78.747856    22.609415    25.593074 
    2200    240.18484   -237.03919    216009.12   -18616.697    1396.8094   -20013.506   -437.55789    46.070521    78.748826    22.609193     25.59286 
    2400    251.23494   -258.92673    216009.12   -18596.755     1461.072   -20057.827    -580.6633     46.43677    78.750232    22.609148    25.604471 
    2600    240.80603   -284.74021    216009.12   -18666.333     1400.422   -20066.755   -630.15974    47.652152    78.752252    22.608216    25.631649 
    2800    251.06147   -332.84306    216009.12   -18581.172    1460.0632   -20041.235   -873.81316    47.985353    78.751988    22.607319    25.631164 
    3000    247.82694   -273.84614    216009.12   -18629.199    1441.2526   -20070.452   -598.05081    50.143327    78.752207    22.607989    25.610112 
    3200    245.18954   -396.42466    216009.12   -18708.626    1425.9146   -20134.541   -1127.8097    53.675846     78.75454    22.610492    25.614915 
    3400     240.7596   -306.59239    216009.12   -18707.593     1400.152   -20107.745   -737.61962     55.72939    78.752676     22.60923    25.600138 
    3600    242.24892   -304.96908    216009.12   -18673.184    1408.8132   -20081.997   -717.38367    56.078581    78.753929    22.610731     25.60807 
    3800    239.08878      -424.63    216009.12   -18628.822    1390.4352   -20019.257   -1226.9805    56.785169     78.75341    22.610027    25.592886 
    4000    238.24765   -430.87322    216009.12    -18665.88    1385.5436   -20051.424   -1253.0605    58.600668    78.753105    22.609325    25.590574 
    4200    234.97039    -480.8951    216009.12     -18620.8    1366.4845   -19987.284   -1484.0893    60.663984    78.756481    22.609304    25.585052 
    4400    230.60369   -430.73174    216009.12   -18649.846    1341.0897   -19990.936   -1218.3254    61.914668    78.757719    22.609336    25.583571 
    4600    231.91084   -324.78905    216009.12   -18759.226    1348.6915   -20107.918   -817.78212     63.21178    78.758173    22.609468    25.554605 
    4800    243.43336   -394.18495    216009.12   -18622.198    1415.7014     -20037.9   -1145.4352    64.651248    78.757847    22.609371    25.539418 
    5000    239.63061   -521.70785    216009.12   -18676.278    1393.5863   -20069.865   -1689.9981    66.671309    78.757249    22.608464    25.547012 
    5200    236.19063   -282.79481    216009.12   -18680.842    1373.5808   -20054.423   -602.37318    66.602873     78.75733    22.608256     25.57118 
    5400    240.69894   -395.81793    216009.12   -18663.068    1399.7992   -20062.867    -1158.607    68.224074    78.758132    22.607253    25.577418 
    5600    236.01938   -379.50783    216009.12   -18677.692     1372.585   -20050.277   -1072.3964    69.842257     78.75578    22.607709    25.561768 
    5800    244.57413   -183.02261    216009.12   -18625.288    1422.3356   -20047.623    -221.8234    70.716474     78.75567    22.609314    25.558623 
    6000    240.35379   -211.04989    216009.12   -18641.426     1397.792   -20039.218   -347.94132    71.934149    78.756162    22.610566    25.565853 
    6200    241.57799   -426.59869    216009.12   -18632.124    1404.9114   -20037.035   -1252.4293    72.821266    78.757173    22.608496    25.553648 
    6400    237.88533   -255.11575    216009.12   -18611.023    1383.4365    -19994.46   -507.06002    73.673479    78.758946    22.610776    25.565968 
    6600    234.87333   -286.75576    216009.12   -18661.844      1365.92   -20027.764     -638.585    76.290661    78.759238    22.610316    25.551748 
    6800    241.51703   -208.21642    216009.12   -18646.834    1404.5569   -20051.391   -365.48194    78.554786    78.759004    22.609307    25.534873 
    7000     243.0501   -303.52442    216009.12   -18615.424    1413.4725   -20028.896   -742.43453    79.144912    78.758603    22.609782    25.517471 
    7200    235.58577   -290.67108    216009.12   -18683.866    1370.0633   -20053.929   -664.88282    81.061689    78.758168    22.610898     25.49737 
    7400    241.29549   -352.62128    216009.12   -18624.943    1403.2685   -20028.211   -993.04197    83.038671    78.759121    22.610267    25.505128 
    7600    242.86426   -273.42482    216009.12   -18576.861    1412.3918   -19989.253   -599.33323    85.177671    78.760136    22.609288    25.509059 
    7800    230.15153   -254.91533    216009.12   -18676.501    1338.4601   -20014.961   -487.61462    86.027079    78.762478    22.608331    25.525518 
    8000    242.86532   -415.45938    216009.12   -18555.927    1412.3979   -19968.325   -1256.3212    86.997924    78.764187    22.608394    25.538718 
    8200    243.88588   -260.35088    216009.12   -18586.416    1418.3331   -20004.749   -578.70319    87.362976    78.767024     22.60905    25.538694 
    8400    242.93707   -149.99655    216009.12   -18555.937    1412.8152   -19968.752   -97.726542    88.187142     78.76731    22.609068    25.540772 
    8600    240.57746   -306.75487    216009.12   -18625.471    1399.0928   -20024.564    -715.7026    90.332102    78.767005    22.609563    25.532452 
    8800    241.56695   -327.08154    216009.12   -18642.143    1404.8472    -20046.99   -814.45849    90.035036    78.766713    22.611167    25.514942 
    9000    234.27004   -306.52554    216009.12   -18648.031    1362.4116   -20010.443   -741.64828    90.999038    78.769181    22.608639    25.513833 
    9200    237.19417   -347.02169    216009.12   -18609.344     1379.417   -19988.761   -935.02871    92.839226    78.768434    22.608705    25.503564 
    9400    239.40861   -259.22365    216009.12   -18628.175    1392.2952    -20020.47   -476.70115    93.357708    78.765631    22.608478    25.517726 
    9600    242.92585   -284.02406    216009.12   -18670.985    1412.7499   -20083.735   -627.74952    93.791311    78.767549    22.609343    25.511928 
    9800    243.00609   -435.53863    216009.12   -18594.742    1413.2166   -20007.958   -1262.6043    95.263094    78.767077     22.60592    25.486112 
   10000    238.55652   -241.49468    216009.12   -18631.174    1387.3398   -20018.514   -455.95681    95.945572    78.765455    22.606353    25.496935 
   10200    243.93289   -415.26745    216009.12   -18544.374    1418.6065    -19962.98   -1172.9518    96.722984    78.765412    22.606066    25.504069 
   10400     241.3304   -342.17602    216009.12   -18532.533    1403.4715   -19936.005   -894.54129    97.473092    78.765918    22.603542    25.507506 
   10600    234.04289   -286.34173    216009.12   -18609.304    1361.0906   -19970.395    -640.1146    99.612661     78.76552     22.60386    25.517546 
   10800    234.47212   -172.41595    216009.12   -18658.875    1363.5868   -20022.461   -170.58594    101.48209     78.76353    22.604392    25.512897 
   11000    235.55434   -262.58755    216009.12     -18668.9    1369.8805   -20038.781   -533.96317    102.46896    78.762444    22.602844    25.507591 
   11200    239.97865   -363.04374    216009.12    -18653.77    1395.6103   -20049.381   -957.85648    103.68798    78.762846    22.601906    25.503801 
   11400     246.8855   -104.10804    216009.12   -18649.712    1435.7775    -20085.49    171.34188    103.79116    78.763165    22.602452    25.518166 
   11600    239.19117   -423.90392    216009.12   -18591.275    1391.0307   -19982.306    -1216.923    105.44638    78.765132    22.602061    25.486885 
   11800    238.93935   -245.78744    216009.12   -18595.563    1389.5662    -19985.13   -409.67522     106.1759    78.764929    22.601926     25.47685 
   12000    241.17276   -234.81871    216009.12   -18590.533    1402.5548   -19993.088   -375.13407    106.45515    78.764281    22.601548    25.464504 
   12200    239.59306   -240.21794    216009.12   -18609.374    1393.3679   -20002.742    -477.7817    108.01279    78.764419    22.600994    25.482261 
   12400    237.74898    -389.4036    216009.12   -18628.748    1382.6436   -20011.392   -1062.6176    109.66859    78.765285    22.600427     25.47902 
   12600    245.36682   -352.00502    216009.12   -18558.567    1426.9455   -19985.512   -953.46144    110.68921    78.766247    22.600648    25.485145 
   12800    240.91975   -342.00731    216009.12   -18592.798    1401.0834   -19993.881   -850.07231    111.10136    78.769316    22.600827    25.485428 
   13000    242.50611   -400.13937    216009.12   -18645.747     1410.309   -20056.056   -1085.4866     112.8918     78.77098    22.600892    25.483023 
   13200    237.08014   -399.56526    216009.12   -18657.768    1378.7539   -20036.522   -1129.9679    113.85381    78.771939    22.599339    25.482252 
   13400    231.98735   -338.49897    216009.12   -18736.997    1349.1364   -20086.133   -855.58513    113.94957     78.77232    22.600637    25.487569 
   13600     234.5973   -352.84002    216009.12   -18695.416    1364.3148   -20059.731   -958.21766    114.97704    78.773314    22.597822    25.461797 
   13800     244.6566    -293.8476    216009.12   -18618.097    1422.8152   -20040.913   -637.32924    116.37644    78.775648    22.595437    25.457677 
   14000    241.27185   -315.62317    216009.12   -18584.131     1403.131   -19987.262   -804.51142    116.82816    78.776149    22.591563    25.479229 
   14200    243.58722   -312.62728    216009.12   -18637.865    1416.5962   -20054.462   -758.59728    116.87317    78.777995    22.593991    25.503119 
   14400    238.21754   -235.73264    216009.12   -18696.511    1385.3685   -20081.879   -431.50731    117.93183    78.780385    22.591448    25.502639 
   14600    245.40188   -405.10423    216009.12   -18693.983    1427.1495   -20121.133   -1131.3894    119.76933    78.783099    22.588185    25.498041 
   14800     238.8918   -248.34134    216009.12   -18650.956    1389.2897   -20040.245   -499.23975    120.10163    78.784196    22.591076    25.508488 
   15000     235.9029   -279.59975    216009.12   -18642.723    1371.9076   -20014.631   -611.33834    120.09156      78.7843    22.594968    25.509379 
   15200    241.68719    -348.7317    216009.12   -18614.698    1405.5465   -20020.245   -870.61499    121.42072    78.783303    22.596362    25.528243 
   15400    244.08129   -230.14929    216009.12   -18688.248    1419.4695   -20107.718   -401.02788    122.50667    78.781654     22.59677    25.513055 
   15600    244.95941   -241.64185    216009.12   -18563.178    1424.5762   -19987.755   -426.79116    124.80799    78.781203    22.595515    25.510318 
   15800    238.68878   -281.61411    216009.12   -18606.611     1388.109    -19994.72   -611.56372     125.8345    78.782332    22.595076    25.507128 
   16000    240.33981   -308.14597    216009.12   -18615.207    1397.7107   -20012.918   -709.57967    126.25492    78.784065    22.595291    25.509139 
   16200    239.33631   -180.43224    216009.12   -18559.539    1391.8748   -19951.413   -198.03483    127.08334     78.78501    22.593903    25.519748 
   16400     239.2782   -218.55919    216009.12   -18592.701    1391.5368   -19984.238   -335.03293     128.4884    78.783705    22.591512    25.548897 
   16600    236.89051   -220.61244    216009.12   -18549.116    1377.6511   -19926.767   -323.97258    129.30927    78.783086    22.590022    25.538678 
   16800    236.46997   -312.29644    216009.12   -18601.724    1375.2054    -19976.93   -771.77522    129.66776    78.782242     22.58704     25.52731 
   17000    234.94471   -331.27504    216009.12   -18658.413    1366.3352   -20024.748   -792.99861    131.44639    78.780776    22.587203    25.503194 
   17200     238.8848   -213.95027    216009.12   -18653.812     1389.249   -20043.061     -307.908    133.08556    78.778555    22.590472    25.494877 
   17400    233.04659   -275.80209    216009.12   -18708.336    1355.2965   -20063.632   -649.68725    134.12885    78.776868    22.590277    25.513378 
   17600    241.04231   -373.62617    216009.12   -18649.744    1401.7961    -20051.54   -1012.3779    134.67792    78.776892      22.5915    25.526004 
   17800    245.07921   -253.39235    216009.12   -18639.256    1425.2729   -20064.529   -468.78987    134.93784    78.777618    22.590376    25.536102 
   18000    239.78137   -231.72467    216009.12   -18580.742     1394.463   -19975.205    -447.6127     135.5381    78.779386    22.590742    25.547631 
   18200     232.6269   -413.17131    216009.12    -18595.56    1352.8558   -19948.416   -1173.4192    137.30197    78.783794    22.591904    25.552403 
   18400    239.60568   -359.27598    216009.12   -18574.067    1393.4413   -19967.508   -902.03539    139.07534    78.786617    22.592526    25.551562 
   18600    239.26227   -479.38793    216009.12   -18531.153    1391.4442   -19922.597   -1452.0028    140.04584    78.786959    22.593639    25.550562 
   18800    242.55938    -268.4031    216009.12    -18582.61    1410.6187   -19993.229   -562.51877    140.88783    78.785391    22.592962    25.561904 
   19000    240.14687   -147.89143    216009.12    -18519.95    1396.5886   -19916.539   -64.328296    142.33572    78.785634     22.59155     25.56599 
   19200    230.52444   -259.22715    216009.12   -18561.044    1340.6288   -19901.673   -532.62096    144.16923    78.787876     22.58888    25.582964 
   19400     246.8652   -384.13026    216009.12   -18506.358    1435.6595   -19942.017   -1058.8935    145.43558    78.789299    22.586158    25.591556 
   19600    239.86883   -323.21142    216009.12   -18526.359    1394.9717   -19921.331   -855.78079    145.97591    78.791481    22.585318    25.616266 
   19800    237.35263   -361.05679    216009.12   -18533.452    1380.3386   -19913.791   -944.23272    148.80404    78.794347    22.586449    25.661815 
   20000    243.69269   -346.11156    216009.12   -18580.006    1417.2095   -19997.215   -847.32186    148.93065    78.796445    22.588069    25.651445 
   20200    234.26087   -371.11687    216009.12   -18653.115    1362.3583   -20015.473   -1018.0531    150.40419    78.799173    22.588443    25.652137 
   20400     247.1843   -314.53941    216009.12   -18576.287    1437.5152   -20013.803    -786.2515    152.40075    78.800637    22.587991     25.67333 
   20600     239.1389   -194.20057    216009.12   -18657.153    1390.7267    -20047.88   -201.77261    153.79528    78.802059    22.590183    25.658883 
   20800    242.77067   -346.78619    216009.12   -18569.058    1411.8475   -19980.905   -874.93204    155.76619    78.800667    22.589764    25.650453 
   21000    241.61733   -319.32336    216009.12   -18608.944    1405.1402   -20014.085   -791.91142    155.89965    78.802145    22.590577    25.658466 
   21200    239.23356   -248.30166    216009.12   -18585.312    1391.2772   -19976.589   -460.60699    156.51431    78.802098    22.589064     25.66884 
   21400    232.48981   -408.05092    216009.12   -18583.331    1352.0586    -19935.39   -1124.6496    157.70688    78.801701      22.5915    25.668401 
   21600    251.93243   -336.76517    216009.12   -18508.361    1465.1282   -19973.489   -864.63312     159.0735    78.802435    22.590294    25.672167 
   21800    232.31474   -127.84336    216009.12   -18615.083    1351.0404   -19966.123    34.506569    160.08244    78.802524    22.589638     25.67924 
   22000     232.0349    -277.1372    216009.12   -18650.089     1349.413   -19999.502   -608.90128    160.63892    78.804598    22.588213    25.687451 
   22200    240.95149   -200.64742    216009.12   -18670.181     1401.268   -20071.449    -294.6775    161.55733    78.805434    22.590929    25.694598 
   22400    238.43162   -228.52823    216009.12   -18540.066    1386.6135    -19926.68   -400.23306    163.13359    78.804082     22.59167    25.698983 
   22600    242.54723   -381.31344    216009.12   -18563.245    1410.5481   -19973.793   -1044.6121    164.80032    78.805549    22.591653    25.688258 
   22800    243.94031   -388.20267    216009.12   -18542.264    1418.6496   -19960.914   -1033.1127    166.36698    78.808391    22.591038    25.655939 
   23000    242.52724   -158.55591    216009.12   -18628.145    1410.4318   -20038.577   -94.686622    167.15386    78.806654    22.589638    25.644435 
   23200    236.79034   -276.20492    216009.12   -18577.511    1377.0686    -19954.58   -634.20517    167.66211    78.805136    22.590493    25.626346 
   23400    235.74355   -364.57859    216009.12   -18569.871    1370.9809   -19940.852   -977.09488    168.31065    78.802541    22.590729    25.615793 
   23600    242.81598   -189.52772    216009.12    -18498.93     1412.111   -19911.041    -217.9254    169.50109    78.801991    22.591527    25.608235 
   23800    248.87797   -310.62467    216009.12   -18519.527    1447.3649   -19966.892    -735.3767     170.9515    78.802735    22.590863    25.591864 
   24000     244.3636   -270.53341    216009.12   -18559.121    1421.1113   -19980.232   -578.10198    172.04119    78.804912    22.590778    25.593615 
   24200    234.71826   -334.41846    216009.12   -18583.228    1365.0182   -19948.246   -857.59381    172.90896    78.805269    22.588301    25.618506 
   24400    232.84739   -306.43023    216009.12   -18626.433    1354.1381   -19980.571   -740.09694    173.70876    78.805574    22.587226    25.642926 
   24600    238.24586   -284.46575    216009.12   -18636.953    1385.5332   -20022.486    -649.1951    175.08986    78.802836    22.587831    25.632805 
   24800     240.1829    -399.2409    216009.12   -18605.272    1396.7982    -20002.07   -1097.6853    176.51857    78.803487    22.586589    25.616046 
   25000    244.48344   -262.80016    216009.12   -18606.316    1421.8082   -20028.125    -519.0629    178.64886    78.803468    22.586947    25.634576 
   25200     227.3441   -218.75069    216009.12   -18679.873    1322.1333   -20002.006   -392.65407    180.06028    78.801443     22.58821     25.63005 
   25400      241.304   -273.97625    216009.12   -18584.444     1403.318   -19987.762   -591.53018    181.02766     78.80225    22.588976    25.640655 
   25600    249.13169   -274.36784    216009.12   -18441.154    1448.8404   -19889.994   -586.74949    182.03265    78.802115    22.587347    25.629328 
   25800    246.81524    -243.9613    216009.12   -18520.329    1435.3689   -19955.698   -451.11181    183.11077    78.802459    22.586601    25.639207 
   26000    244.48157   -387.56951    216009.12   -18581.665    1421.7973   -20003.462   -1119.8461    187.05257    78.800788    22.584222    25.651648 
   26200    241.94232    -293.6164    216009.12   -18604.673    1407.0302   -20011.703   -735.05671    188.97081     78.79773    22.582125    25.648152 
   26400    234.88605   -251.51269    216009.12   -18644.173     1365.994   -20010.167   -509.41069    189.23898    78.796538    22.582842    25.627749 
   26600    239.63955   -303.66157    216009.12    -18538.85    1393.6383   -19932.488   -704.31222    191.05084    78.794266    22.581717    25.608674 
   26800     236.7346   -216.53061    216009.12   -18564.962    1376.7443   -19941.706   -383.23307    193.10821    78.794839    22.581458    25.600824 
   27000    243.64835    -298.8994    216009.12    -18531.86    1416.9517   -19948.812   -695.34304    195.20229    78.794358    22.581091    25.597803 
   27200    244.32316   -69.406817    216009.12   -18573.936    1420.8761   -19994.812    317.81254    196.93624    78.794797    22.580905    25.611531 
   27400    235.59052   -293.76729    216009.12   -18538.977    1370.0909   -19909.068   -676.22137    199.86006    78.796063    22.578418    25.590074 
   27600    233.97867   -359.10452    216009.12   -18653.562    1360.7171   -20014.279   -906.15306     201.6436     78.79457     22.57472    25.602951 
   27800    236.59682   -286.79093    216009.12   -18560.186    1375.9431   -19936.129   -662.63725    202.53834    78.794925    22.574354    25.634666 
   28000     236.4733   -414.86298    216009.12   -18618.939    1375.2248   -19994.164   -1211.3316    203.97753     78.79373    22.574766    25.625685 
   28200    238.97165    -190.2328    216009.12   -18605.657    1389.7541   -19995.411   -201.55106    204.69862    78.793222    22.574625    25.634794 
   28400    230.96125    -395.1809    216009.12   -18590.525    1343.1691   -19933.694   -1069.9012    205.50025    78.791255    22.574524    25.621348 
   28600    241.07667   -265.55118    216009.12    -18569.16    1401.9959   -19971.156   -512.42751    207.90065    78.790837    22.577078    25.620293 
   28800    247.07081   -191.52433    216009.12   -18599.103    1436.8552   -20035.958   -206.99391    207.27856    78.791306    22.577763     25.63257 
   29000    245.14398   -268.05224    216009.12   -18555.903    1425.6496   -19981.553   -618.29801    208.12144    78.792101    22.574257     25.62781 
   29200    245.83799   -436.29159    216009.12    -18548.97    1429.6857   -19978.655   -1247.0641    209.42373    78.790486    22.575355    25.625204 
   29400    239.36913   -341.52365    216009.12   -18582.514    1392.0657    -19974.58   -859.19931    211.24531    78.791399    22.575956    25.621386 
   29600    235.91372   -263.04058    216009.12    -18590.99    1371.9705   -19962.961   -538.95274    215.12807    78.790873    22.574378    25.623811 
   29800     231.1583    -398.1509    216009.12   -18667.724     1344.315   -20012.039   -1118.1674    218.01962    78.790646    22.574107    25.631153 
   30000    228.04083   -366.76167    216009.12   -18701.693    1326.1852   -20027.878   -994.58179    218.72689    78.790156    22.574749    25.655516 
   30200    239.49872   -298.83993    216009.12    -18627.97    1392.8193    -20020.79   -706.16759     220.1865    78.789283    22.574262    25.655062 
   30400    247.36558   -251.15051    216009.12   -18626.442    1438.5695   -20065.012   -511.45645    219.97475    78.788835    22.578429    25.657174 
   30600    238.52015   -363.25798    216009.12   -18687.316    1387.1284   -20074.444   -944.07477    222.45039    78.789918    22.579234    25.663185 
   30800    241.25959   -244.47296    216009.12   -18650.119    1403.0597   -20053.179   -471.77861    223.52937    78.789743    22.580314    25.644358 
   31000     242.3012   -336.59171    216009.12   -18622.254    1409.1173   -20031.371     -831.844    224.26927    78.790887    22.579925    25.637041 
   31200    238.09291    -377.6076    216009.12   -18620.443    1384.6437   -20005.087   -987.79046    223.88354    78.793755     22.57883    25.645647 
   31400    242.84551   -431.87779    216009.12   -18613.941    1412.2827   -20026.224   -1217.6298    225.00776    78.793068    22.578747    25.632221 
   31600    233.49525   -212.24839    216009.12   -18647.783    1357.9057   -20005.689   -338.74899    225.42253    78.795857    22.578124    25.633794 
   31800    237.17014   -326.79171    216009.12   -18580.123    1379.2773     -19959.4   -804.49666    227.90776    78.796517    22.580997    25.621797 
   32000    228.15055   -272.55692    216009.12   -18692.116    1326.8233   -20018.939   -567.55666    228.99075    78.798504    22.582059    25.597203 
   32200    234.76126   -216.90136    216009.12   -18661.576    1365.2683   -20026.844   -335.17093    230.59184    78.800458    22.582201    25.590388 
   32400    234.26749   -397.80785    216009.12   -18627.741    1362.3968   -19990.138   -1110.6155    232.63274    78.801369    22.581322    25.568454 
   32600    246.89052   -203.83527    216009.12   -18583.326    1435.8067   -20019.133   -290.50913    232.42072    78.802396    22.583361    25.569952 
   32800    239.95519   -160.64034    216009.12   -18559.251    1395.4739   -19954.725   -114.55972     231.8629    78.804884    22.582863    25.537964 
   33000    245.59901   -327.09067    216009.12   -18588.158    1428.2959   -20016.454   -787.33462    234.31363    78.805541    22.583917    25.540253 
   33200    239.00863   -399.86187    216009.12    -18637.36    1389.9691   -20027.329     -1157.52    235.36375    78.807713    22.584164    25.573879 
   33400    240.02238   -377.70637    216009.12   -18697.858    1395.8646   -20093.722   -1027.2539     235.9058     78.80949    22.584097    25.569989 
   33600    235.00798   -332.73382    216009.12   -18664.963    1366.7031   -20031.666   -868.06204    237.34332     78.81037     22.58526    25.571435 
   33800    247.17896   -264.27521    216009.12   -18511.206    1437.4842   -19948.691   -588.72336    235.99405    78.810374    22.587946    25.585285 
   34000    232.89716   -340.50797    216009.12   -18603.973    1354.4275   -19958.401    -868.7094     236.3493    78.807364    22.587789    25.587151 
   34200    241.76049   -228.29847    216009.12   -18556.234    1405.9727   -19962.207   -388.95749    237.81357    78.807385    22.584738    25.582907 
   34400    239.77853   -425.25594    216009.12   -18605.579    1394.4465   -20000.026   -1243.1857    240.02452    78.806737    22.583503    25.587581 
   34600    247.45287   -214.75416    216009.12   -18502.583    1439.0771    -19941.66   -313.28781    240.73885    78.803687    22.584039    25.558925 
   34800     236.2904   -446.07867    216009.12   -18596.863    1374.1611   -19971.024   -1283.4303    243.10561    78.805063    22.585835    25.601447 
   35000    233.76777   -182.77013    216009.12   -18622.812    1359.4906   -19982.303   -207.60758    241.75624    78.805329    22.585751    25.628414 
   35200    244.51244   -280.62124    216009.12   -18549.361    1421.9769   -19971.338   -622.82763    242.60205    78.801935    22.587058    25.614072 
   35400    239.71288   -261.89138    216009.12   -18565.642    1394.0647   -19959.707   -514.18015    244.28881    78.802603    22.586289    25.601505 
   35600    238.83057   -381.61885    216009.12   -18567.346    1388.9336    -19956.28   -1077.4691    244.54861    78.801767    22.585897    25.594542 
   35800    245.72803   -366.46039    216009.12   -18480.942    1429.0462   -19909.988   -956.68038    245.72823     78.80321    22.584302    25.577301 
   36000    240.29388   -359.45291    216009.12   -18584.675    1397.4436   -19982.119   -951.56268    247.17423    78.801986    22.582594    25.584153 
   36200    234.21679   -209.41401    216009.12   -18548.217    1362.1019   -19910.319   -360.40045    249.34872    78.803003    22.583962    25.582414 
   36400    241.67645   -272.44251    216009.12   -18544.746     1405.484    -19950.23   -596.00058     249.4712    78.801749    22.583775     25.57825 
   36600    244.37705   -181.96503    216009.12   -18535.846    1421.1895   -19957.036    -242.9748    251.02676    78.803989    22.584693    25.584868 
   36800    240.25318   -216.96071    216009.12   -18612.378    1397.2069   -20009.585   -344.40424    252.11091    78.806618    22.587538    25.573254 
   37000    241.47415   -250.10975    216009.12   -18592.864    1404.3075   -19997.171   -513.64217    255.42922    78.805456     22.58677    25.581381 
   37200    231.51778   -433.21692    216009.12   -18615.213    1346.4056   -19961.619   -1236.3619    256.80354    78.804187    22.585517    25.587421 
   37400    234.79371   -294.69295    216009.12   -18567.616     1365.457   -19933.073   -724.56992    257.61912    78.805033    22.581546    25.600876 
   37600    241.20943   -294.74286    216009.12   -18583.374     1402.768   -19986.142   -709.84897    260.05355    78.804955    22.580265    25.589563 
   37800    232.75495   -353.18754    216009.12   -18652.737    1353.6005   -20006.337   -927.15627    260.80099    78.803612    22.581536    25.580445 
   38000    234.41068   -363.62386    216009.12    -18587.51    1363.2295   -19950.739   -963.68829    262.38763    78.804719    22.581352    25.578862 
   38200    243.51081   -256.49701    216009.12   -18594.505    1416.1518   -20010.657   -531.66493    262.85267    78.803612     22.58172    25.591061 
   38400    241.71368   -446.54658    216009.12   -18534.393    1405.7005   -19940.094   -1337.0039    263.62615    78.802115    22.583569    25.597494 
   38600    248.48516   -259.08091    216009.12   -18606.098    1445.0805   -20051.178   -543.13933     265.7002    78.801541    22.583988    25.616545 
   38800    246.04776   -298.89755    216009.12   -18580.275    1430.9056    -20011.18   -700.60215    266.75524    78.801185    22.581553     25.61108 
   39000    253.87775   -398.31972    216009.12   -18537.322    1476.4414   -20013.763   -1136.8464    269.61186    78.802083    22.580507    25.594838 
   39200    237.34685   -461.54955    216009.12   -18645.221     1380.305   -20025.526   -1368.0034    273.61824    78.803778    22.579225    25.616665 
   39400    241.94937   -144.70218    216009.12   -18624.779    1407.0712   -20031.851   -41.405784    275.63185    78.804245    22.578257    25.621219 
   39600    240.74965    -321.1302    216009.12   -18552.399    1400.0942   -19952.493   -797.38993    279.33487    78.805373    22.579017    25.618596 
   39800    234.35255   -273.63189    216009.12   -18617.261    1362.8914   -19980.152   -575.43919    280.72623    78.804252    22.581112     25.61146 
   40000    244.21402   -354.79853    216009.12   -18558.969    1420.2414   -19979.211   -949.88259    283.64321    78.804486    22.583156     25.59061 
   40200    237.36901   -253.65003    216009.12   -18545.429    1380.4338   -19925.863   -489.53902    284.88723    78.805139     22.58264    25.589592 
   40400    233.21696   -328.77834    216009.12   -18589.387    1356.2873   -19945.675   -845.40798    284.69998    78.805061    22.582811    25.573261 
   40600    246.82719   -357.17946    216009.12   -18509.523    1435.4384   -19944.961   -939.93254    286.66157    78.806167      22.5836    25.587537 
   40800    239.86864   -322.70615    216009.12   -18604.404    1394.9706   -19999.375   -807.46141    287.39365    78.807789     22.58385    25.579278 
   41000    237.58933   -328.48283    216009.12   -18574.289    1381.7151   -19956.004   -816.35372    286.31856    78.807666    22.584503    25.580736 
   41200    245.37801   -307.72311    216009.12   -18505.907    1427.0106   -19932.917   -765.83444     285.8855    78.807261    22.585501    25.570261 
   41400    241.20535   -127.92028    216009.12   -18584.206    1402.7443    -19986.95    35.877354    285.17402    78.807553     22.58417    25.585759 
   41600    238.13304   -430.85195    216009.12   -18605.219    1384.8771   -19990.096   -1220.3834     287.4866    78.807407    22.584872    25.574238 
   41800    238.82442   -451.59514    216009.12   -18611.547    1388.8978   -20000.445   -1336.3494    288.31281    78.808736    22.584187    25.573056 
   42000    237.31056   -300.26299    216009.12   -18628.348    1380.0939   -20008.442    -749.8628    289.53966    78.808395    22.582102    25.588869 
   42200    237.32928   -197.34554    216009.12   -18652.141    1380.2027   -20032.343   -270.75918    291.21198    78.810548    22.580762    25.596234 
   42400    245.47653   -340.84132    216009.12   -18621.752    1427.5836   -20049.336   -867.75268    291.50197    78.811025    22.580383    25.604872 
   42600    236.44257   -369.19649    216009.12   -18649.135     1375.046   -20024.181   -979.44167    294.19277    78.807334    22.580214    25.598786 
   42800    240.86708   -253.43166    216009.12   -18606.488     1400.777   -20007.265    -538.8811    296.29623    78.803323    22.581313    25.607724 
   43000     244.8412   -215.02298    216009.12   -18633.841    1423.8888    -20057.73   -376.76991    298.15919     78.80009    22.580276    25.624526 
   43200    237.48189   -470.31782    216009.12   -18613.591    1381.0903   -19994.681   -1419.6329    298.73137    78.797085    22.579692    25.645551 
   43400    244.56051   -254.88707    216009.12   -18600.588    1422.2564   -20022.844   -513.03433    298.39691    78.793423    22.580208    25.671277 
   43600     231.4235   -360.63068    216009.12   -18624.981    1345.8574   -19970.838   -918.48825    298.04268    78.792572    22.581257    25.672991 
   43800    239.72773   -286.85376    216009.12   -18652.802    1394.1511   -20046.953   -639.79696    296.42799    78.792203    22.582564     25.67937 
   44000    232.85119    -356.7222    216009.12    -18655.77    1354.1601    -20009.93    -888.6109    297.97276    78.792002    22.586666     25.68184 
   44200    243.64747   -261.21806    216009.12   -18593.607    1416.9466   -20010.553   -541.86298    296.87436    78.789502    22.584281    25.669133 
   44400    242.01645   -324.56957    216009.12   -18619.711    1407.4613   -20027.172   -850.50392     297.0765    78.788647    22.585977    25.696084 
   44600    234.48934   -296.42448    216009.12   -18635.151    1363.6869   -19998.838   -697.34456    297.75185    78.787434    22.586583    25.680402 
   44800    229.14389   -317.80222    216009.12    -18627.35    1332.6001    -19959.95   -758.47614    299.71335    78.786492    22.587733     25.65739 
   45000    235.29922   -352.44061    216009.12   -18585.395    1368.3969   -19953.792   -904.32861    299.66792    78.786128    22.587142    25.667281 
   45200    241.01608   -253.69518    216009.12   -18564.773    1401.6436   -19966.416   -526.95671    300.04712    78.787014    22.586245    25.700035 
   45400    233.18682   -391.57428    216009.12   -18622.464     1356.112   -19978.576   -1084.5153    301.83113    78.785303    22.587239    25.703412 
   45600    242.55726   -394.96242    216009.12    -18539.17    1410.6064   -19949.776   -1121.8912    302.62055    78.782301    22.584376     25.71703 
   45800    246.75816   -333.51295    216009.12   -18590.442     1435.037   -20025.479   -892.51176    304.77403      78.7844    22.583999    25.740938 
   46000    241.18459    -288.3585    216009.12   -18545.064    1402.6236   -19947.687   -649.05301    307.10098    78.783842    22.585475    25.743703 
   46200    242.31126   -358.93961    216009.12    -18536.39    1409.1758   -19945.566   -920.78799    305.98104    78.783233    22.585559    25.743337 
   46400    234.48669   -161.30858    216009.12   -18623.945    1363.6715   -19987.616   -105.13791    305.34785    78.785033    22.584389    25.742245 
   46600    242.45538   -365.87879    216009.12   -18622.404    1410.0139   -20032.418   -977.35881    307.83618    78.785052    22.584375    25.754992 
   46800    245.30294   -277.02191    216009.12   -18608.737    1426.5741   -20035.311   -592.86636    310.44608     78.78482    22.586326     25.75632 
   47000     240.3851   -249.64663    216009.12   -18568.301    1397.9741   -19966.275   -489.45024    312.38586    78.785269    22.586553    25.750336 
   47200    233.59563   -296.04871    216009.12   -18662.416    1358.4895   -20020.905   -701.55272    312.47265    78.783711    22.586942    25.763188 
   47400    238.20489    -328.8525    216009.12    -18605.38    1385.2949   -19990.675   -828.70024    312.67425    78.784433    22.585765    25.759487 
   47600    236.68349   -294.05508    216009.12   -18626.422    1376.4471   -20002.869    -682.9241    314.56405    78.786859    22.587856    25.775528 
   47800     239.1874   -385.46871    216009.12    -18612.91    1391.0088   -20003.919   -1084.1921    315.95236    78.788116    22.589774    25.763928 
   48000    241.10276   -331.21213    216009.12    -18595.14    1402.1476   -19997.287   -872.40653    315.94119    78.786454    22.589767     25.76105 
   48200    239.51182   -192.32037    216009.12   -18632.473    1392.8954   -20025.368   -205.13693    313.42612    78.785102    22.589992    25.757616 
   48400    240.64267   -292.09623    216009.12   -18609.815     1399.472   -20009.287    -653.1076    313.09053    78.781573    22.589763    25.746925 
   48600    234.26186   -194.91169    216009.12   -18693.456     1362.364    -20055.82   -282.06897    314.58439    78.780681    22.589676    25.767524 
   48800    233.46155   -421.47296    216009.12   -18648.898    1357.7098   -20006.608   -1215.2185    315.85828    78.780564    22.589599    25.765181 
   49000    240.68224   -363.57693    216009.12   -18607.483    1399.7021   -20007.186   -956.34488    319.46423     78.77889     22.58983      25.7679 
   49200    244.44589   -238.30007    216009.12    -18563.18    1421.5898    -19984.77   -429.67394    321.36447    78.776994    22.589408    25.744051 
   49400     229.7213   -174.88222    216009.12   -18597.348    1335.9581   -19933.306   -180.53564    322.90867      78.7771    22.591339    25.774327 
   49600    248.32135    -146.4551    216009.12   -18618.737    1444.1278   -20062.865    -53.84664    325.91883    78.778404     22.59136    25.766374 
   49800    244.65785   -288.18344    216009.12   -18624.635    1422.8225   -20047.458   -631.21079    327.94039    78.778216    22.590975    25.769199 
   50000    239.08938   -269.14454    216009.12   -18651.474    1390.4387   -20041.912   -580.68467    328.77514     78.77617    22.590292    25.756719 
   50200    243.55908   -386.01491    216009.12   -18575.919    1416.4325   -19992.352   -1104.4456    330.57297    78.777139    22.590932    25.752464 
   50400    244.40254   -248.09878    216009.12    -18595.04    1421.3377   -20016.377   -520.44292    331.72046    78.777692    22.591839    25.747216 
   50600    243.14325   -348.81187    216009.12    -18514.41    1414.0143   -19928.424    -933.8491    333.22777    78.775857    22.593578    25.762832 
   50800     236.8809   -210.38363    216009.12   -18665.424    1377.5952    -20043.02   -377.28205    333.48541    78.777131     22.59658    25.759168 
   51000    233.24869   -127.80176    216009.12   -18617.376    1356.4719   -19973.848   -2.7270473    333.93833    78.777254    22.596111    25.746217 
   51200    234.44775   -291.38238    216009.12   -18654.756    1363.4451   -20018.201   -665.79261    334.54706    78.775626    22.596417    25.735378 
   51400     247.8009    -308.6309    216009.12   -18642.765    1441.1011   -20083.866    -728.9556    336.56416    78.776435    22.596774    25.726848 
   51600    238.81952   -155.12183    216009.12   -18684.416    1388.8693   -20073.285   -90.230782    338.29835    78.777902    22.596348    25.719596 
   51800    240.41579   -245.57613    216009.12   -18614.059    1398.1526   -20012.211   -459.10358    338.90218    78.778431    22.595773    25.707104 
   52000    238.28401   -338.68372    216009.12   -18689.673     1385.755   -20075.429   -908.35359    338.22657    78.776887    22.597089    25.690541 
   52200    231.79285   -491.98799    216009.12   -18701.163    1348.0053   -20049.168   -1502.5949    338.81175    78.776196    22.596447    25.685202 
   52400    236.79546   -187.50254    216009.12   -18734.029    1377.0983   -20111.128   -211.30014    338.95096    78.776323    22.596352    25.701119 
   52600    231.95968    -415.1527    216009.12    -18633.64    1348.9756   -19982.616   -1211.4613    340.54196    78.775925    22.594975    25.685922 
   52800    240.83181    -304.5365    216009.12   -18574.135    1400.5719   -19974.707   -741.14407    340.11915    78.775755    22.595139    25.665604 
   53000    241.79457   -248.41391    216009.12   -18541.236    1406.1709   -19947.406   -453.24903    341.14582    78.775183    22.596544     25.63713 
   53200    236.27145   -312.34732    216009.12   -18651.827    1374.0509   -20025.877   -775.08892    342.51822    78.773139    22.597953    25.619142 
   53400    236.78607   -390.97087    216009.12   -18584.856    1377.0437   -19961.899   -1113.7952    344.77711    78.770208    22.598214     25.61747 
   53600    235.54712   -406.93366    216009.12   -18673.715    1369.8385   -20043.554   -1152.7683    345.77234    78.767484    22.599503    25.617087 
   53800    235.70184    -297.6522    216009.12   -18642.254    1370.7383   -20012.992   -676.77476    347.41582    78.766066    22.600285    25.641589 
   54000    243.58091   -221.82052    216009.12   -18610.028    1416.5595   -20026.588   -330.76504    349.94613    78.768323    22.601102    25.657617 
   54200    242.14431   -361.52136    216009.12   -18556.459    1408.2048   -19964.664   -982.09942      352.694    78.768822     22.60067    25.661655 
   54400    244.25874   -178.18321    216009.12   -18531.766    1420.5015   -19952.268   -204.60524    351.00358    78.768491    22.601238    25.662457 
   54600    242.54602   -260.87373    216009.12   -18549.613     1410.541   -19960.154   -515.65147    351.21105    78.767337    22.601632    25.668587 
   54800    241.59765   -386.18411    216009.12   -18533.103    1405.0257   -19938.128   -1035.1285    352.32916     78.76682    22.603184    25.654003 
   55000    249.97281   -268.43151    216009.12   -18517.968     1453.732     -19971.7   -524.74488    354.09777    78.766949    22.602429    25.652501 
   55200    236.96807   -376.42441    216009.12   -18669.288    1378.1021    -20047.39    -990.9785    354.18635    78.766727     22.60341    25.662069 
   55400    237.02921   -443.65271    216009.12   -18588.723    1378.4577   -19967.181   -1346.7479     355.2867    78.768393    22.605091    25.652678 
   55600    237.81665   -285.82758    216009.12   -18591.493    1383.0371    -19974.53   -626.60553    352.96995     78.76724    22.605618    25.652985 
   55800     251.6381   -361.99883    216009.12   -18506.362    1463.4166   -19969.778    -974.8686    353.31561    78.767254    22.605007    25.652092 
   56000    237.17789    -251.6245    216009.12   -18546.476    1379.3223   -19925.798   -463.89687     354.4965    78.764085    22.606072    25.650149 
   56200    245.18417   -247.69839    216009.12   -18550.766    1425.8834   -19976.649   -488.04257    354.03035    78.763081    22.607943    25.639145 
   56400    236.46918   -342.62447    216009.12   -18644.431    1375.2008   -20019.632   -847.09186    357.12714    78.763172    22.608989    25.632879 
   56600    231.39641   -200.10913    216009.12   -18696.562    1345.6998   -20042.262   -248.88601    357.31809    78.763924    22.609825      25.6393 
   56800     243.2368   -298.15172    216009.12   -18622.471    1414.5583    -20037.03   -714.25079     355.6942     78.76452     22.60849    25.636524 
   57000    235.32489   -318.01349    216009.12   -18693.304    1368.5461   -20061.851   -743.66674    357.52281    78.761627    22.608461    25.612968 
   57200    244.22966   -362.35343    216009.12   -18620.135    1420.3323   -20040.468   -955.51615     355.9674    78.760503    22.608379    25.631768 
   57400    240.02611   -393.41665    216009.12   -18659.838    1395.8864   -20055.724   -1094.4784    356.49329    78.763734    22.609403    25.613614 
   57600    232.59111   -386.57499    216009.12   -18702.475    1352.6477   -20055.123   -1097.1086    357.33325    78.762186    22.610113    25.598332 
   57800     244.4384   -321.20271    216009.12   -18636.067    1421.5463   -20057.613   -810.83377    358.75345    78.761268    22.610208     25.58273 
   58000    242.01294    -361.5847    216009.12   -18617.653    1407.4409   -20025.094   -980.46427    358.14383    78.760282    22.612275    25.562405 
   58200    243.21412   -318.00907    216009.12    -18594.72    1414.4264   -20009.147   -802.52788    359.27767    78.760788    22.612483    25.547289 
   58400    235.87772   -280.10785    216009.12   -18614.704    1371.7611   -19986.465   -603.94647    359.52334    78.761413    22.613423    25.546443 
   58600    235.52374    -258.5185    216009.12   -18646.861    1369.7025   -20016.563   -508.10651     361.2442    78.761707    22.615126    25.570981 
   58800    238.12935   -407.31572    216009.12   -18646.539    1384.8556   -20031.394   -1163.3783    362.40961    78.763028     22.61691     25.58588 
   59000    241.68476   -315.44264    216009.12   -18578.864    1405.5323   -19984.397     -753.831    363.49361    78.761695    22.617407    25.547868 
   59200     236.1915   -352.34923    216009.12   -18621.384    1373.5859    -19994.97   -871.94334    363.73156    78.762807     22.61716    25.565894 
   59400    241.72977   -279.64988    216009.12   -18641.023    1405.7941   -20046.817   -624.45522    364.19086    78.762806    22.618043    25.557968 
   59600    230.87197   -121.08672    216009.12   -18708.487    1342.6499   -20051.137    68.420924    365.57892     78.76612    22.618347    25.568762 
   59800    237.24547   -246.01209    216009.12   -18647.307    1379.7153   -20027.023   -426.60081    366.75211     78.76524     22.61875    25.541286 
   60000    244.20106   -177.43215    216009.12   -18632.991     1420.166   -20053.157   -151.61556    367.75185    78.765155    22.620203    25.555189 
   60200    237.60846   -402.17963    216009.12   -18645.225    1381.8264   -20027.051   -1127.8454    370.80731    78.765427    22.621675    25.559762 
   60400    232.18482   -466.42854    216009.12   -18593.498    1350.2848   -19943.783   -1397.3193     371.6489    78.764675    22.623103    25.589663 
   60600    238.51823   -400.55401    216009.12   -18562.134    1387.1172   -19949.251   -1157.2525     372.3892    78.761523    22.623427    25.593257 
   60800    244.83597   -246.94785    216009.12   -18531.882    1423.8584    -19955.74   -485.40243    374.91372    78.759537    22.625149    25.612835 
   61000    240.22233   -365.81615    216009.12   -18617.935    1397.0275   -20014.962   -972.92735    377.13063    78.760585    22.626265    25.613337 
   61200    242.69041   -225.17164    216009.12   -18581.331    1411.3807   -19992.712   -352.92582    376.19299    78.761955    22.627568    25.590465 
   61400    240.07397   -291.46427    216009.12   -18602.453    1396.1647   -19998.618    -606.3093    377.15302    78.762131    22.627854    25.605213 
   61600    237.53792   -421.26458    216009.12   -18619.607    1381.4161   -20001.023   -1260.0412    377.94117    78.765318    22.628679    25.584303 
   61800    239.92515   -294.40897    216009.12    -18661.55    1395.2992   -20056.849    -697.5058    380.82336    78.762885    22.628291    25.569712 
   62000    247.86087   -413.35583    216009.12   -18620.402    1441.4498   -20061.851   -1142.9342    383.48357    78.760817    22.627726      25.5894 
   62200    245.93674   -471.88063    216009.12   -18649.228      1430.26   -20079.488   -1405.4892    384.81687    78.761671    22.627757    25.578004 
   62400    246.56843   -301.43033    216009.12   -18666.669    1433.9336   -20100.602   -706.18968    383.60663    78.761563    22.628979    25.583392 
   62600    235.06584   -189.27968    216009.12    -18693.25    1367.0396    -20060.29   -225.93823    384.29582    78.760936    22.627526    25.586816 
   62800     237.0922   -282.26463    216009.12   -18756.125     1378.824   -20134.949   -598.18799    386.48774    78.760507    22.628298    25.569201 
   63000    244.46665   -340.17016    216009.12    -18690.41    1421.7106    -20112.12   -905.98182    386.65144      78.7621    22.631193    25.573118 
   63200    243.60446   -476.98255    216009.12   -18712.415    1416.6964   -20129.112   -1436.3096    388.11778    78.763702    22.632435    25.562772 
   63400    232.34143   -228.13127    216009.12   -18765.595    1351.1956   -20116.791   -373.50193    386.27359    78.761259     22.63421    25.558882 
   63600    235.19324   -367.70191    216009.12   -18714.173    1367.7805   -20081.953   -984.46753    387.18636    78.760412    22.634194    25.558498 
   63800    235.35881    -238.3471    216009.12     -18730.8    1368.7434   -20099.543   -485.29114    387.50305    78.760408    22.633756    25.551825 
   64000    241.62213   -266.79303    216009.12   -18635.004    1405.1681   -20040.172   -596.72022    387.58242    78.761096    22.633954    25.557511 
   64200    238.61355   -357.12938    216009.12   -18659.953    1387.6715   -20047.625   -991.70674    387.51975    78.760911    22.634111    25.561872 
   64400    231.57724   -300.91376    216009.12   -18670.877    1346.7514   -20017.628   -677.99273    388.33738    78.761353    22.633704    25.559433 
   64600    229.75258   -321.98925    216009.12    -18681.95      1336.14    -20018.09   -829.33181    389.36347    78.761681    22.633411    25.559287 
   64800    244.32753    -180.1394    216009.12   -18659.214    1420.9015   -20080.115   -213.00125    390.86364    78.760577    22.633503    25.535114 
   65000    244.49055   -351.42039    216009.12   -18601.449    1421.8496   -20023.299   -927.27263    390.18403    78.760636    22.631574    25.545575 
   65200    239.58923   -393.90643    216009.12   -18654.154    1393.3456     -20047.5   -1129.5906     390.0127    78.760879    22.631951    25.541346 
   65400    241.10627   -420.30755    216009.12   -18648.245    1402.1681   -20050.413   -1298.6491    390.60269    78.760131    22.633835    25.544693 
   65600    244.80268   -310.55172    216009.12   -18604.776    1423.6647   -20028.441   -816.12853    392.59449    78.759849     22.63524     25.55865 
   65800    240.68906   -250.28952    216009.12   -18629.452    1399.7417   -20029.193   -497.40335    393.28829    78.757929    22.635729    25.556881 
   66000    243.07812   -420.50678    216009.12   -18631.894    1413.6355   -20045.529   -1209.9223    394.23597    78.757581    22.638031    25.576564 
   66200    234.23516   -252.46705    216009.12   -18684.225    1362.2087   -20046.434   -485.56933    393.18112    78.758184    22.642419    25.596867 
   66400    237.28081   -362.32321    216009.12   -18667.832    1379.9209   -20047.753   -972.97916    393.95088     78.76001    22.645739    25.614362 
   66600    232.58158   -374.45851    216009.12   -18639.842    1352.5922   -19992.434   -1044.4399    395.19923    78.762287    22.647296    25.605996 
   66800    234.26866   -326.43773    216009.12   -18642.114    1362.4036   -20004.517   -838.65396    398.65058    78.762889    22.646496    25.619474 
   67000    230.71882   -496.60401    216009.12   -18699.527    1341.7592   -20041.286   -1536.7245    401.23489    78.762878    22.647487    25.624258 
   67200    238.55556   -187.34006    216009.12   -18636.469    1387.3343   -20023.803   -194.43407    401.75474    78.763215    22.647744    25.638556 
   67400    242.44748   -287.76439    216009.12   -18626.931     1409.968   -20036.899   -647.04788    402.34247    78.764877    22.648422     25.64156 
   67600     243.9162   -199.26839    216009.12   -18537.042    1418.5094   -19955.551   -356.21467    403.42734    78.765999    22.649313     25.61911 
   67800    234.16059   -257.17565    216009.12   -18572.509    1361.7751   -19934.284   -551.28878    404.43558    78.767576    22.649531    25.622072 
   68000    239.63689   -424.64298    216009.12   -18608.268    1393.6228   -20001.891   -1252.0372    404.84476    78.768588    22.651557    25.623984 
   68200    235.01875   -339.27706    216009.12   -18645.118    1366.7657   -20011.884   -901.99425    404.68308    78.769551    22.655276    25.626135 
   68400    237.14679   -389.26476    216009.12   -18588.382    1379.1415   -19967.524    -1114.852    408.25981    78.771906    22.654532    25.602808 
   68600    241.14641   -169.55241    216009.12   -18600.908    1402.4015   -20003.309   -99.316938     409.4227    78.770739    22.655085     25.61477 
   68800    234.01118   -282.46933    216009.12   -18529.295    1360.9061   -19890.201   -607.73088    410.15283    78.771802    22.653698    25.593282 
   69000     245.2815   -204.53629    216009.12   -18570.324    1426.4494   -19996.773    -321.9759    411.82299    78.771983    22.654589    25.604873 
   69200    235.16716   -460.24437    216009.12   -18624.302    1367.6288    -19991.93   -1400.0635    414.09853    78.772362    22.653399    25.590565 
   69400    234.44112   -254.01555    216009.12    -18656.63    1363.4065   -20020.036   -525.60981    415.54914    78.773221    22.650068    25.596715 
   69600    249.47104    -333.1095    216009.12   -18451.601    1450.8139   -19902.415    -807.7149    416.22959    78.775277    22.649642    25.609633 
   69800    232.68816   -387.02358    216009.12   -18590.724    1353.2121   -19943.936   -1094.2436    416.59075    78.774781    22.648781    25.584826 
   70000    242.58817   -304.03374    216009.12     -18542.8    1410.7862   -19953.586   -720.66959    417.15905    78.774524     22.64697    25.570914 
   70200    238.07352   -389.84391    216009.12   -18552.433    1384.5309   -19936.964   -1086.1088    419.05422    78.774062    22.643997    25.567421 
   70400    240.65579   -252.41611    216009.12   -18507.452    1399.5483       -19907   -520.60436    419.36976    78.776811    22.642172    25.543236 
   70600    245.96279   -278.34604    216009.12   -18606.861    1430.4115   -20037.273    -600.1483    420.96681    78.776068    22.643219     25.54763 
   70800    238.84136   -231.87489    216009.12   -18624.157    1388.9963   -20013.153   -407.12263    422.91871    78.773263    22.644419      25.5434 
   71000    237.00717   -503.21061    216009.12   -18609.063    1378.3295   -19987.393   -1533.9145     424.6118    78.773794    22.642855    25.553983 
   71200    243.21461   -259.00409    216009.12   -18570.554    1414.4293   -19984.983   -501.33201    425.43486    78.771943    22.644329    25.544639 
   71400    241.17822   -247.03831    216009.12   -18625.738    1402.5865   -20028.325   -466.14346    427.11067    78.770386    22.643732    25.513925 
   71600    243.56868    -254.9499    216009.12   -18559.958    1416.4884   -19976.447   -511.74507    428.40672    78.770702    22.644236     25.52782 
   71800     230.8628   -340.37492    216009.12   -18652.693    1342.5965    -19995.29    -871.0211    429.65928    78.770433    22.645171    25.533035 
   72000    241.53204   -261.87296    216009.12   -18650.022    1404.6442   -20054.666   -550.61604    431.49524    78.772774    22.645428    25.533095 
   72200    248.17789   -289.40062    216009.12   -18500.696    1443.2935   -19943.989   -658.48378     430.7627    78.772858    22.644312    25.551911 
   72400    236.53706   -463.85749    216009.12    -18569.47    1375.5956   -19945.066   -1370.7477    431.93468    78.772855    22.645705    25.554042 
   72600    246.26268   -460.30706    216009.12   -18547.052    1432.1555   -19979.208   -1417.4644    432.70139     78.77416    22.645866    25.568848 
   72800    240.82069   -314.69135    216009.12   -18577.246    1400.5073   -19977.754     -802.551    435.74403      78.7735    22.645698    25.569425 
   73000    233.99131   -392.42496    216009.12   -18611.806    1360.7906   -19972.597    -1143.002    437.12912    78.774507     22.64702    25.556292 
   73200    242.26068   -331.37786    216009.12   -18528.975    1408.8816   -19937.857   -863.17994    437.98613    78.775159    22.645194    25.565496 
   73400    247.91489    -490.0291    216009.12   -18560.221     1441.764   -20001.985   -1471.7038    440.71604    78.776355    22.642556    25.559311 
   73600    242.42983   -204.57783    216009.12   -18561.863    1409.8653   -19971.728   -267.87396    441.83354    78.778794    22.641452     25.56126 
   73800    234.74648   -344.69506    216009.12   -18654.762    1365.1824   -20019.944   -856.19458    444.41918    78.776874    22.640768    25.559564 
   74000     233.1268   -165.87457    216009.12   -18658.189     1355.763   -20013.951    -129.0648    445.81163    78.774349    22.639954     25.56229 
   74200     232.7112   -193.07648    216009.12   -18591.924     1353.346    -19945.27   -239.81278    446.90902     78.77348    22.638321     25.52183 
   74400    238.42736   -252.20754    216009.12   -18598.495    1386.5887   -19985.084   -518.79776    451.07721    78.773315    22.639572    25.496545 
   74600    239.69245   -281.21746    216009.12   -18650.865    1393.9459    -20044.81   -631.19503    451.52198    78.770929    22.639151    25.537659 
   74800    239.20312    -424.8857    216009.12   -18649.275    1391.1002   -20040.375   -1237.5085       452.98    78.771861    22.639101     25.53407 
   75000    237.09902   -411.01159    216009.12   -18634.478    1378.8637   -20013.342   -1149.7868    454.17925     78.77168    22.640626    25.537383 
   75200    241.07934   -308.11629    216009.12   -18567.894    1402.0114   -19969.906   -711.80514    453.10198    78.775379     22.63959    25.519897 
   75400     237.1445   -313.81261    216009.12   -18606.736    1379.1282   -19985.864   -749.01496    454.57101    78.774046     22.63915    25.543879 
   75600    237.85432    -263.5862    216009.12   -18599.997    1383.2562   -19983.253   -530.24927    455.39811    78.773382    22.641461    25.515225 
   75800    246.56102   -250.96727    216009.12   -18573.983    1433.8905   -20007.873   -426.65247    456.72022    78.772292    22.642752    25.504353 
   76000    242.40777   -226.26293    216009.12   -18597.985     1409.737   -20007.722   -392.73593    454.73473    78.772271    22.641764    25.490428 
   76200    237.59958     -324.947    216009.12   -18676.465    1381.7747   -20058.239    -798.4253     455.4219    78.771313    22.641175    25.502035 
   76400    240.12991   -359.66446    216009.12   -18669.839      1396.49   -20066.329   -915.43361    456.67128    78.768517    22.641201     25.50253 
   76600    237.60327   -211.60231    216009.12   -18666.224    1381.7962    -20048.02   -289.39041    458.41952     78.76922    22.641224    25.516752 
   76800    238.68066   -228.35909    216009.12   -18650.895    1388.0618   -20038.957   -436.17787    458.76323     78.76815    22.640429    25.504413 
   77000    237.80855   -325.12381    216009.12    -18614.48      1382.99    -19997.47   -816.78415    462.44849     78.76926    22.639198    25.525258 
   77200    245.11542   -285.89545    216009.12   -18611.886    1425.4835    -20037.37    -633.9708    463.43668    78.770642    22.639594    25.514834 
   77400    239.44553   -449.72898    216009.12   -18600.616    1392.5099   -19993.126    -1359.641    465.51719    78.768889    22.640373     25.52473 
   77600    234.64563   -368.35832    216009.12   -18644.819    1364.5959   -20009.415   -996.37802    467.98754    78.767885    22.639922     25.52383 
   77800    246.32009   -357.18402    216009.12   -18612.073    1432.4894   -20044.563   -924.48592    470.63578     78.76862    22.640844    25.512878 
   78000    233.93028   -421.13893    216009.12   -18674.659    1360.4357   -20035.095   -1216.2849    474.09165    78.770825    22.638619    25.509309 
   78200    238.70414   -210.72346    216009.12   -18625.297    1388.1983   -20013.495   -324.50118    473.71022    78.772986     22.63767     25.52622 
   78400    235.17152   -332.86119    216009.12   -18650.041    1367.6542   -20017.696   -818.95927    475.37987    78.774585    22.639073    25.525783 
   78600    233.01439   -186.94226    216009.12   -18604.675    1355.1092   -19959.784   -178.35963    474.14146    78.775976    22.639075    25.523129 
   78800    237.70859   -265.85694    216009.12   -18619.135    1382.4086   -20001.544    -561.8817    476.43714    78.776277    22.638605    25.543414 
   79000    245.79295   -343.07602    216009.12   -18572.476    1429.4237     -20001.9   -923.15751    482.64303    78.779044    22.640514    25.563446 
   79200    240.69798   -169.77308    216009.12    -18554.66    1399.7937   -19954.453   -148.75909     484.0542    78.780402    22.641191    25.563195 
   79400    240.81142   -437.93881    216009.12   -18527.837    1400.4534   -19928.291   -1256.1075    486.85252    78.780615    22.639674    25.569638 
   79600    242.67141   -322.25503    216009.12   -18627.401    1411.2702   -20038.672   -788.72208    482.78579    78.778532    22.638293    25.572178 
   79800    241.38682   -333.88714    216009.12   -18653.436    1403.7997   -20057.235   -865.91111    482.32456    78.778695    22.638089     25.55905 
   80000    237.00545   -310.93169    216009.12   -18687.719    1378.3195   -20066.038   -780.12796    481.90276    78.776487    22.638455    25.556298 
   80200    237.73256   -185.91862    216009.12   -18676.459     1382.548   -20059.007   -254.95812     483.9921    78.776658    22.638041    25.566229 
   80400    236.50841     -368.688    216009.12   -18723.768     1375.429   -20099.197   -1025.4115    486.78569    78.775903    22.640479    25.578835 
   80600    241.05676    -266.9581    216009.12   -18700.458    1401.8802   -20102.338    -519.9552    488.96959    78.777451    22.640021    25.545764 
   80800     237.7114    -256.0913    216009.12   -18685.397     1382.425   -20067.822   -511.83709    490.42377    78.778439    22.639956    25.548806 
   81000    243.71643    -295.4608    216009.12   -18664.164    1417.3476   -20081.511    -661.8183     492.3248    78.779162    22.639342    25.516012 
   81200    236.88051   -306.94207    216009.12   -18680.581    1377.5929   -20058.173   -720.23832    493.43171    78.779531    22.643147    25.523285 
   81400    235.80525   -195.74999    216009.12   -18625.256    1371.3396   -19996.595   -221.05056    495.73413    78.777945     22.64245    25.480239 
   81600    232.74912   -350.06154    216009.12   -18637.317    1353.5666   -19990.884   -905.09059     500.4861    78.778015    22.646866    25.461666 
   81800    231.16564   -145.61735    216009.12   -18718.695    1344.3578   -20063.053   -42.419145    498.54339    78.777492    22.649419    25.448715 
   82000    245.67496   -251.04858    216009.12   -18623.346    1428.7375   -20052.083   -421.95989    501.15829    78.778521    22.649872    25.457568 
   82200    243.73722   -218.20974    216009.12   -18565.474    1417.4685   -19982.942   -347.74968    502.68151    78.781202    22.649966    25.456046 
   82400    247.84471   -202.94304    216009.12   -18592.809    1441.3559   -20034.165   -308.78199    503.98018    78.783355    22.648427    25.425255 
   82600    243.61532   -393.92559    216009.12   -18523.938    1416.7596   -19940.698   -1103.1565    503.84621    78.782598    22.648044    25.423411 
   82800    233.11978   -245.31023    216009.12   -18632.517    1355.7222    -19988.24   -490.14165    504.15399    78.784888     22.64685     25.41815 
   83000    245.98493   -532.27311    216009.12   -18522.729    1430.5402    -19953.27   -1698.8448    505.37177    78.783686    22.646727     25.41816 
   83200    237.91932   -387.37562    216009.12   -18551.744    1383.6342   -19935.378   -1064.9304       503.69      78.7854    22.647868    25.418846 
   83400    242.16308   -346.45725    216009.12   -18582.592     1408.314   -19990.906    -884.1423    503.52668    78.783915    22.648441    25.420111 
   83600    238.50966    -243.3376    216009.12    -18667.03    1387.0673   -20054.098   -443.41566    501.70264    78.784218    22.648766    25.408342 
   83800    241.05757   -299.04525    216009.12   -18617.453    1401.8849   -20019.337   -716.57975     504.1597    78.786063    22.649236    25.410139 
   84000    237.24469   -360.16524    216009.12   -18574.868    1379.7108   -19954.579   -942.27766    508.03498    78.786331    22.648126    25.408648 
   84200     244.6441   -198.06723    216009.12    -18551.85    1422.7425   -19974.592   -272.55464    511.77656    78.786395    22.646736    25.428824 
   84400     235.7892   -271.34086    216009.12   -18616.887    1371.2463   -19988.133   -564.49456    514.73469    78.787457    22.647944    25.421195 
   84600    247.62342   -244.73956    216009.12   -18583.583     1440.069   -20023.652   -435.90471    516.01242    78.788163    22.647889    25.420355 
   84800    245.43165   -353.45982    216009.12   -18630.106    1427.3226   -20057.428   -965.62143    516.31174    78.786387    22.646389    25.434074 
   85000    239.46241   -281.00532    216009.12   -18610.795    1392.6081   -20003.403   -609.39937    515.66937    78.784703    22.646504    25.434792 
   85200    234.07195   -237.37689    216009.12   -18628.207    1361.2596   -19989.466   -407.76078    517.35059    78.783383    22.647195    25.430584 
   85400    237.22707   -323.66238    216009.12   -18660.831    1379.6083   -20040.439   -802.93172    516.63101    78.782747    22.646467    25.428173 
   85600    234.92684   -334.23378    216009.12   -18614.985    1366.2312   -19981.217    -838.7603    518.20305    78.785154    22.647888    25.451265 
   85800    244.66205   -360.30589    216009.12   -18524.425     1422.847   -19947.272   -961.22095    518.51143    78.786452    22.646177    25.451746 
   86000     240.6617   -494.72796    216009.12   -18576.777    1399.5826    -19976.36   -1525.2019    519.35411    78.786035    22.646126    25.462168 
   86200    242.78137   -422.29864    216009.12   -18574.152    1411.9097   -19986.062   -1221.6518    521.97357    78.786351    22.645517    25.469462 
   86400    238.75668   -381.88725    216009.12   -18638.772    1388.5039   -20027.276   -992.20454    525.46968    78.785845    22.645145    25.501484 
   86600    246.04589    -270.7396    216009.12   -18543.784    1430.8947   -19974.679   -568.00574    522.59797    78.787437    22.647469    25.515867 
   86800    236.80517   -257.89607    216009.12   -18610.713    1377.1548   -19987.868   -502.42733    523.11265    78.788735    22.647852    25.514635 
   87000    240.33167   -428.97286    216009.12   -18571.356    1397.6633   -19969.019   -1259.2636    526.06178    78.789184    22.647978    25.489922 
   87200    243.32642   -449.77143    216009.12   -18561.932    1415.0795   -19977.012   -1329.5745    529.81846    78.790588     22.64753    25.496801 
   87400    240.39317   -307.74257    216009.12   -18593.247     1398.021   -19991.268   -749.68253    528.73611    78.792137    22.645831    25.496658 
   87600     239.0019   -486.70499    216009.12   -18585.487      1389.93   -19975.417   -1496.3678    529.71365    78.791919    22.645309    25.508626 
   87800    235.39623   -366.13496    216009.12   -18604.406     1368.961   -19973.367   -965.71882    530.47274      78.7932    22.645609    25.513203 
   88000    246.58681   -204.85704    216009.12   -18585.246    1434.0405   -20019.286   -260.32859    529.05249    78.795176     22.64543    25.517311 
   88200    236.04686   -380.27907    216009.12   -18651.601    1372.7448   -20024.345   -1056.2631    527.59207    78.795095    22.644952     25.51598 
   88400    240.14775   -282.38385    216009.12   -18550.894    1396.5938   -19947.488   -622.37332    525.97199    78.796364    22.644362    25.521097 
   88600    242.17915   -445.39079    216009.12   -18559.062    1408.4075    -19967.47   -1324.6815    527.83866    78.795219    22.644594    25.515845 
   88800    233.77729   -246.64825    216009.12   -18642.418    1359.5459   -20001.964   -483.43467    528.96461    78.795407    22.645833    25.520741 
   89000    242.99584   -231.09008    216009.12   -18596.824     1413.157   -20009.981   -424.77438    526.39776    78.795107    22.647161    25.530577 
   89200    242.85201   -288.46667    216009.12   -18586.749    1412.3205   -19999.069   -650.36657    526.01655     78.79532    22.647951    25.524473 
   89400    237.66443   -293.12262    216009.12   -18614.557    1382.1518   -19996.709    -660.1233    528.67809    78.795301    22.649381    25.520604 
   89600    236.42849   -238.03396    216009.12   -18705.617    1374.9642   -20080.581   -457.98806    527.31257    78.792808    22.648729    25.513153 
   89800    240.87267   -310.00492    216009.12   -18598.842    1400.8095   -19999.652   -772.43638    528.20422     78.79081    22.649577    25.529344 
   90000    238.40394   -236.50366    216009.12   -18628.781    1386.4525   -20015.233   -477.44865    527.79339    78.790926     22.64921    25.532848 
   90200    233.16627    -209.3181    216009.12   -18652.005    1355.9925   -20007.997   -279.67357    530.27644    78.789198     22.64976    25.561003 
   90400    241.13074   -128.20458    216009.12   -18614.741    1402.3104   -20017.052    19.622738    531.02679    78.790915    22.650813    25.563385 
   90600    239.10774   -328.07696    216009.12   -18624.628    1390.5455   -20015.174   -852.04489    532.93231    78.791311    22.652938    25.564743 
   90800    243.54308   -326.22255    216009.12   -18623.924    1416.3395   -20040.263   -773.18826    535.46266    78.791965    22.654063     25.54739 
   91000      236.406   -187.89921    216009.12   -18662.178    1374.8334   -20037.012    -210.7682    534.84438    78.789482    22.654188    25.567955 
   91200    239.03691    -227.0103    216009.12   -18748.651    1390.1336   -20138.784   -375.45469    537.16797    78.792169    22.653533    25.565201 
   91400    244.19782   -257.62101    216009.12   -18690.966    1420.1472   -20111.113   -471.52028     538.3269    78.794202    22.652683     25.58268 
   91600    241.09735   -251.54967    216009.12   -18599.134    1402.1162    -20001.25   -506.35859    538.68095    78.792829    22.652935    25.588988 
   91800    246.66786   -124.96371    216009.12   -18599.739    1434.5118   -20034.251    67.249363    542.23165    78.792704    22.651398    25.591027 
   92000    238.72093   -277.05094    216009.12   -18594.591     1388.296   -19982.887   -601.99727    542.70341    78.791672    22.649489    25.600423 
   92200    233.90082   -384.60067    216009.12   -18636.448    1360.2643   -19996.712   -1090.9255    546.79714    78.791554    22.648946    25.600518 
   92400    245.57032   -157.33706    216009.12   -18587.264     1428.129   -20015.393    -62.00129    546.57295    78.793925    22.649367     25.60924 
   92600    241.99982   -247.71525    216009.12   -18534.034    1407.3646   -19941.398   -455.48502    546.00605    78.795885    22.646589    25.609674 
   92800    240.50898   -256.65451    216009.12   -18582.643    1398.6945   -19981.337   -491.18638    546.91547    78.797881    22.643992    25.618494 
   93000    240.84616   -357.54834    216009.12   -18636.275    1400.6554    -20036.93   -895.95642    547.64891    78.797668     22.64751    25.639068 
   93200    235.34501    -293.8289    216009.12   -18618.154    1368.6631   -19986.817   -671.68586    543.77574    78.800003     22.65044    25.671305 
   93400    237.45331    -420.6348    216009.12   -18699.182    1380.9241   -20080.106   -1238.7444     545.3746    78.800556    22.652307    25.708152 
   93600    234.57523   -119.74468    216009.12   -18700.659    1364.1864   -20064.846    89.194677    545.74361    78.800773    22.654837    25.700639 
   93800    232.72867   -315.16743    216009.12   -18706.808    1353.4476   -20060.255   -707.16382    544.65325    78.799492    22.653341    25.711111 
   94000    237.27098   -161.75906    216009.12   -18687.813    1379.8637   -20067.676    -130.2714    543.31548    78.801842    22.651961    25.714357 
   94200    237.54779   -286.99236    216009.12   -18606.039    1381.4735   -19987.512   -678.49844    543.39338    78.801727    22.650203    25.687925 
   94400    232.69376   -490.73724    216009.12   -18625.555    1353.2446   -19978.799   -1474.8877    544.49999    78.801508    22.648747    25.688516 
   94600    237.98409   -254.76695    216009.12   -18660.587    1384.0108   -20044.598   -506.24751    543.32011    78.800405     22.64852    25.673086 
   94800    231.78574    -371.4138    216009.12   -18613.095     1347.964   -19961.059   -1016.4716    545.48845    78.800873    22.648605    25.655223 
   95000    237.27711    -120.3617    216009.12   -18635.035    1379.8994   -20014.934    73.286827    545.84106     78.80082    22.646874    25.639209 
   95200    238.78803   -345.75636    216009.12   -18637.948    1388.6862   -20026.634   -895.32991     548.6679    78.800835    22.649447    25.647249 
   95400    237.41069   -314.45576    216009.12   -18640.989    1380.6762   -20021.665   -755.19697    550.35421    78.798304    22.649255    25.683415 
   95600    238.61706   -560.35379    216009.12   -18607.146    1387.6919   -19994.838   -1784.7164    552.56973    78.799048    22.651064     25.68794 
   95800    243.03784   -283.58252    216009.12    -18616.82    1413.4012   -20030.221   -616.77243    551.19566    78.801411    22.650352    25.708139 
   96000    242.08228   -277.45418    216009.12   -18596.407    1407.8441   -20004.251   -636.01848    553.07471    78.801577    22.649407    25.697171 
   96200    242.23481   -292.39316    216009.12   -18565.974    1408.7311   -19974.705   -658.52233    556.42079    78.802381    22.647819    25.693226 
   96400    236.54894   -302.04385    216009.12   -18553.064    1375.6647   -19928.728   -702.40486     557.6591    78.805662    22.646057    25.681745 
   96600    233.26853   -421.11161    216009.12    -18626.28    1356.5872   -19982.867   -1250.9871    558.60177     78.80685    22.642449    25.678638 
   96800    237.43948    -279.3871    216009.12   -18579.423    1380.8436   -19960.266   -610.67037    559.95071    78.805718    22.642261    25.675917 
   97000    237.35989    -210.1906    216009.12   -18622.396    1380.3808   -20002.777    -339.1653     561.6037    78.804922    22.642441    25.692074 
   97200    236.49699   -466.53465    216009.12   -18613.024    1375.3625   -19988.386   -1404.8248    562.71145    78.804821    22.644547    25.682596 
   97400      240.741   -186.91688    216009.12   -18610.389    1400.0438   -20010.433   -236.46849    564.24752    78.806533    22.643927    25.701548 
   97600    244.37375   -274.14925    216009.12   -18552.191    1421.1703   -19973.361   -572.50141    567.02084    78.808182    22.644967    25.691893 
   97800    240.89367   -204.18726    216009.12   -18553.554    1400.9317   -19954.485   -315.16523    565.90657    78.805682    22.645054    25.667029 
   98000     244.1017    -323.4663    216009.12   -18588.109    1419.5882   -20007.697   -785.68041    565.20121    78.806131    22.644529    25.668286 
   98200    236.72208   -334.21825    216009.12   -18616.423    1376.6715   -19993.095   -832.84482    565.17663    78.805511    22.646109    25.670741 
   98400    243.51203   -227.22758    216009.12   -18568.854    1416.1589   -19985.013   -447.91945    566.61971    78.804728     22.64779    25.687779 
   98600    247.31552   -157.79331    216009.12   -18588.113    1438.2784   -20026.391   -85.224015    569.27023    78.807316    22.650375    25.684965 
   98800     241.3779   -170.36983    216009.12   -18584.254    1403.7478   -19988.001   -170.24937    569.76443    78.810557    22.649448    25.709097 
   99000    243.01311   -353.95021    216009.12   -18648.278    1413.2574   -20061.535   -921.51697    569.26929    78.813061    22.647368    25.719587 
   99200    240.87046   -333.63493    216009.12   -18627.855    1400.7967   -20028.652   -875.44011    570.25513    78.814632    22.649224    25.738753 
   99400    239.33451   -248.66514    216009.12   -18665.308    1391.8643   -20057.172   -405.49268    572.70692    78.817924    22.649348    25.720393 
   99600    242.22316   -317.44701    216009.12   -18610.242    1408.6634   -20018.906   -756.18642    575.78502    78.821167    22.649502    25.692274 
   99800    238.29577   -303.59325    216009.12   -18630.297    1385.8234   -20016.121    -724.2325    580.55261     78.82124    22.648684    25.714728 
  100000     244.5943   -365.73642    216009.12   -18610.396    1422.4529   -20032.849   -979.94352    581.17074    78.823025     22.65148    25.705842 
  100200    239.46484   -185.36824    216009.12   -18637.578    1392.6222     -20030.2   -185.53736     581.2719    78.825295    22.652255    25.730841 
  100400     242.2059   -384.37863    216009.12   -18588.458     1408.563   -19997.021   -984.76175    583.34107    78.824074    22.651842    25.730136 
  100600    240.85577   -340.55806    216009.12   -18633.024    1400.7113   -20033.735   -886.33879    583.75526    78.823783    22.650484    25.720029 
  100800    238.38025   -376.85644    216009.12   -18675.747    1386.3147   -20062.062   -1010.9646    585.37944    78.823156    22.649318    25.693202 
[...]
 5175800    227.48146    63.895376    216009.12   -20685.062    1322.9322   -22007.994    855.24328    8061.8864    78.278807    21.598656    25.443821 
 5176000    223.43533   -40.358221    216009.12   -20665.842    1299.4016   -21965.244    427.20667    8064.3058    78.278205    21.598855    25.447347 
 5176200    224.75488   -4.1738934    216009.12   -20684.195    1307.0756   -21991.271    586.01551    8064.0807    78.278149    21.599679    25.447472 
 5176400    219.86527    128.94993    216009.12   -20708.804    1278.6398   -21987.443     1149.754    8062.0046    78.278162    21.599864    25.452939 
 5176600    232.02192   -18.100986    216009.12   -20665.765    1349.3375   -22015.103    495.48328     8063.405    78.278417    21.600047    25.455261 
 5176800     229.1599    21.833006    216009.12   -20638.663    1332.6932   -21971.356    644.89705    8065.0847    78.278675    21.600418    25.452179 
 5177000    227.46938    94.527778    216009.12   -20633.626    1322.8619   -21956.488    955.41089    8063.2695    78.278109      21.6011    25.443632 
 5177200    229.85965    23.348989    216009.12   -20657.665    1336.7627   -21994.428     665.9568    8064.0149    78.278428    21.601672    25.449355 
 5177400    222.47882   -25.140236    216009.12   -20682.425     1293.839   -21976.264    479.77701     8063.099    78.278158    21.601993    25.449824 
 5177600    234.28508    109.39896    216009.12    -20625.75     1362.499   -21988.249    1058.1029    8062.5184    78.278987    21.602257    25.452001 
 5177800    230.34672    77.926555    216009.12   -20649.034    1339.5952   -21988.629    911.46106    8061.6012    78.278669    21.602507    25.458118 
 5178000    227.99392   -35.506641    216009.12   -20668.262    1325.9124   -21994.175    426.44457    8065.6439    78.278216    21.603458    25.456388 
 5178200    226.78313    109.71817    216009.12   -20674.548     1318.871   -21993.419    1057.5844    8064.3642    78.277205    21.604376    25.457471 
 5178400    229.59334    69.609164    216009.12   -20687.612     1335.214   -22022.826    870.32995    8061.4598    78.276442    21.604318    25.462348 
 5178600    226.44257    23.370805    216009.12   -20679.725    1316.8905   -21996.615    706.34451    8063.1385      78.2759    21.605007    25.460997 
 5178800    233.33074    35.153234    216009.12    -20633.79     1356.949   -21990.739    720.58875    8064.1579    78.275802    21.604806     25.46825 
 5179000     222.0696    70.177751    216009.12   -20667.025    1291.4592   -21958.485    926.79933    8063.1455    78.275738    21.604231    25.470958 
 5179200    231.34235   -3.0387896    216009.12   -20648.371    1345.3854   -21993.757    583.82753    8062.7717     78.27531    21.605043    25.466116 
 5179400    225.60774    25.890492    216009.12   -20703.585    1312.0354   -22015.621    734.94495    8064.5118    78.274417    21.605275    25.461695 
 5179600    232.74804    65.009738    216009.12   -20601.154    1353.5603   -21954.714    925.81561     8062.978    78.274584    21.605608     25.46406 
 5179800    234.03921    69.922093    216009.12   -20660.942    1361.0691   -22022.011    898.18892    8062.6536    78.274682    21.605754    25.463581 
 5180000    225.87225   -56.145225    216009.12   -20679.401    1313.5737   -21992.975     338.6701    8064.5768    78.275281    21.606131    25.462269 
 5180200    219.28239     98.06166    216009.12   -20745.841      1275.25   -22021.091    1022.2204    8060.0699    78.274495    21.606181    25.457716 
 5180400    223.09008   -8.7123047    216009.12   -20719.558    1297.3938   -22016.952    540.44526    8061.7845    78.274702    21.605864    25.464743 
 5180600    227.03201   -51.608806    216009.12   -20656.347    1320.3184   -21976.666    363.89522    8065.0696    78.274541    21.605944     25.46373 
 5180800    224.48397  -0.26943309    216009.12   -20630.939    1305.5001   -21936.439    574.47429    8062.6792    78.274215    21.606813    25.466827 
 5181000    224.36547    117.32881    216009.12   -20673.663    1304.8109   -21978.474     1082.396    8062.8891    78.273993    21.607275    25.465364 
 5181200    223.64917   -42.204595    216009.12   -20677.271    1300.6452   -21977.916    424.10055    8065.0475    78.274359    21.606936    25.459429 
 5181400    223.58734    26.940267    216009.12   -20714.937    1300.2857   -22015.223     755.8434    8062.2788    78.275148    21.606055    25.462645 
 5181600    229.25969    69.658203    216009.12   -20646.587    1333.2736   -21979.861      883.002    8060.6091    78.275526    21.605651     25.45549 
 5181800    223.33608    2.6226864    216009.12   -20723.546    1298.8244   -22022.371    638.15303    8063.1808    78.275171    21.605912    25.459578 
 5182000     230.5489   -6.8747414    216009.12    -20644.05     1340.771   -21984.821    555.50381    8064.8245    78.275062     21.60494     25.46185 
 5182200    224.17933    81.716523    216009.12   -20640.301    1303.7285    -21944.03    938.51129    8062.0896    78.275209    21.604923    25.464743 
 5182400    228.06821   -12.478644    216009.12   -20631.365    1326.3444   -21957.709    517.22818    8064.9646    78.275868    21.605303    25.465722 
 5182600    218.88619   -25.863853    216009.12   -20719.608    1272.9459   -21992.554    498.94982    8065.9816    78.275386     21.60606    25.464557 
 5182800    228.19526    27.683978    216009.12   -20661.422    1327.0833   -21988.505    667.47043     8063.099    78.275662    21.606139    25.461061 
 5183000    228.71988    90.844536    216009.12   -20651.727    1330.1343   -21981.861    958.12175    8063.3826    78.275525    21.606038    25.462636 
 5183200    228.91801    15.624875    216009.12   -20606.606    1331.2865   -21937.892    649.27633    8064.5207    78.275644    21.606835    25.470116 
 5183400    232.01445   -1.7443417    216009.12   -20623.243     1349.294   -21972.537    605.63906     8064.467    78.275749    21.607746    25.467338 
 5183600    224.38126    115.81471    216009.12   -20702.552    1304.9028   -22007.455    1048.8137    8059.8977    78.274948     21.60913    25.460137 
 5183800     223.4445    11.252224    216009.12    -20734.18     1299.455   -22033.635    647.93697     8064.561    78.274705    21.609812    25.459639 
 5184000    219.89145   -48.493835    216009.12   -20732.745     1278.792   -22011.537    386.64283     8067.116    78.274846    21.609113    25.473568 
 5184200    228.42933    191.47245    216009.12   -20622.354    1328.4445   -21950.798    1397.6707    8060.5554    78.274711    21.610085     25.46611 
 5184400     221.9948    41.592665    216009.12   -20676.707    1291.0242   -21967.731    790.64517    8063.5443    78.274431    21.610938    25.458389 
 5184600    229.45987   -79.609079    216009.12   -20621.228    1334.4377   -21955.666    294.34375    8064.1457     78.27368    21.611172    25.463206 
 5184800    226.03216     168.6935    216009.12    -20674.05    1314.5037   -21988.553    1331.0294    8061.4798    78.273468    21.610756    25.464535 
 5185000    223.06901    66.901248    216009.12   -20681.718    1297.2713   -21978.989    879.38602    8061.4931    78.272763    21.610846    25.468454 
 5185200    222.24498   -124.33127    216009.12   -20669.636    1292.4791   -21962.115    97.285942    8064.1448    78.272056    21.611872    25.474407 
 5185400    224.35874    153.09563    216009.12   -20701.519    1304.7718   -22006.291    1243.4353    8059.6308    78.271463    21.612139    25.468052 
 5185600    224.44771    125.17983    216009.12   -20660.846    1305.2892   -21966.136    1077.4063     8059.835    78.270922    21.611446    25.461367 
 5185800     223.3801   -128.26054    216009.12   -20676.362    1299.0805   -21975.442    6.6705036    8065.4069    78.270918     21.61166    25.463177 
 5186000    228.09806    85.013419    216009.12   -20639.298    1326.5181   -21965.816    931.36471    8062.1637    78.270103    21.611689    25.467191 
 5186200    225.08514    130.58107    216009.12   -20648.157    1308.9962   -21957.153    1141.8852    8061.8678    78.269918    21.611444    25.465799 
 5186400    228.38293   -39.667413    216009.12   -20658.742    1328.1747   -21986.917    449.62767    8064.9253    78.270467    21.611169     25.46864 
 5186600    227.87748    128.18867    216009.12   -20650.756    1325.2353   -21975.991     1138.289       8063.8    78.270908    21.611866    25.467837 
 5186800    223.25641    121.66627    216009.12   -20644.019    1298.3611    -21942.38    1088.5364    8063.7316    78.271416    21.612107    25.466732 
 5187000    232.95947     58.36492    216009.12   -20665.067    1354.7899   -22019.857    798.62516    8063.7743    78.271535    21.611987    25.468786 
 5187200    224.32503    115.06464    216009.12   -20636.701    1304.5757   -21941.277    1081.9561    8064.3838    78.271429    21.612044     25.46788 
 5187400    228.06137    82.842214    216009.12   -20649.998    1326.3047   -21976.303    941.40337    8064.5352    78.272059    21.612605    25.465282 
 5187600    225.80611    102.35722    216009.12   -20688.856    1313.1891   -22002.045    1025.8108    8063.9271    78.271452    21.613541    25.462998 
 5187800    228.13007    127.86458    216009.12   -20643.507    1326.7042   -21970.211    1124.6646    8062.3559     78.27115    21.612854    25.460173 
 5188000    229.59693    5.0823027    216009.12   -20663.366    1335.2348   -21998.601    606.78748    8064.5461    78.271834    21.613247    25.460572 
 5188200     226.1297    66.396807    216009.12   -20624.502    1315.0709   -21939.573    885.42416     8063.675    78.272405    21.614017    25.463234 
 5188400    230.44707    130.05332    216009.12   -20648.384    1340.1789   -21988.563    1105.2776    8063.5571    78.271981    21.614824    25.460955 
 5188600    229.47664   -30.866818    216009.12   -20641.739    1334.5353   -21976.274    471.14524    8065.5339    78.272515    21.615247    25.464776 
 5188800    227.42299    40.009106    216009.12   -20695.577    1322.5921   -22018.169    776.27974    8065.5306    78.272992    21.616263    25.464581 
 5189000    226.34364    118.55217    216009.12   -20687.968    1316.3151   -22004.283    1091.0249    8061.8775     78.27199    21.616265    25.464186 
 5189200    223.51127   -84.830992    216009.12   -20678.213    1299.8433   -21978.056    212.80294    8066.8312    78.271931    21.616511     25.46237 
 5189400    220.26683   -12.134308    216009.12   -20742.298    1280.9751   -22023.273    505.20932    8066.0405    78.272071     21.61653    25.465086 
 5189600    226.18405    174.13618    216009.12   -20691.302     1315.387   -22006.689    1352.1011    8061.9594    78.272097    21.617051    25.453156 
 5189800    228.76282   -72.400205    216009.12   -20647.316     1330.384     -21977.7    292.64799    8066.1256    78.271888    21.616917    25.454755 
 5190000    224.30013   -40.081811    216009.12   -20684.439     1304.431    -21988.87    428.27465    8068.6345    78.271883    21.617188     25.45902 
 5190200    226.80773    127.01234    216009.12    -20660.84    1319.0141   -21979.854    1114.1818    8063.7275    78.272065    21.617593    25.458939 
 5190400    226.24658    54.576803    216009.12   -20676.283    1315.7507   -21992.034    836.04911     8065.891    78.271966     21.61822    25.461431 
 5190600    232.02795    50.925272    216009.12   -20605.836    1349.3726   -21955.209    820.89978    8065.6229    78.271925    21.618866     25.45811 
 5190800    227.60724    128.38084    216009.12   -20675.149    1323.6637   -21998.813    1138.9977    8064.3704    78.271188    21.620055    25.454429 
 5191000    227.90856    38.646594    216009.12   -20646.062     1325.416   -21971.478    764.09051    8065.0515    78.270818    21.621318    25.450417 
 5191200    224.19937    45.115802    216009.12   -20633.451     1303.845   -21937.296    794.47655     8064.079     78.27063    21.621514    25.454035 
 5191400    224.39078    135.79955    216009.12   -20666.681    1304.9582   -21971.639    1185.2004    8060.7011    78.270365    21.622151    25.461888 
 5191600    226.05781    97.098453    216009.12   -20691.413    1314.6529   -22006.066    1015.6823    8063.5403    78.269858    21.622775    25.458706 
 5191800    227.85456   -44.874852    216009.12   -20685.186     1325.102   -22010.288    414.33476    8067.1688    78.269852    21.622395    25.456228 
 5192000     228.4572    113.93522    216009.12    -20631.75    1328.6066   -21960.357    1071.6294    8064.6179    78.269152    21.622224    25.454421 
 5192200    230.89415    152.98745    216009.12   -20604.881    1342.7789    -21947.66    1229.3744    8062.2016     78.26944    21.622498    25.452825 
 5192400    219.56113   -71.578922    216009.12   -20675.353     1276.871   -21952.224      283.161    8067.3952    78.269799    21.623466    25.451653 
 5192600    227.95395   -9.8035865    216009.12   -20670.129      1325.68   -21995.809    561.36009    8065.3658    78.270245    21.624976    25.457107 
 5192800    225.97294    131.77657    216009.12   -20684.365    1314.1593   -21998.525    1173.0868     8062.846    78.270625     21.62658    25.459201 
 5193000     228.7538   -22.961558    216009.12   -20650.564    1330.3315   -21980.896    478.52212    8065.7788    78.270805    21.626572    25.458347 
 5193200    222.02011   -1.2383583    216009.12   -20721.449    1291.1714    -22012.62     635.0501    8065.8317    78.271566    21.626675    25.462581 
 5193400    230.46525    139.34088    216009.12   -20646.226    1340.2846   -21986.511    1187.1397    8063.5824    78.272384    21.627391    25.464631 
 5193600    229.49981    86.491565    216009.12   -20671.669      1334.67   -22006.339    970.16822    8064.0307     78.27348    21.627991    25.461628 
 5193800     228.2422   -28.723504    216009.12   -20656.511    1327.3563   -21983.868    463.78903    8066.9574     78.27349    21.628341    25.455993 
 5194000     232.6176    18.396691    216009.12   -20650.156    1352.8017   -22002.957    639.42089    8065.4735    78.273317    21.628557    25.457595 
 5194200    224.16368    230.87154    216009.12   -20729.403    1303.6374   -22033.041    1566.7939    8062.0328    78.272863    21.629264    25.456226 
 5194400    226.50595    33.706406    216009.12   -20704.156     1317.259   -22021.415    712.24353    8065.8278     78.27274    21.629934     25.45901 
 5194600    223.97278   -34.429709    216009.12   -20668.955    1302.5272   -21971.482    433.80183    8066.1219    78.272134    21.629892    25.456823 
 5194800    229.94026    143.63705    216009.12   -20628.615    1337.2315   -21965.847    1160.6915    8063.8584    78.271587    21.630218    25.454829 
 5195000    222.93304    55.266633    216009.12   -20690.746    1296.4805   -21987.227    818.92216    8065.3173    78.272089    21.629554    25.458255 
 5195200    239.32653    39.052501    216009.12   -20615.965    1391.8179   -22007.782    745.62974    8066.9133    78.271502    21.629051    25.460588 
 5195400    223.57002    149.56975    216009.12   -20677.616     1300.185   -21977.801    1208.2314     8062.869    78.271375    21.629742    25.458357 
 5195600    227.31785    62.868261    216009.12   -20631.466    1321.9807   -21953.447    834.89058     8064.452     78.27154    21.629886    25.456588 
 5195800    221.01147   -22.784758    216009.12   -20698.154    1285.3055   -21983.459    491.17972    8067.9807    78.270975    21.629892    25.450338 
 5196000    235.57116    109.50658    216009.12   -20614.929    1369.9783   -21984.908    1087.5258    8064.7978    78.271711    21.629572    25.452475 
 5196200    229.90912    35.205011    216009.12   -20638.574    1337.0504   -21975.624    703.75013    8063.5591    78.271896    21.630154     25.45556 
 5196400    227.98071   -49.859559    216009.12    -20683.42    1325.8356   -22009.255    356.03734    8068.0388    78.272307    21.630702    25.452516 
 5196600    230.58841     106.5168    216009.12    -20646.14    1341.0009   -21987.141    1035.9205    8065.1464    78.272347    21.630358    25.454367 
 5196800    233.97778    84.831693    216009.12   -20660.838    1360.7119    -22021.55    955.13887    8062.4513    78.272631    21.629664     25.45084 
 5197000    226.62108    25.641035    216009.12   -20647.504    1317.9286   -21965.432    692.88698    8065.6827    78.273347     21.62953    25.455708 
 5197200    232.73291    78.842678    216009.12   -20630.296    1353.4723   -21983.768    887.92676    8065.1201    78.273734    21.629183    25.464174 
 5197400    225.86096    72.186535    216009.12   -20690.319    1313.5081   -22003.827    909.67624    8063.7586    78.273629    21.628624     25.46232 
 5197600    225.56241    24.383162    216009.12   -20700.408    1311.7718    -22012.18    667.61219    8064.3208    78.274149    21.628441    25.451899 
 5197800    225.06445    22.210472    216009.12   -20711.496    1308.8759   -22020.372    662.87008    8063.9202    78.275156    21.628699    25.456543 
 5198000    222.18216    96.646604    216009.12   -20747.787    1292.1138   -22039.901    998.92336    8064.0737    78.275543     21.62886    25.458073 
 5198200    221.85854   -1.9833565    216009.12   -20649.989    1290.2317   -21940.221    580.96853    8064.7727    78.275087    21.629593    25.458017 
 5198400    231.83295    1.1428441    216009.12   -20639.333    1348.2386   -21987.571    632.08141    8063.2666     78.27558    21.629875    25.451432 
 5198600    226.74546    57.346309    216009.12   -20654.729    1318.6519   -21973.381    854.60288    8064.9205    78.275699    21.630269    25.451527 
 5198800    220.56119    30.653867    216009.12   -20730.533    1282.6869    -22013.22      713.524    8065.4354    78.276326      21.6311    25.449045 
 5199000    221.81674   -70.039882    216009.12   -20694.975    1289.9887   -21984.963    276.07836    8066.2398    78.276433    21.631295     25.46145 
 5199200    232.33612    96.339779    216009.12   -20594.024    1351.1647   -21945.188    1021.3108    8064.6758    78.276126    21.631225    25.458255 
 5199400    222.90294    108.17038    216009.12   -20708.018    1296.3055   -22004.323    1047.9922    8066.1655     78.27662    21.631241    25.451014 
 5199600    222.73603   -7.2021844    216009.12   -20696.658    1295.3348   -21991.993     560.5742    8068.6392    78.276117    21.631139    25.451458 
 5199800    227.67296    79.302685    216009.12   -20658.463    1324.0459   -21982.509    906.26838    8064.4466    78.276274    21.630923    25.456014 
 5200000    218.90014    113.14305    216009.12   -20670.836     1273.027   -21943.863    1025.4557    8063.6272    78.276587    21.631587    25.454481 
Loop time of 6905.28 on 160 procs for 5200000 steps with 9248 atoms

Performance: 650.633 ns/day, 0.037 hours/ns, 753.047 timesteps/s
97.7% CPU use with 160 MPI tasks x no OpenMP threads

MPI task timing breakdown:
Section |  min time  |  avg time  |  max time  |%varavg| %total
---------------------------------------------------------------
Pair    | 0.24058    | 1426.2     | 5544.8     |5174.1 | 20.65
Neigh   | 0.3063     | 90.118     | 353.31     |1231.3 |  1.31
Comm    | 11.1       | 1663.8     | 5542.6     |4619.9 | 24.09
Output  | 89.524     | 89.6       | 91.537     |   1.6 |  1.30
Modify  | 210.4      | 3535.4     | 6711       |4753.0 | 51.20
Other   |            | 100.2      |            |       |  1.45

Nlocal:    57.8 ave 196 max 0 min
Histogram: 72 21 27 0 0 0 0 0 13 27
Nghost:    535.219 ave 926 max 0 min
Histogram: 22 2 0 8 8 33 39 16 23 9
Neighs:    0 ave 0 max 0 min
Histogram: 160 0 0 0 0 0 0 0 0 0
FullNghs:  5875.57 ave 23631 max 0 min
Histogram: 108 12 0 0 0 0 0 1 20 19

Total # of neighbors = 940092
Ave neighs/atom = 101.654
Neighbor list builds = 540217
Dangerous builds = 0
write_data 		${DIR}/data.${NAME}_run
write_data 		run_30/data.${NAME}_run
write_data 		run_30/data.ibeam_cooling_30_run
Total wall time: 1:55:20
