

### IMPORT ATOMS ###
read_data ../Box_Setup/data.Ibeam_240K
  orthogonal box = (0 0 0) to (157.504 40.4305 33.9212)
  10 by 4 by 4 MPI processor grid
  reading atoms ...
  9248 atoms
  reading velocities ...
  9248 velocities
group water type 2
1952 atoms in group water
group graphite type 1
7296 atoms in group graphite


# Define potential
#
pair_style          sw
pair_coeff * * MLC_e.sw C mW

# Add velocity/set timestep
#

fix		1 graphite setforce 0.0 0.0 0.0
velocity 	graphite set 0.0 0.0 0.0
velocity            water create ${START_TEMP} ${SEED} rot yes dist gaussian
velocity            water create 240 ${SEED} rot yes dist gaussian
velocity            water create 240 4873 rot yes dist gaussian
timestep            5.0

# Define output
#
compute 1 water msd
compute 2 water temp


thermo	            100
thermo_style custom step c_2 press vol etotal ke pe c_1[4] density

# Neighbor lists
#
neigh_modify        delay 0 every 1 check yes


# Set fixes
#
fix                 2 water momentum 10 linear 1 1 1 rescale
fix                 3 all nve
fix                 4 water temp/csvr ${START_TEMP} ${START_TEMP} 500.0 928347
fix                 4 water temp/csvr 240 ${START_TEMP} 500.0 928347
fix                 4 water temp/csvr 240 240 500.0 928347

# Run 0.05 ns equilibration
#
dump                1 all custom 100 ${DIR}/eq.${NAME}.dump id type x y z vx vy vz
dump                1 all custom 100 run_30/eq.${NAME}.dump id type x y z vx vy vz
dump                1 all custom 100 run_30/eq.ibeam_cooling_30.dump id type x y z vx vy vz
run                 10000
Neighbor list info ...
  update every 1 steps, delay 0 steps, check yes
  max neighbors/atom: 2000, page size: 100000
  master list distance cutoff = 6.67472
  ghost atom cutoff = 6.67472
  binsize = 3.33736, bins = 48 13 11
  1 neighbor lists, perpetual/occasional/extra = 1 0 0
  (1) pair sw, perpetual
      attributes: full, newton on
      pair build: full/bin/atomonly
      stencil: full/bin/3d
      bin: standard
Per MPI rank memory allocation (min/avg/max) = 0.4647 | 3.681 | 4.743 Mbytes
Step c_2 Press Volume TotEng KinEng PotEng c_1[4] Density 
       0          240   -299.33439    216009.12   -18704.344    1395.7345   -20100.079            0   0.94393226 
     100    239.97597    -224.2364    216009.12   -18709.162    1395.5947   -20104.757   0.81062369   0.94393226 
     200    235.42638   -303.51783    216009.12    -18763.25    1369.1363   -20132.386    1.2181834   0.94393226 
     300    244.44694    -342.1358    216009.12   -18731.809     1421.596   -20153.405    1.5024572   0.94393226 
     400    229.60064   -351.39103    216009.12   -18749.289    1335.2564   -20084.545    1.7567777   0.94393226 
     500    240.93169   -333.68544    216009.12   -18743.611    1401.1528   -20144.763    2.0816332   0.94393226 
     600    243.34543   -37.911319    216009.12   -18655.637    1415.1901   -20070.827    2.4898209   0.94393226 
     700    242.51626   -58.203768    216009.12   -18654.752    1410.3679    -20065.12    2.7639294   0.94393226 
     800    246.62292   -274.71283    216009.12   -18639.937    1434.2505   -20074.187    2.9959677   0.94393226 
     900    242.60569   -344.57056    216009.12   -18680.742     1410.888    -20091.63    3.4690934   0.94393226 
    1000    237.29265    -170.0521    216009.12   -18726.174    1379.9898   -20106.164    3.7761293   0.94393226 
    1100      242.946   -284.48935    216009.12   -18701.818    1412.8671   -20114.685    3.9689411   0.94393226 
    1200    239.68095   -116.48424    216009.12   -18687.248    1393.8791   -20081.127    4.3717589   0.94393226 
    1300    242.82557   -182.88963    216009.12   -18651.172    1412.1668   -20063.339    4.7443058   0.94393226 
    1400    235.98106   -190.84668    216009.12   -18678.067    1372.3621   -20050.429    5.0580664   0.94393226 
    1500    235.24498   -124.09235    216009.12   -18694.736    1368.0814   -20062.818    5.5084591   0.94393226 
    1600    237.82208   -259.90587    216009.12   -18675.511    1383.0687   -20058.579    5.7245418   0.94393226 
    1700    240.57076    -463.7134    216009.12   -18663.939    1399.0538   -20062.992    6.2294448   0.94393226 
    1800    243.48113   -295.26855    216009.12    -18645.37    1415.9792   -20061.349    6.6007616   0.94393226 
    1900    240.94105   -336.88606    216009.12   -18610.057    1401.2073   -20011.264    6.9403436   0.94393226 
    2000    245.68493   -207.94259    216009.12    -18591.78    1428.7956   -20020.576    7.2501254   0.94393226 
    2100    242.66925   -220.04745    216009.12   -18700.744    1411.2577   -20112.002    7.5531722   0.94393226 
    2200    239.73167   -466.80663    216009.12   -18695.478     1394.174   -20089.652    7.7826638   0.94393226 
    2300    236.30951   -357.38417    216009.12   -18668.591    1374.2722   -20042.863    8.3111134   0.94393226 
    2400    242.99692   -350.72851    216009.12   -18661.072    1413.1633   -20074.235    8.7208818   0.94393226 
    2500     239.6327   -379.50724    216009.12   -18679.432    1393.5985   -20073.031    9.1279916   0.94393226 
    2600    238.48684   -272.78089    216009.12    -18671.46    1386.9346   -20058.394    9.2830306   0.94393226 
    2700    243.91987   -459.00004    216009.12   -18663.491    1418.5307   -20082.022    9.5420826   0.94393226 
    2800    245.61307    -345.1405    216009.12   -18629.636    1428.3776   -20058.013    9.8927847   0.94393226 
    2900    243.52071   -421.82177    216009.12   -18647.119    1416.2094   -20063.328    10.055645   0.94393226 
    3000    240.70655   -478.22552    216009.12   -18631.071    1399.8435   -20030.914    10.363542   0.94393226 
    3100     244.1839   -417.82262    216009.12   -18617.395    1420.0662   -20037.461    10.617755   0.94393226 
    3200    243.55154   -375.46936    216009.12   -18677.579    1416.3887   -20093.968    10.775802   0.94393226 
    3300    231.79716   -381.28527    216009.12   -18745.783    1348.0304   -20093.813    11.089034   0.94393226 
    3400    237.38878    -182.5097    216009.12   -18691.184    1380.5488   -20071.733    11.420512   0.94393226 
    3500    240.43618     -319.334    216009.12   -18678.593    1398.2711   -20076.864    11.825724   0.94393226 
    3600    243.94415   -254.23261    216009.12   -18677.624    1418.6719   -20096.296    11.915642   0.94393226 
    3700    236.63709   -356.80055    216009.12   -18669.324    1376.1773   -20045.502    12.391959   0.94393226 
    3800    235.61848   -292.62619    216009.12   -18648.468    1370.2535   -20018.721    12.968342   0.94393226 
    3900    239.71616   -276.15637    216009.12   -18641.169    1394.0838   -20035.253    13.301552   0.94393226 
    4000    240.83456   -217.93119    216009.12   -18685.626    1400.5879   -20086.214    13.721558   0.94393226 
    4100    233.69103   -147.44465    216009.12   -18677.373    1359.0443   -20036.418    14.418171   0.94393226 
    4200    244.45381   -254.29451    216009.12   -18651.305    1421.6359   -20072.941    14.736733   0.94393226 
    4300    238.83195   -419.47085    216009.12   -18696.381    1388.9416   -20085.323    15.116454   0.94393226 
    4400    237.02495   -401.54084    216009.12   -18666.175    1378.4329   -20044.608    15.289557   0.94393226 
    4500    242.32845   -380.75597    216009.12   -18710.193    1409.2758   -20119.469    15.373168   0.94393226 
    4600    239.22797   -314.27638    216009.12   -18760.017    1391.2447   -20151.262    15.621008   0.94393226 
    4700      239.826   -370.75347    216009.12   -18688.432    1394.7226   -20083.154    15.906297   0.94393226 
    4800    237.88308   -192.03805    216009.12   -18647.365    1383.4234   -20030.789    16.219843   0.94393226 
    4900    250.25058   -320.80265    216009.12   -18617.122    1455.3474    -20072.47     16.79185   0.94393226 
    5000    239.22589   -326.16632    216009.12   -18674.266    1391.2326   -20065.498    17.066916   0.94393226 
    5100    247.30326   -299.09252    216009.12   -18654.005    1438.2071   -20092.212    17.127748   0.94393226 
    5200    245.82214   -365.89827    216009.12   -18688.332    1429.5935   -20117.925    17.276148   0.94393226 
    5300    236.06951    -314.2121    216009.12   -18744.423    1372.8765   -20117.299    17.625285   0.94393226 
    5400     236.7364    -364.3962    216009.12   -18734.307    1376.7549   -20111.062    17.963885   0.94393226 
    5500    233.61729   -392.86059    216009.12   -18719.827    1358.6155   -20078.443    18.295674   0.94393226 
    5600    235.91339   -423.61613    216009.12   -18755.243    1371.9686   -20127.212    18.311082   0.94393226 
    5700    245.68838   -209.37606    216009.12   -18710.033    1428.8156   -20138.849    18.451749   0.94393226 
    5800    235.61263    -200.4274    216009.12   -18695.749    1370.2195   -20065.968    18.804274   0.94393226 
    5900    236.05072   -283.19536    216009.12   -18724.774    1372.7672   -20097.541     19.08314   0.94393226 
    6000    235.07248   -205.38791    216009.12   -18730.311    1367.0782   -20097.389    19.504544   0.94393226 
    6100    230.93902    -494.2929    216009.12    -18743.11    1343.0398   -20086.149     19.54068   0.94393226 
    6200    236.99754   -415.32318    216009.12   -18729.339    1378.2735   -20107.612    19.764466   0.94393226 
    6300    236.51829   -327.42649    216009.12   -18656.378    1375.4864   -20031.864     19.93223   0.94393226 
    6400    242.29372   -241.97862    216009.12   -18690.326    1409.0737     -20099.4    20.249786   0.94393226 
    6500    241.07953   -329.63353    216009.12   -18702.581    1402.0126   -20104.593    20.523027   0.94393226 
    6600     235.2358    -113.9206    216009.12   -18745.275     1368.028   -20113.303    20.759111   0.94393226 
    6700    235.16517   -291.73457    216009.12   -18760.678    1367.6173   -20128.296    21.213563   0.94393226 
    6800     236.6206    -318.2322    216009.12   -18740.787    1376.0814   -20116.868    21.652904   0.94393226 
    6900    242.29343   -379.10574    216009.12   -18711.968    1409.0721    -20121.04    22.259313   0.94393226 
    7000    240.49524    -214.8887    216009.12    -18710.98    1398.6146   -20109.594    22.729308   0.94393226 
    7100    236.05088   -438.73858    216009.12   -18719.514    1372.7682   -20092.283    22.824453   0.94393226 
    7200    234.43735   -274.51637    216009.12   -18765.429    1363.3846   -20128.813    23.201946   0.94393226 
    7300    235.06272   -266.20564    216009.12   -18794.785    1367.0215   -20161.807    23.386298   0.94393226 
    7400    241.61653   -95.228481    216009.12   -18783.513    1405.1355   -20188.648    23.588629   0.94393226 
    7500    240.22633   -410.41317    216009.12   -18768.182    1397.0507   -20165.233    23.911378   0.94393226 
    7600    241.50442   -327.58062    216009.12   -18720.329    1404.4835   -20124.813    24.274737   0.94393226 
    7700    241.27544   -291.46026    216009.12   -18716.381    1403.1519   -20119.532    24.512051   0.94393226 
    7800    225.58248   -484.34195    216009.12   -18775.556    1311.8886   -20087.444    24.812806   0.94393226 
    7900    243.09396   -399.90975    216009.12   -18744.997    1413.7276   -20158.724    25.044429   0.94393226 
    8000    243.28752   -192.55053    216009.12   -18701.596    1414.8533   -20116.449    25.285736   0.94393226 
    8100    239.81552   -67.042245    216009.12   -18679.807    1394.6617   -20074.469    25.356656   0.94393226 
    8200    240.74601   -160.30491    216009.12   -18683.841     1400.073   -20083.914    25.668867   0.94393226 
    8300    241.00785   -300.37591    216009.12   -18639.669    1401.5957   -20041.264    25.770471   0.94393226 
    8400    246.15073   -331.70354    216009.12    -18611.19    1431.5044   -20042.695    26.302963   0.94393226 
    8500    243.38089   -266.83072    216009.12   -18642.767    1415.3962   -20058.164    26.600623   0.94393226 
    8600    241.76367   -280.25085    216009.12   -18666.341    1405.9912   -20072.333    27.178475   0.94393226 
    8700    241.84354   -251.83492    216009.12   -18680.101    1406.4557   -20086.557    28.148623   0.94393226 
    8800    241.43276    -225.5713    216009.12   -18687.181    1404.0668   -20091.248    28.548514   0.94393226 
    8900    239.27291   -279.73233    216009.12   -18728.549    1391.5061   -20120.055    28.392931   0.94393226 
    9000    237.13308   -404.21989    216009.12   -18694.296    1379.0617   -20073.357    28.683473   0.94393226 
    9100    237.73212   -407.15084    216009.12   -18711.282    1382.5455   -20093.828    28.928489   0.94393226 
    9200     243.7129   -136.42365    216009.12   -18667.623    1417.3271    -20084.95    29.150009   0.94393226 
    9300    238.17944   -118.53077    216009.12   -18737.106    1385.1469   -20122.253    29.468986   0.94393226 
    9400    243.54897   -344.95207    216009.12   -18713.962    1416.3738   -20130.335    29.583057   0.94393226 
    9500    230.13324   -489.83599    216009.12   -18737.882    1338.3537   -20076.236    29.933509   0.94393226 
    9600    227.12504   -452.17624    216009.12   -18741.296    1320.8594   -20062.155    30.634171   0.94393226 
    9700    239.43401   -174.49428    216009.12   -18690.583    1392.4429   -20083.026    30.923284   0.94393226 
    9800    238.21583   -291.06986    216009.12   -18639.107    1385.3585   -20024.466    31.289284   0.94393226 
    9900    243.05947   -197.37165    216009.12       -18648     1413.527   -20061.527     31.51499   0.94393226 
   10000    237.63571   -267.90525    216009.12   -18646.344    1381.9848   -20028.328    31.742164   0.94393226 
Loop time of 14.5806 on 160 procs for 10000 steps with 9248 atoms

Performance: 296.285 ns/day, 0.081 hours/ns, 685.845 timesteps/s
97.7% CPU use with 160 MPI tasks x no OpenMP threads

MPI task timing breakdown:
Section |  min time  |  avg time  |  max time  |%varavg| %total
---------------------------------------------------------------
Pair    | 0.00042915 | 2.9576     | 11.967     | 237.3 | 20.28
Neigh   | 0.00032687 | 0.095362   | 0.36328    |  39.4 |  0.65
Comm    | 0.013893   | 3.5407     | 11.75      | 221.5 | 24.28
Output  | 0.18197    | 0.18214    | 0.18891    |   0.1 |  1.25
Modify  | 0.38229    | 7.6409     | 14.237     | 221.1 | 52.40
Other   |            | 0.1638     |            |       |  1.12

Nlocal:    57.8 ave 196 max 0 min
Histogram: 72 23 25 0 0 0 0 0 13 27
Nghost:    534.744 ave 934 max 0 min
Histogram: 24 0 0 8 7 49 24 16 22 10
Neighs:    0 ave 0 max 0 min
Histogram: 160 0 0 0 0 0 0 0 0 0
FullNghs:  5916.04 ave 23741 max 0 min
Histogram: 102 18 0 0 0 0 0 2 20 18

Total # of neighbors = 946566
Ave neighs/atom = 102.354
Neighbor list builds = 572
Dangerous builds = 0
write_data 	    ${DIR}/data.${NAME}_eq
write_data 	    run_30/data.${NAME}_eq
write_data 	    run_30/data.ibeam_cooling_30_eq

undump              1
unfix               4



################################################
#######         Run Simulation         #########
################################################

reset_timestep      0
timestep	    10.0
log                 ${DIR}/log.run_${NAME}
log                 run_30/log.run_${NAME}
log                 run_30/log.run_ibeam_cooling_30
