

### IMPORT ATOMS ###
read_data ../Box_Setup/data.Ibeam_240K
  orthogonal box = (0 0 0) to (157.504 40.4305 33.9212)
  10 by 4 by 4 MPI processor grid
  reading atoms ...
  9248 atoms
  reading velocities ...
  9248 velocities
group water type 2
1952 atoms in group water
group graphite type 1
7296 atoms in group graphite


# Define potential
#
pair_style          sw
pair_coeff * * MLC_e.sw C mW

# Add velocity/set timestep
#

fix		1 graphite setforce 0.0 0.0 0.0
velocity 	graphite set 0.0 0.0 0.0
velocity            water create ${START_TEMP} ${SEED} rot yes dist gaussian
velocity            water create 240 ${SEED} rot yes dist gaussian
velocity            water create 240 23417 rot yes dist gaussian
timestep            5.0

# Define output
#
compute 1 water msd
compute 2 water temp


thermo	            100
thermo_style custom step c_2 press vol etotal ke pe c_1[4] density

# Neighbor lists
#
neigh_modify        delay 0 every 1 check yes


# Set fixes
#
fix                 2 water momentum 10 linear 1 1 1 rescale
fix                 3 all nve
fix                 4 water temp/csvr ${START_TEMP} ${START_TEMP} 500.0 928347
fix                 4 water temp/csvr 240 ${START_TEMP} 500.0 928347
fix                 4 water temp/csvr 240 240 500.0 928347

# Run 0.05 ns equilibration
#
dump                1 all custom 100 ${DIR}/eq.${NAME}.dump id type x y z vx vy vz
dump                1 all custom 100 run_28/eq.${NAME}.dump id type x y z vx vy vz
dump                1 all custom 100 run_28/eq.ibeam_cooling_28.dump id type x y z vx vy vz
run                 10000
Neighbor list info ...
  update every 1 steps, delay 0 steps, check yes
  max neighbors/atom: 2000, page size: 100000
  master list distance cutoff = 6.67472
  ghost atom cutoff = 6.67472
  binsize = 3.33736, bins = 48 13 11
  1 neighbor lists, perpetual/occasional/extra = 1 0 0
  (1) pair sw, perpetual
      attributes: full, newton on
      pair build: full/bin/atomonly
      stencil: full/bin/3d
      bin: standard
Per MPI rank memory allocation (min/avg/max) = 0.4647 | 3.681 | 4.743 Mbytes
Step c_2 Press Volume TotEng KinEng PotEng c_1[4] Density 
       0          240   -299.33439    216009.12   -18704.344    1395.7345   -20100.079            0   0.94393226 
     100    229.40917   -468.98751    216009.12   -18703.118    1334.1429   -20037.261   0.77921527   0.94393226 
     200    244.20738   -298.66791    216009.12   -18741.877    1420.2027    -20162.08    1.1886066   0.94393226 
     300    237.97028   -311.76725    216009.12   -18707.684    1383.9305   -20091.614    1.5737183   0.94393226 
     400     239.9623   -229.78886    216009.12   -18716.009    1395.5152   -20111.524    1.9219238   0.94393226 
     500    239.02992   -302.60859    216009.12   -18692.643    1390.0929   -20082.736    2.3200588   0.94393226 
     600    240.90841   -190.04666    216009.12   -18611.164    1401.0174   -20012.181    2.6985952   0.94393226 
     700    239.72443   -174.74922    216009.12   -18604.901    1394.1319   -19999.033    3.1416783   0.94393226 
     800    245.39958   -375.43512    216009.12   -18573.911    1427.1361   -20001.047    3.6448598   0.94393226 
     900    236.38735   -247.73761    216009.12   -18612.915    1374.7249    -19987.64    4.0416337   0.94393226 
    1000    243.78491   -335.89157    216009.12   -18664.299    1417.7459   -20082.045    4.2222323   0.94393226 
    1100    236.75023   -225.43934    216009.12   -18643.851    1376.8352   -20020.686    4.5826573   0.94393226 
    1200    236.17345   -335.62629    216009.12   -18624.821    1373.4809   -19998.302    5.0456655   0.94393226 
    1300    247.99258   -241.48658    216009.12   -18579.678    1442.2158   -20021.894    5.3897668   0.94393226 
    1400    242.27712   -298.94937    216009.12   -18612.372    1408.9772    -20021.35    5.6454149   0.94393226 
    1500    242.09111   -148.15448    216009.12   -18632.333    1407.8955   -20040.228    6.1410831   0.94393226 
    1600    242.63284   -431.32845    216009.12   -18625.366    1411.0459   -20036.412    6.2757893   0.94393226 
    1700    241.13986   -246.97599    216009.12   -18637.023    1402.3634   -20039.386    6.6030376   0.94393226 
    1800    244.00122   -245.61698    216009.12   -18624.256    1419.0038    -20043.26    6.9613709   0.94393226 
    1900    245.59173   -229.71413    216009.12   -18592.366    1428.2536    -20020.62    7.2673695   0.94393226 
    2000    241.18459   -308.16636    216009.12   -18567.295    1402.6236   -19969.918    7.6165564   0.94393226 
    2100    234.14483   -228.23789    216009.12   -18655.654    1361.6834   -20017.337    7.7889447   0.94393226 
    2200    241.05268   -373.61477    216009.12   -18641.486    1401.8564   -20043.343    7.9900559   0.94393226 
    2300    238.00327   -309.66943    216009.12   -18620.023    1384.1224   -20004.145    8.4274712   0.94393226 
    2400    237.54217   -375.12566    216009.12   -18624.846    1381.4408   -20006.287    8.9130159   0.94393226 
    2500    240.22486    -177.5152    216009.12   -18651.127    1397.0422   -20048.169    9.1700286   0.94393226 
    2600    243.16903   -206.50941    216009.12   -18639.358    1414.1642   -20053.522    9.4864739   0.94393226 
    2700    239.54903   -463.07862    216009.12   -18637.825    1393.1119   -20030.937    9.7870119   0.94393226 
    2800    242.94572   -178.13538    216009.12   -18596.658    1412.8655   -20009.523    10.009486   0.94393226 
    2900     244.4974   -250.54825    216009.12   -18603.044    1421.8894   -20024.933    10.448759   0.94393226 
    3000    240.41741   -302.57602    216009.12   -18592.823     1398.162   -19990.985     10.81766   0.94393226 
    3100    249.96241   -232.57671    216009.12   -18588.006    1453.6715   -20041.677    11.188263   0.94393226 
    3200    240.24976   -280.30555    216009.12    -18638.17     1397.187   -20035.357    11.622179   0.94393226 
    3300    233.73764   -262.78445    216009.12   -18715.434    1359.3154    -20074.75    11.721542   0.94393226 
    3400    243.56034   -324.64728    216009.12    -18660.61    1416.4398   -20077.049    11.879289   0.94393226 
    3500    241.05749   -318.80804    216009.12   -18656.483    1401.8844   -20058.367    12.362603   0.94393226 
    3600    235.65814   -344.00839    216009.12   -18647.284    1370.4841   -20017.768    12.795571   0.94393226 
    3700    244.79455   -277.42968    216009.12   -18630.436    1423.6175   -20054.053    12.902284   0.94393226 
    3800    242.97977   -262.43403    216009.12   -18613.363    1413.0635   -20026.426    13.299613   0.94393226 
    3900    240.37309   -422.26581    216009.12   -18629.944    1397.9042   -20027.848    13.647609   0.94393226 
    4000    235.38924   -394.27291    216009.12   -18664.937    1368.9203   -20033.857    13.983938   0.94393226 
    4100    236.39921   -298.72361    216009.12    -18656.85    1374.7939   -20031.644    14.354125   0.94393226 
    4200    241.75026   -388.17473    216009.12   -18633.618    1405.9132   -20039.531    14.570731   0.94393226 
    4300    240.01295   -325.73558    216009.12   -18695.883    1395.8098   -20091.693     14.98394   0.94393226 
    4400     241.0668   -254.79546    216009.12   -18662.188    1401.9385   -20064.127    15.624387   0.94393226 
    4500    241.30261   -167.64118    216009.12   -18702.804    1403.3099   -20106.114    15.612903   0.94393226 
    4600    234.47735   -211.14069    216009.12   -18759.573    1363.6172    -20123.19     16.03263   0.94393226 
    4700    239.89593   -383.72447    216009.12   -18680.503    1395.1293   -20075.632    16.463945   0.94393226 
    4800    245.80197   -344.08128    216009.12   -18652.283    1429.4762    -20081.76     16.79821   0.94393226 
    4900    242.93924   -228.56737    216009.12   -18620.525    1412.8278   -20033.353    17.044943   0.94393226 
    5000    240.68847   -154.04352    216009.12   -18666.746    1399.7383   -20066.484    17.105422   0.94393226 
    5100    238.31227   -279.51284    216009.12   -18648.112    1385.9194   -20034.031     17.45849   0.94393226 
    5200    238.45179    -323.2566    216009.12   -18671.298    1386.7308   -20058.028    17.814396   0.94393226 
    5300    237.05639   -454.99464    216009.12   -18732.787    1378.6158   -20111.403    18.362077   0.94393226 
    5400    231.21634   -437.87125    216009.12   -18715.954    1344.6526   -20060.607    18.610799   0.94393226 
    5500    245.72998   -375.47041    216009.12   -18699.795    1429.0576   -20128.853    18.654039   0.94393226 
    5600      236.087   -322.64057    216009.12   -18725.657    1372.9782   -20098.635     18.83297   0.94393226 
    5700     239.2766   -337.05006    216009.12   -18679.907    1391.5275   -20071.435    18.891159   0.94393226 
    5800    243.05591   -351.68446    216009.12   -18664.818    1413.5063   -20078.324    19.202891   0.94393226 
    5900    242.27113   -147.18377    216009.12   -18701.704    1408.9424   -20110.647    19.597174   0.94393226 
    6000    235.08376   -206.14469    216009.12   -18709.338    1367.1438   -20076.482    19.992496   0.94393226 
    6100    230.61307   -354.45983    216009.12   -18740.922    1341.1442   -20082.066    20.811597   0.94393226 
    6200    238.33906   -342.13718    216009.12   -18744.928    1386.0752   -20131.003    21.185726   0.94393226 
    6300    243.26888   -373.25539    216009.12   -18681.335    1414.7448    -20096.08    21.657166   0.94393226 
    6400     246.1852   -247.78802    216009.12   -18705.206    1431.7049   -20136.911    22.068941   0.94393226 
    6500     240.0215   -153.64128    216009.12   -18727.444    1395.8595   -20123.303    22.484997   0.94393226 
    6600    237.29057   -116.86603    216009.12   -18765.347    1379.9777   -20145.325    22.844056   0.94393226 
    6700    227.05474    -510.0822    216009.12   -18766.686    1320.4505   -20087.137    22.976626   0.94393226 
    6800    242.94705   -263.99678    216009.12   -18753.457    1412.8733    -20166.33    23.347699   0.94393226 
    6900    240.79357   -286.60274    216009.12   -18724.214    1400.3495   -20124.563     23.97591   0.94393226 
    7000    242.82109   -206.16021    216009.12   -18712.904    1412.1407   -20125.044    24.965177   0.94393226 
    7100    236.79512   -253.63478    216009.12   -18723.829    1377.0963   -20100.925    25.230989   0.94393226 
    7200    233.49052    -391.8257    216009.12   -18772.035    1357.8782   -20129.913    25.841827   0.94393226 
    7300     236.4924   -250.28288    216009.12   -18793.569    1375.3358   -20168.904     26.67921   0.94393226 
    7400    241.97525   -411.85999    216009.12    -18767.87    1407.2217   -20175.091     27.11434   0.94393226 
    7500    237.55965    -386.9898    216009.12   -18744.865    1381.5425   -20126.408    27.575529   0.94393226 
    7600    239.45045   -458.86235    216009.12   -18719.403    1392.5386   -20111.941    27.910601   0.94393226 
    7700    234.49188   -433.73993    216009.12   -18722.707    1363.7017   -20086.408     28.12271   0.94393226 
    7800    229.36795   -357.81418    216009.12   -18771.213    1333.9032   -20105.116    28.774834   0.94393226 
    7900    236.58863    -218.8824    216009.12   -18726.606    1375.8955   -20102.502    29.194906   0.94393226 
    8000    238.77789   -212.46067    216009.12   -18672.726    1388.6272   -20061.353    29.388564   0.94393226 
    8100    245.78412   -343.49457    216009.12   -18655.526    1429.3724   -20084.898    29.068787   0.94393226 
    8200    243.64067   -287.79795    216009.12   -18663.667     1416.907   -20080.575    28.993394   0.94393226 
    8300    237.70271   -303.91985    216009.12   -18625.503    1382.3745   -20007.877    29.414071   0.94393226 
    8400    250.49079   -417.89895    216009.12   -18598.106    1456.7443    -20054.85    29.797501   0.94393226 
    8500    244.91988   -212.86499    216009.12   -18616.564    1424.3463    -20040.91    30.103123   0.94393226 
    8600     242.1226    -198.8256    216009.12   -18645.481    1408.0786   -20053.559    30.432167   0.94393226 
    8700    239.80779   -283.25223    216009.12    -18672.06    1394.6167   -20066.677    30.638915   0.94393226 
    8800    241.85253   -530.51574    216009.12   -18673.255     1406.508   -20079.763    30.559341   0.94393226 
    8900    239.42777    -367.8504    216009.12   -18696.257    1392.4067   -20088.663    30.770067   0.94393226 
    9000    242.35832   -235.32436    216009.12   -18665.516    1409.4494   -20074.966     31.20805   0.94393226 
    9100     240.1332   -232.78129    216009.12   -18676.607    1396.5091   -20073.116    31.385851   0.94393226 
    9200    236.33931   -280.02919    216009.12   -18624.538    1374.4456   -19998.984    31.367897   0.94393226 
    9300    231.33568   -336.99607    216009.12   -18664.291    1345.3466   -20009.638    31.501444   0.94393226 
    9400    236.94894   -376.48057    216009.12   -18638.646    1377.9909   -20016.636    31.491243   0.94393226 
    9500    239.45814   -412.44395    216009.12   -18665.167    1392.5833    -20057.75    31.906728   0.94393226 
    9600    231.95337   -314.06636    216009.12   -18685.074    1348.9388   -20034.012    32.312602   0.94393226 
    9700    238.24211    -398.2304    216009.12    -18641.99    1385.5114   -20027.501    32.663494   0.94393226 
    9800    246.15443   -381.01024    216009.12   -18591.869     1431.526   -20023.395    32.734703   0.94393226 
    9900    233.61109   -245.55953    216009.12   -18614.228    1358.5794   -19972.807    33.211123   0.94393226 
   10000    241.55123    -309.0332    216009.12   -18612.263    1404.7558   -20017.019    33.450409   0.94393226 
Loop time of 14.528 on 160 procs for 10000 steps with 9248 atoms

Performance: 297.356 ns/day, 0.081 hours/ns, 688.325 timesteps/s
97.7% CPU use with 160 MPI tasks x no OpenMP threads

MPI task timing breakdown:
Section |  min time  |  avg time  |  max time  |%varavg| %total
---------------------------------------------------------------
Pair    | 0.00045609 | 2.9596     | 11.814     | 235.3 | 20.37
Neigh   | 0.00032258 | 0.095331   | 0.37517    |  39.4 |  0.66
Comm    | 0.014309   | 3.6194     | 11.569     | 218.0 | 24.91
Output  | 0.175      | 0.17519    | 0.18382    |   0.2 |  1.21
Modify  | 0.43203    | 7.5289     | 14.2       | 221.0 | 51.82
Other   |            | 0.1496     |            |       |  1.03

Nlocal:    57.8 ave 196 max 0 min
Histogram: 72 20 28 0 0 0 0 0 13 27
Nghost:    534.269 ave 920 max 0 min
Histogram: 24 0 0 8 8 38 33 16 17 16
Neighs:    0 ave 0 max 0 min
Histogram: 160 0 0 0 0 0 0 0 0 0
FullNghs:  5909.3 ave 23715 max 0 min
Histogram: 102 18 0 0 0 0 0 2 20 18

Total # of neighbors = 945488
Ave neighs/atom = 102.237
Neighbor list builds = 568
Dangerous builds = 0
write_data 	    ${DIR}/data.${NAME}_eq
write_data 	    run_28/data.${NAME}_eq
write_data 	    run_28/data.ibeam_cooling_28_eq

undump              1
unfix               4



################################################
#######         Run Simulation         #########
################################################

reset_timestep      0
timestep	    10.0
log                 ${DIR}/log.run_${NAME}
log                 run_28/log.run_${NAME}
log                 run_28/log.run_ibeam_cooling_28
