
# Set production fixes - Nose/Hoover
#
fix                 4 water temp/csvr ${START_TEMP} ${END_TEMP} 500.0 928347
fix                 4 water temp/csvr 240 ${END_TEMP} 500.0 928347
fix                 4 water temp/csvr 240 227 500.0 928347


## divide "droplet" into core and surface
#region		core_reg cylinder z 135 135 44.6 20 INF units box
#region		surface_reg cylinder z 135 135 44.6 20 INF units box side out
#group		core dynamic all region core_reg
#group		surface dynamic all region surface_reg

## compute pressure core
#compute        peratom_core core stress/atom NULL
#compute        p_core core reduce sum c_peratom_core[1] c_peratom_core[2] c_peratom_core[3]
#variable       press_core equal -(c_p_core[1]+c_p_core[2]+c_p_core[3])/(3*1249982.5)


## compute pressure surface
#compute        peratom_surf surface stress/atom NULL
#compute        p_surf surface reduce sum c_peratom_surf[1] c_peratom_surf[2] #c_peratom_surf[3]
#variable       press_surf equal -(c_p_surf[1]+c_p_surf[2]+c_p_surf[3])/(3*42395)

## compute total pressure of drop
compute        peratom water stress/atom NULL
compute        p water reduce sum c_peratom[1] c_peratom[2] c_peratom[3]
variable       press equal -(c_p[1]+c_p[2]+c_p[3])/(3*50320)


# compute order parameter
compute        3 all orientorder/atom nnn NULL cutoff 3.5

# compute center of mass of bridge
compute 	4 water com

# Run simulation
thermo_style        custom step c_2 press vol etotal ke pe v_press c_1[4] c_4[*]
thermo              200
dump		     1 water custom 400 ${DIR}/prod.${NAME}.dump id type x y z vx vy vz c_3[*] c_peratom[*]
dump		     1 water custom 400 run_28/prod.${NAME}.dump id type x y z vx vy vz c_3[*] c_peratom[*]
dump		     1 water custom 400 run_28/prod.ibeam_cooling_28.dump id type x y z vx vy vz c_3[*] c_peratom[*]
run                 ${STEPS}
run                 5200000
Neighbor list info ...
  update every 1 steps, delay 0 steps, check yes
  max neighbors/atom: 2000, page size: 100000
  master list distance cutoff = 6.67472
  ghost atom cutoff = 6.67472
  binsize = 3.33736, bins = 48 13 11
  2 neighbor lists, perpetual/occasional/extra = 1 1 0
  (1) pair sw, perpetual
      attributes: full, newton on
      pair build: full/bin/atomonly
      stencil: full/bin/3d
      bin: standard
  (2) compute orientorder/atom, occasional, copy from (1)
      attributes: full, newton on
      pair build: copy
      stencil: none
      bin: none
Per MPI rank memory allocation (min/avg/max) = 0.854 | 5.968 | 7.262 Mbytes
Step c_2 Press Volume TotEng KinEng PotEng v_press c_1[4] c_4[1] c_4[2] c_4[3] 
       0    241.55123    -309.0332    216009.12   -18612.263    1404.7558   -20017.019    -757.5573    33.450409    78.753111    22.605906    25.619013 
     200    240.15763   -202.97535    216009.12   -18656.512    1396.6512   -20053.163   -278.50155    34.844243    78.753409    22.604697    25.603715 
     400    230.66368   -563.99113    216009.12   -18656.245    1341.4386   -19997.684   -1825.9604    36.528905     78.75445    22.603085    25.621573 
     600    243.03218   -231.78916    216009.12   -18534.402    1413.3683    -19947.77   -416.25189    39.194298    78.754609    22.603248    25.643649 
     800    249.63687   -249.17819    216009.12   -18539.437    1451.7783   -19991.215   -484.43774    40.921779    78.755906      22.6029    25.671285 
    1000    239.93917   -333.10861    216009.12   -18644.424    1395.3807   -20039.805   -869.32458    43.035502     78.75709    22.601517    25.646099 
    1200    242.71231   -130.31267    216009.12   -18612.752    1411.5081    -20024.26    51.460202     44.46736    78.755339    22.601534    25.630523 
    1400    240.58466    -298.4209    216009.12   -18630.836    1399.1346    -20029.97   -694.92913    44.996339    78.756359     22.60231     25.64753 
    1600     243.1389   -370.05623    216009.12   -18638.687    1413.9889   -20052.676   -994.70942    46.555447    78.757297    22.603232    25.651177 
    1800    237.25001   -344.66606    216009.12   -18621.607    1379.7418   -20001.349   -887.71444    47.972136    78.759594    22.602063     25.68128 
    2000    244.90879   -327.94223    216009.12   -18555.402    1424.2819   -19979.684   -834.08879    48.787817    78.760869     22.60129    25.686541 
    2200    242.68197   -288.86897    216009.12   -18655.003    1411.3317   -20066.335    -646.2349    50.047546    78.761811     22.60196    25.677445 
    2400    238.84936   -307.91396    216009.12   -18592.729    1389.0429   -19981.771   -713.78806    51.193756    78.764095    22.601221    25.672267 
    2600    240.41626   -237.48978    216009.12    -18606.79    1398.1553   -20004.946   -466.72806    52.353431    78.765275    22.598767    25.644089 
    2800    246.94577   -308.53581    216009.12   -18545.463    1436.1281   -19981.592   -754.20528     53.33309    78.767115    22.599504    25.638016 
    3000    244.95059   -391.87579    216009.12   -18568.967    1424.5249   -19993.492   -1116.0767    54.876593    78.767711    22.597099    25.673968 
    3200    235.54139   -488.73925    216009.12   -18639.557    1369.8052   -20009.362    -1540.845    55.380525    78.768986    22.597036     25.66725 
    3400    236.68428   -205.65395    216009.12   -18593.416    1376.4517   -19969.868   -283.00928    56.524235    78.771991    22.593812    25.682996 
    3600    245.20074   -221.27646    216009.12   -18587.532    1425.9797   -20013.511   -326.28773    57.692228    78.772378    22.593486    25.710849 
    3800    238.85514   -367.78283    216009.12   -18549.722    1389.0765   -19938.799   -992.86433    58.244997     78.77164    22.595224    25.700421 
    4000    245.40747   -264.11222    216009.12   -18592.518     1427.182     -20019.7   -540.82236    58.652566     78.76925    22.595553    25.697068 
    4200    239.23456   -335.57072    216009.12   -18534.755    1391.2831   -19926.038    -837.7446    60.116998    78.768114    22.596322    25.702193 
    4400    238.59888   -154.65429    216009.12   -18572.756    1387.5862   -19960.342   -91.400417    60.808399    78.766825    22.598584    25.712196 
    4600    237.62957   -396.23168    216009.12   -18652.144    1381.9491   -20034.093   -1121.8302    62.345264     78.76716    22.599037    25.691388 
    4800     240.1214   -188.74655    216009.12   -18504.794    1396.4405   -19901.235   -227.84358    64.113756    78.768702    22.599009    25.659256 
    5000    238.54808   -424.55419    216009.12   -18561.009    1387.2908     -19948.3   -1277.5097    66.746547    78.769389    22.598993    25.654909 
    5200    233.44856   -347.75932    216009.12   -18563.654    1357.6342   -19921.288   -874.27289    69.642379    78.768322    22.598292     25.64223 
    5400    242.18282    -235.1378    216009.12   -18593.818    1408.4288   -20002.246   -383.51202     71.98204    78.768925    22.598019    25.628239 
    5600    230.09505   -259.26483    216009.12   -18585.771    1338.1316   -19923.902   -489.89675    73.939835    78.768011    22.598093    25.619384 
    5800     241.1333   -204.33513    216009.12   -18532.625    1402.3253    -19934.95   -285.94844    74.880657    78.768118    22.595918    25.646479 
    6000    238.69384    -442.5217    216009.12   -18545.542    1388.1384    -19933.68    -1320.456    75.745008    78.767271    22.594496    25.650259 
    6200    242.34752   -178.07609    216009.12   -18589.775    1409.3867   -19999.162   -212.02822    76.696682    78.767355    22.592631    25.646549 
    6400    237.81515   -191.21732    216009.12   -18586.445    1383.0284   -19969.474   -271.23175    78.725442    78.767015    22.592893    25.662508 
    6600     239.5539   -268.38914    216009.12   -18621.862    1393.1402   -20015.002   -584.12506    80.347822    78.766272    22.596078     25.64885 
    6800    236.59156    -255.3295    216009.12   -18618.966    1375.9125   -19994.879   -557.35678    81.716938    78.766973    22.596245    25.650975 
    7000    240.86747   -389.59297    216009.12   -18552.667    1400.7793   -19953.446    -1125.938    82.630774    78.766088     22.59564    25.661026 
    7200    240.21021   -308.65189    216009.12   -18638.819     1396.957   -20035.776    -755.8139     83.44482    78.766067    22.596239    25.680665 
    7400    237.51317   -224.42838    216009.12   -18631.784    1381.2722   -20013.057   -398.24696    84.511702    78.766189    22.594911    25.670967 
    7600    238.84283   -318.33392    216009.12   -18557.447    1389.0049   -19946.452   -778.03214    85.608417    78.767484    22.592917    25.651092 
    7800    234.62172   -198.79036    216009.12   -18658.504    1364.4568   -20022.961   -321.58693    84.958055    78.766115     22.59088    25.644369 
    8000    243.05008   -329.02044    216009.12   -18558.113    1413.4724   -19971.585    -851.3338    85.893577    78.767663    22.587851    25.650154 
    8200     244.5506   -242.03546    216009.12   -18609.124    1422.1988   -20031.323   -429.11233    87.498978    78.767791    22.586069    25.635952 
    8400    243.31295     -246.263    216009.12   -18541.723    1415.0011   -19956.724   -463.39895    89.085655    78.769519    22.585678    25.624296 
    8600    244.31954   -236.43067    216009.12   -18616.777    1420.8551   -20037.632    -404.1553    89.723746    78.765903    22.586094    25.617339 
    8800    234.27634   -396.97092    216009.12   -18604.272    1362.4482    -19966.72   -1111.8136    91.214786    78.764411    22.584435    25.620304 
    9000    240.90875   -302.63362    216009.12   -18577.275    1401.0194   -19978.294   -740.87799    91.667832    78.763975    22.585213    25.597639 
    9200    245.15329   -293.05627    216009.12   -18539.702    1425.7038   -19965.405   -655.60385    92.675818    78.765232    22.585779     25.59217 
    9400    240.03961   -281.46503    216009.12   -18600.171    1395.9648   -19996.136   -614.30691    93.873419    78.764306    22.586943     25.59748 
    9600    242.22457   -417.84634    216009.12   -18636.417    1408.6716   -20045.088   -1217.6749    95.302282    78.764591    22.589755    25.594052 
    9800    243.06946    -284.0321    216009.12   -18550.619    1413.5851   -19964.204   -648.40819    97.013662    78.762494      22.5907    25.617699 
   10000    235.25556   -341.82262    216009.12   -18592.274    1368.1429   -19960.417    -923.0287    98.472091    78.764741    22.592727    25.628087 
   10200    245.10176   -400.22019    216009.12   -18516.073    1425.4041   -19941.477   -1139.6104    99.784226    78.765284    22.592044    25.652433 
   10400    249.02914   -201.81916    216009.12    -18509.63     1448.244   -19957.874    -306.7181    101.08898    78.765758     22.59215    25.643357 
   10600    233.90549   -325.34681    216009.12   -18595.043    1360.2915   -19955.334   -878.27162    101.93317    78.767079    22.593464     25.63798 
   10800      243.086   -438.99879    216009.12   -18606.233    1413.6813   -20019.914   -1292.3119    103.37514    78.767231    22.593324    25.639881 
   11000    236.80816   -124.69434    216009.12   -18635.674    1377.1721   -20012.846    20.843895    104.20535    78.765196    22.592534    25.620076 
   11200    235.43641   -412.73281    216009.12    -18607.42    1369.1947   -19976.615    -1150.442    105.54003    78.766094    22.592745    25.592731 
   11400    241.10564   -377.40608    216009.12    -18584.14    1402.1644   -19986.305   -1069.3228    107.06281    78.764576    22.595417    25.597203 
   11600    236.64554   -337.69679    216009.12   -18531.074    1376.2265     -19907.3   -850.21055    108.35688    78.763869    22.596065    25.608098 
   11800    240.99191   -383.89763    216009.12   -18524.267     1401.503    -19925.77   -1026.1447    110.91325    78.761913    22.594724     25.60605 
   12000    242.72823   -323.99874    216009.12    -18535.65    1411.6007   -19947.251   -776.04295    111.45242    78.758446    22.593204    25.586984 
   12200    237.66184   -333.30828    216009.12   -18559.472    1382.1368   -19941.609   -833.42112    112.29712    78.758057    22.592189    25.594844 
   12400    239.97934   -144.66893    216009.12   -18565.767    1395.6143   -19961.381   -23.207134    113.05222     78.75659     22.59314    25.578109 
   12600    235.87756    -370.0574    216009.12   -18473.398    1371.7602   -19845.158    -1007.333     114.6276    78.754897    22.592578    25.574011 
   12800    238.85518   -266.80161    216009.12   -18510.133    1389.0767    -19899.21    -570.0806    116.14867    78.755064    22.591943    25.597341 
   13000    244.33351   -370.52233    216009.12   -18582.253    1420.9363   -20003.189   -1009.0443    117.74932     78.75394    22.590908    25.608425 
   13200      243.145    -185.7877    216009.12   -18660.753    1414.0244   -20074.777   -197.03333     118.9337    78.752781     22.58997    25.580195 
   13400    231.57986   -296.23936    216009.12   -18715.689    1346.7667   -20062.455   -672.01465    120.18348     78.74992    22.590778     25.55926 
   13600    231.88872   -301.01508    216009.12   -18649.059    1348.5629   -19997.622   -664.82708    120.83578    78.752023    22.592505    25.550501 
   13800    246.62556   -264.38991    216009.12   -18613.322    1434.2659   -20047.588   -554.19066    122.74028    78.750502    22.593347    25.552769 
   14000    239.87195   -402.76576    216009.12   -18566.973    1394.9898   -19961.963   -1104.7951    124.51758    78.749763    22.592316    25.554773 
   14200     242.3616   -143.50559    216009.12   -18626.338    1409.4686   -20035.807   -40.437727    125.00919    78.749306     22.59285    25.535533 
   14400    235.02703   -259.95206    216009.12   -18657.852    1366.8139   -20024.666   -553.70292    126.61794    78.752986    22.595709    25.521473 
   14600     240.2365   -326.17322    216009.12   -18644.812    1397.1099   -20041.922   -833.83494    127.38037    78.754788    22.591747    25.534108 
   14800     236.1542   -368.89086    216009.12     -18609.1     1373.369   -19982.469   -1014.4973    128.79248    78.754356    22.589879    25.518209 
   15000    241.50715   -242.79824    216009.12   -18631.288    1404.4994   -20035.788   -441.97795    130.47238    78.753695    22.588756    25.483163 
   15200    235.53785   -355.42313    216009.12   -18596.203    1369.7846   -19965.987   -958.03359    130.42596    78.754139    22.589786    25.480309 
   15400    234.42074   -353.00909    216009.12   -18662.793     1363.288   -20026.081   -907.85293    132.86828    78.753056    22.588991    25.447728 
   15600     242.5558   -137.42503    216009.12   -18500.998    1410.5979   -19911.596   -21.720126    133.66017    78.754201    22.589764    25.438816 
   15800    237.62703   -326.99331    216009.12   -18560.133    1381.9344   -19942.067   -809.80972    134.34882    78.755847    22.591742     25.42284 
   16000    238.71566   -342.87942    216009.12   -18585.348    1388.2653   -19973.613   -870.74051    135.16362     78.75339    22.593069     25.42764 
   16200    242.05052   -305.11373    216009.12   -18572.387    1407.6594   -19980.046   -731.54462    136.07985    78.754554    22.593557    25.430049 
   16400    235.03867   -229.86011    216009.12   -18605.384    1366.8816   -19972.266   -415.26159    137.83124    78.755379    22.594042    25.411284 
   16600    249.35241    -315.5081    216009.12   -18518.554     1450.124   -19968.678   -767.79111    139.70492    78.752946    22.593144     25.39396 
   16800    246.28992   -280.75865    216009.12   -18575.807    1432.3139    -20008.12   -635.04093    142.26732    78.749345    22.594028    25.374774 
   17000    239.84997     -116.209    216009.12   -18623.622     1394.862   -20018.484    125.96893    142.29774     78.74876    22.595208    25.384536 
   17200    244.27409   -179.64411    216009.12   -18643.531    1420.5907   -20064.122   -180.40926    142.20685    78.746732    22.592129    25.382374 
   17400    237.50827    -279.0711    216009.12   -18695.673    1381.2437   -20076.917   -570.27008    143.72107    78.748504    22.591208     25.38392 
   17600    231.19198   -382.49065    216009.12   -18626.632    1344.5109   -19971.143    -1060.252    144.25726    78.752338    22.589641     25.38055 
   17800    244.29361   -296.33796    216009.12   -18654.009    1420.7043   -20074.713   -678.99795    145.17513    78.755725    22.590681    25.397164 
   18000    237.82963   -500.55989    216009.12   -18612.624    1383.1126   -19995.736   -1591.2098    146.53126    78.756287    22.591376      25.4177 
   18200    240.20505   -354.32993    216009.12   -18595.797     1396.927   -19992.724   -952.00218    148.73118    78.755166    22.593273    25.398256 
   18400    238.85587   -486.39862    216009.12   -18573.745    1389.0808   -19962.826    -1559.575    150.17139     78.75365    22.594048    25.411156 
   18600     243.5453   -241.20032    216009.12   -18588.916    1416.3524   -20005.268   -455.97167    150.48649    78.752409    22.591288    25.409816 
   18800    240.35612   -290.07956    216009.12   -18661.878    1397.8055   -20059.683   -639.94634    150.83308    78.752363    22.588159    25.408026 
   19000    238.11044   -508.88223    216009.12   -18561.239    1384.7456   -19945.985   -1561.5338    152.07399    78.753135    22.589325    25.407946 
   19200    235.81507   -275.59998    216009.12   -18593.336    1371.3968   -19964.732   -642.51553     153.3019     78.75477    22.587949    25.393385 
   19400    248.30002   -244.95415    216009.12   -18558.639    1444.0038   -20002.642   -447.34923    154.90456    78.755822    22.586646    25.407036 
   19600    247.35033   -254.85396    216009.12   -18580.281    1438.4808   -20018.762   -480.97364    155.41859    78.755492    22.585324    25.426813 
   19800    239.75187   -348.47269    216009.12   -18548.424    1394.2915   -19942.716   -928.49661    157.39478    78.754339    22.586516    25.442202 
   20000    240.81073   -330.07594    216009.12   -18588.304    1400.4493   -19988.753   -836.01585    159.53542    78.753723    22.585145    25.447668 
   20200    243.93355   -129.35375    216009.12   -18612.607    1418.6103   -20031.217   -21.764061    161.59655    78.752769     22.58255    25.461882 
   20400    247.40502   -332.01614    216009.12   -18513.845    1438.7988   -19952.644   -842.00802    162.73355    78.750986    22.582824    25.454846 
   20600    235.30475   -272.10116    216009.12   -18609.254     1368.429   -19977.683   -603.04643    163.64502    78.751963    22.584152    25.448598 
   20800    240.30907   -447.79794    216009.12   -18522.938    1397.5319    -19920.47   -1327.4494    165.13869    78.752262    22.582441    25.428045 
   21000      236.672   -227.28639    216009.12   -18538.117    1376.3803   -19914.498   -373.19319    164.88118    78.753303    22.578846    25.438333 
   21200    244.77909   -246.85304    216009.12   -18507.143    1423.5276   -19930.671   -491.27155    167.61711     78.75407    22.577101    25.441772 
   21400    242.41536   -310.54113    216009.12   -18530.527    1409.7812   -19940.309   -714.43605    169.10884      78.7517    22.577483    25.445445 
   21600    252.43812   -386.68984    216009.12    -18444.09    1468.0692   -19912.159   -1090.2867     171.7766    78.749639     22.57731    25.410425 
   21800     237.1544   -268.76258    216009.12   -18627.391    1379.1857   -20006.577   -587.98559    172.89203    78.747995    22.578421    25.413251 
   22000    238.38549      -235.29    216009.12   -18668.444    1386.3452    -20054.79   -451.72252    173.59842    78.745531    22.579402     25.41539 
   22200    231.18341    -312.7632    216009.12   -18686.787    1344.4611   -20031.248   -705.83289    174.01623    78.745073     22.58046    25.400657 
   22400    242.83056   -238.17664    216009.12     -18548.9    1412.1958   -19961.096   -432.89653    174.44047    78.745784      22.5806     25.40848 
   22600    241.25019   -110.76097    216009.12   -18544.288     1403.005   -19947.293    117.41297    176.03737    78.746398     22.58023    25.390381 
   22800    245.29444   -340.75356    216009.12   -18502.938    1426.5246   -19929.462   -863.91622    177.29999     78.74461    22.581327     25.38397 
   23000    236.07046   -274.25956    216009.12   -18588.364     1372.882   -19961.246    -572.7681    179.39688    78.743957    22.582035     25.42074 
   23200    242.78632   -262.56263    216009.12   -18547.353    1411.9385   -19959.291   -581.27901     180.3063    78.743391    22.582322     25.41462 
   23400    240.75634   -488.13212    216009.12   -18569.259     1400.133   -19969.392   -1514.4392    182.34966    78.743461    22.582788    25.408203 
   23600      236.358   -177.20661    216009.12   -18508.381    1374.5542   -19882.935   -183.34629    184.18846    78.745159    22.582859    25.436378 
   23800     239.0094   -198.93178    216009.12   -18526.935    1389.9736   -19916.908   -278.36007    185.64728    78.747409    22.585034    25.445241 
   24000     240.0896   -254.96702    216009.12   -18548.309    1396.2556   -19944.564   -486.65732     186.2812     78.74747    22.585716    25.466511 
   24200    238.76721   -219.62571    216009.12   -18579.274    1388.5652   -19967.839   -344.81728    188.27537    78.748027    22.585427    25.432944 
   24400    234.83232   -383.22087    216009.12   -18605.257    1365.6815   -19970.939   -1086.1845    190.17674    78.747104    22.588119    25.437544 
   24600    239.75882   -452.87672    216009.12   -18642.104    1394.3319   -20036.436   -1385.7976    190.93501    78.741873    22.587637    25.437486 
   24800    237.54122    -233.2359    216009.12   -18619.781    1381.4353   -20001.216   -459.35548    191.93562    78.740751    22.586038     25.44375 
   25000    240.23548   -308.69766    216009.12   -18622.352    1397.1039   -20019.456   -754.13017    192.51895    78.738094    22.584892    25.438793 
   25200    231.18036   -435.06813    216009.12   -18699.776    1344.4434   -20044.219   -1295.6142    193.39153    78.738189    22.582871    25.438495 
   25400    238.19101   -500.37402    216009.12   -18584.447    1385.2142   -19969.661   -1604.9958    194.87715     78.73905    22.583479    25.462144 
   25600    247.32967   -276.54476    216009.12   -18447.993    1438.3607   -19886.354   -576.22939    195.81101    78.740685    22.581315    25.461143 
   25800    244.24408    -269.4963    216009.12   -18488.842    1420.4162   -19909.258   -614.41203    195.92212    78.740794    22.581656    25.454977 
   26000    241.22554   -225.35904    216009.12   -18578.689    1402.8617    -19981.55    -351.5704    198.53961    78.740794    22.581028    25.438245 
   26200    238.06172   -366.77268    216009.12    -18628.18    1384.4623   -20012.642   -966.64496    200.67086    78.741262    22.579285    25.435063 
   26400    233.28673   -354.52198    216009.12   -18662.451     1356.693   -20019.144   -940.60884    201.40879    78.741156    22.579331    25.436404 
   26600    238.61066   -255.61652    216009.12    -18549.69    1387.6547   -19937.345   -538.87077    203.01702    78.742201    22.580696    25.451328 
   26800    244.36452   -257.41325    216009.12   -18598.791    1421.1166   -20019.907   -506.13976    204.40438    78.744102    22.579614    25.439018 
   27000    244.09311   -242.99634    216009.12    -18521.93    1419.5382   -19941.469    -499.7038    207.08764    78.747664    22.580372    25.428016 
   27200    239.60281   -207.25127    216009.12   -18562.846    1393.4246   -19956.271   -262.50482    208.16209     78.74837    22.579641     25.45006 
   27400     245.7689   -400.76314    216009.12   -18510.229    1429.2839   -19939.513   -1114.4435    210.84912    78.748666    22.577343    25.447216 
   27600    239.12979   -208.90857    216009.12   -18635.069    1390.6737   -20025.743   -284.00825    211.55354     78.74987    22.575196    25.427876 
   27800    239.86777   -264.63781    216009.12   -18528.001    1394.9655   -19922.966    -530.7131    213.47092    78.748728    22.576498    25.429121 
   28000    234.94507   -232.24691    216009.12   -18581.513    1366.3373   -19947.851   -403.99217    215.28539    78.747755    22.575824    25.412599 
   28200    238.56616   -504.14484    216009.12   -18549.023    1387.3959   -19936.419   -1582.2953    217.10895    78.748719    22.575285    25.416201 
   28400    239.70343   -216.99257    216009.12   -18572.639    1394.0098   -19966.649   -359.66113    216.46527    78.747728    22.575472    25.430029 
   28600    241.38698   -345.46179    216009.12   -18550.869    1403.8006   -19954.669    -870.0226      219.259    78.748609    22.574504     25.44987 
   28800    238.07984   -347.68269    216009.12   -18566.675    1384.5677   -19951.243   -895.42426    219.06156    78.747953    22.575173    25.465255 
   29000    244.43519   -366.82924    216009.12   -18558.883    1421.5276   -19980.411    -960.8014    220.40386    78.747355    22.576025    25.470303 
   29200    242.44138   -447.53369    216009.12   -18521.985    1409.9325   -19931.918   -1351.8851    220.97336     78.74874    22.577245    25.471323 
   29400    240.75501    -141.6984    216009.12   -18522.676    1400.1253   -19922.801   -63.717005    222.25042    78.748195    22.575849    25.470037 
   29600     236.7312   -296.90072    216009.12   -18510.718    1376.7246   -19887.442    -698.3428    223.78103    78.748568    22.574508    25.454361 
   29800    235.10936   -252.09947    216009.12   -18605.525    1367.2927   -19972.818   -486.09108    224.31168    78.749037    22.575391    25.437372 
   30000    235.31837   -162.58786    216009.12     -18625.1    1368.5082   -19993.608   -78.234404     226.9558    78.748352    22.575239    25.434591 
   30200    237.11751   -238.08651    216009.12   -18607.736    1378.9712   -19986.707   -492.82195    229.62752    78.748611    22.574371    25.433293 
   30400    239.70308   -200.19826    216009.12   -18598.075    1394.0078   -19992.082   -248.45451    230.06456    78.749132    22.574136    25.431559 
   30600    244.25503   -341.34612    216009.12   -18645.624    1420.4799   -20066.103   -932.73114    230.63542    78.749912    22.573211    25.449617 
   30800    237.93329   -331.21959    216009.12   -18582.171    1383.7154   -19965.886    -828.2752    232.39259    78.750613    22.572551    25.422526 
   31000    240.85955   -250.12703    216009.12   -18570.677    1400.7333    -19971.41    -483.4561    234.65319    78.749659    22.572885    25.412026 
   31200    238.89616   -247.72853    216009.12   -18551.975    1389.3151    -19941.29   -454.66711    236.80442      78.7499    22.574359    25.424227 
   31400    240.99319   -244.88525    216009.12   -18530.751    1401.5104   -19932.262   -475.81718    238.05965     78.75116    22.572913    25.426306 
   31600    239.24713   -320.97597    216009.12   -18622.975    1391.3561   -20014.331   -760.59828    239.72365    78.752174    22.570266    25.435928 
   31800    236.27556   -255.30514    216009.12    -18574.46    1374.0748   -19948.534   -499.78904    240.51878    78.752901    22.569768    25.449405 
   32000    238.81896    -396.6857    216009.12   -18673.822    1388.8661   -20062.688   -1090.6596    242.08125    78.753541    22.569511    25.438859 
   32200    238.30129   -334.81694    216009.12   -18645.699    1385.8555   -20031.554   -836.34916    242.65077     78.75348    22.570594    25.430883 
   32400    236.22958   -228.50735    216009.12   -18595.615    1373.8074   -19969.423    -408.4752    242.39848    78.753282    22.572369    25.439998 
   32600    245.37083   -259.88931    216009.12   -18523.182    1426.9689   -19950.151   -561.09611    242.91481     78.75317    22.573578    25.430227 
   32800    246.29208   -288.42389    216009.12   -18526.663    1432.3265    -19958.99   -647.39237     245.8744    78.754812    22.572367    25.404524 
   33000    243.87013   -239.02781    216009.12   -18539.875    1418.2415   -19958.117   -470.99079    249.29611    78.755989    22.572621    25.377212 
   33200    239.75977   -442.11142    216009.12    -18573.51    1394.3374   -19967.847   -1260.5211    251.28055    78.753011    22.574649    25.351838 
   33400    233.61936   -308.62784    216009.12   -18597.172    1358.6275   -19955.799   -702.31481    253.48488    78.753544    22.574249    25.332725 
   33600     233.2201    -327.2255    216009.12   -18617.622    1356.3056   -19973.927   -810.45327    253.17118     78.75324    22.578166    25.328589 
   33800    247.93745   -374.76954    216009.12   -18441.978    1441.8952   -19883.874   -1018.0806    255.43239    78.752889    22.579947    25.334482 
   34000     235.2298   -451.77437    216009.12   -18563.886    1367.9931   -19931.879   -1376.9032    256.03244    78.753402    22.580101    25.340502 
   34200    241.13183   -353.66188    216009.12   -18554.603    1402.3167    -19956.92   -961.34007    256.72192    78.754544     22.58176    25.353145 
   34400    236.76825   -276.50465    216009.12   -18610.797      1376.94   -19987.737   -613.36914    255.34905    78.754366    22.581726    25.355007 
   34600    245.57112   -134.03321    216009.12   -18493.649    1428.1337   -19921.783    5.7059749    257.91058     78.75306    22.580262    25.391919 
   34800    237.04537   -371.83222    216009.12   -18590.274    1378.5516   -19968.825   -1027.3677    258.70934    78.752159    22.578315    25.424669 
   35000     240.6468   -256.01748    216009.12   -18587.876     1399.496   -19987.372   -492.21966    259.38783    78.749869    22.576212    25.426611 
   35200    242.71256   -365.57856    216009.12   -18524.453    1411.5095   -19935.963   -980.85742    261.67053    78.746386    22.573725    25.423512 
   35400    244.41803   -260.06745    216009.12     -18510.3    1421.4278   -19931.728   -503.00808    263.68475    78.744114    22.572713     25.41154 
   35600    246.84101   -203.56975    216009.12   -18531.589    1435.5188   -19967.108   -301.60978    265.49696    78.743508    22.574231    25.408055 
   35800    240.75755   -147.75338    216009.12   -18435.614    1400.1401   -19835.755   -62.295939    266.71027    78.741973    22.575732    25.407013 
   36000    242.68164   -259.66619    216009.12   -18543.206    1411.3297   -19954.536   -535.97683    268.63964     78.74028    22.574955    25.399186 
   36200    236.46784    -469.8013    216009.12   -18523.496     1375.193   -19898.689   -1436.6673    270.53259    78.743902    22.576992    25.417386 
   36400    240.83883   -329.98346    216009.12   -18517.862    1400.6127   -19918.475   -856.75928    274.66386    78.745417    22.576729    25.418079 
   36600    236.88383   -472.14247    216009.12   -18526.426    1377.6123   -19904.039   -1477.6241    277.07504    78.744212    22.577388    25.409296 
   36800     233.9047   -356.06531    216009.12   -18605.038    1360.2869   -19965.325   -922.63933    279.20542    78.744181     22.57846    25.422994 
   37000    237.78607   -175.77328    216009.12   -18604.436    1382.8592   -19987.295     -205.271    280.45056    78.743813    22.577619    25.449416 
   37200    237.01362   -357.45605    216009.12   -18594.851     1378.367   -19973.218   -1003.5653    283.95846    78.743385     22.58144    25.425957 
   37400     239.6231   -546.95678    216009.12   -18602.848    1393.5426    -19996.39   -1751.9119    285.36821    78.743864    22.580721     25.42346 
   37600    240.47743   -79.315113    216009.12   -18646.216     1398.511   -20044.727    259.47975    284.63862    78.744674     22.58095    25.456178 
   37800    229.80419   -301.12779    216009.12   -18719.498    1336.4401   -20055.939   -721.68563     283.6589    78.747177    22.582781    25.471889 
   38000    238.17626   -307.42138    216009.12   -18621.836    1385.1285   -20006.965   -755.88974    284.32726    78.751029    22.582892    25.471812 
   38200    234.94625   -233.30114    216009.12   -18591.338    1366.3441   -19957.682   -434.95103    286.41208    78.751978    22.583036    25.486995 
   38400    242.35331   -319.57315    216009.12   -18529.909    1409.4203    -19939.33   -774.44988    285.71413    78.752326    22.583124    25.508328 
   38600    242.77949   -397.98695    216009.12   -18595.175    1411.8988   -20007.074   -1134.0668     285.8214    78.753361     22.58482    25.530898 
   38800     236.4836   -303.74092    216009.12   -18569.306    1375.2847   -19944.591   -692.95302    284.97405    78.752655    22.584914    25.541127 
   39000    247.10179   -307.90586    216009.12   -18518.614    1437.0354    -19955.65    -775.4881    284.70509    78.751858    22.585023    25.526662 
   39200    242.21366   -309.04763    216009.12   -18640.234    1408.6082   -20048.843   -769.37339     286.1835    78.752819    22.585679    25.538218 
   39400     242.3632   -324.57573    216009.12   -18592.102    1409.4778   -20001.579   -769.91176    286.47727    78.753345    22.586669    25.549859 
   39600    241.72871   -225.51774    216009.12    -18551.32    1405.7879   -19957.108   -393.96455    286.74978    78.750935    22.583695    25.530148 
   39800    238.30615   -260.42372    216009.12   -18637.285    1385.8838   -20023.169   -559.49327    287.75266    78.751404      22.5833    25.521298 
   40000    239.61014   -416.01976    216009.12   -18610.541    1393.4672   -20004.008    -1180.503    289.77728    78.751082    22.583505    25.511514 
   40200    241.33866   -373.30024    216009.12   -18620.357    1403.5195   -20023.877   -1035.6487    290.15143    78.752084    22.582763    25.497482 
   40400    235.20052   -468.46764    216009.12    -18662.87    1367.8228   -20030.693   -1436.2042    292.69745    78.751028    22.582041    25.509447 
   40600    244.58576   -331.84657    216009.12   -18591.195    1422.4032   -20013.599   -842.63199    291.29698    78.749742    22.584388    25.483617 
   40800    236.65318   -388.77353    216009.12   -18656.612    1376.2709   -20032.883   -1046.4185     292.9384    78.750623    22.583455    25.494603 
   41000    235.04196   -170.79507    216009.12   -18595.909    1366.9007    -19962.81   -154.82154    293.37462    78.750781    22.581449    25.505517 
   41200    248.39961   -292.57061    216009.12   -18522.495    1444.5829   -19967.078    -683.0433    294.95127    78.750824    22.579146    25.513289 
   41400    241.21721   -199.33729    216009.12   -18580.371    1402.8132   -19983.184   -269.82356    295.59125    78.751072    22.581194    25.523282 
   41600    243.12127   -313.54046    216009.12   -18569.616    1413.8864   -19983.503    -739.8545    295.15462    78.752602    22.580107    25.529905 
   41800    240.94377   -207.17126    216009.12   -18585.314     1401.223   -19986.537   -305.05988    296.42332    78.752094    22.579584    25.534107 
   42000    239.39039   -383.89339    216009.12   -18647.496    1392.1893   -20039.685   -1052.4477     298.5029    78.749897    22.580202    25.538651 
   42200    237.54369   -482.69622    216009.12   -18691.609    1381.4497   -20073.059   -1504.8277    299.71673    78.746255    22.580484    25.544699 
   42400    239.31545   -357.43741    216009.12   -18652.127    1391.7535    -20043.88    -960.5899    299.73062    78.744726    22.579055    25.527238 
   42600     234.6551   -234.70953    216009.12   -18637.346    1364.6509   -20001.997   -451.07042    301.95144    78.745674    22.577375    25.509868 
   42800    244.59491   -220.95805    216009.12   -18616.512    1422.4565   -20038.968   -340.42847    299.91804    78.746761    22.575976    25.497714 
   43000    238.95312   -189.41638    216009.12    -18609.17    1389.6463   -19998.816   -213.42204    301.61664    78.747415     22.57565    25.526993 
   43200    243.32463   -354.30579    216009.12   -18615.724    1415.0691   -20030.793    -911.8741     302.0588    78.748703    22.575004    25.519709 
   43400    239.26407   -250.14858    216009.12   -18615.279    1391.4547   -20006.733   -458.67964     306.1505    78.749081    22.573291    25.507688 
   43600    235.74259   -67.696985    216009.12   -18627.782    1370.9753   -19998.757    252.86087    306.35281    78.748618    22.572274    25.530925 
   43800    232.22145   -397.32946    216009.12   -18653.209    1350.4979   -20003.707    -1085.705    308.35297    78.747911    22.569616    25.527592 
   44000    241.12915   -179.83453    216009.12   -18645.814    1402.3012   -20048.116   -220.63172    308.83546    78.748461    22.569243    25.546362 
   44200    241.51329   -391.84567    216009.12   -18578.465    1404.5351       -19983   -1111.4546    309.31832    78.748162    22.568929    25.529575 
   44400    238.61482   -302.05778    216009.12   -18614.778    1387.6789   -20002.457   -710.88967    311.72631    78.746744    22.569723    25.514858 
   44600    235.84988   -231.42362    216009.12   -18600.357    1371.5992   -19971.956    -372.2759    312.07935    78.745515     22.57242     25.52347 
   44800     239.8019    -362.4283    216009.12   -18629.943    1394.5824   -20024.526   -966.42326    310.77216    78.745569    22.571647    25.520356 
   45000    239.11461   -241.66039    216009.12   -18612.545    1390.5855    -20003.13   -446.97207    310.97466    78.745946    22.573819    25.539526 
   45200    238.61255   -507.05785    216009.12   -18559.648    1387.6657   -19947.314   -1582.9671    313.19087    78.743909     22.57381    25.521243 
   45400    239.47408   -239.05645    216009.12    -18630.19     1392.676   -20022.866   -434.04954    311.31253    78.745466    22.574849    25.538932 
   45600    245.37826   -218.85086    216009.12   -18563.355    1427.0121   -19990.368   -345.85439    312.56183    78.746353    22.573441    25.554234 
   45800    237.43481   -241.52077    216009.12   -18616.294    1380.8165   -19997.111   -453.01204    314.03137    78.743494    22.572409    25.550308 
   46000    237.10777   -372.86901    216009.12   -18533.793    1378.9146   -19912.708   -1014.6456    317.54633    78.744069    22.573932    25.532857 
   46200    244.09722   -119.84434    216009.12   -18519.496    1419.5621   -19939.059    82.381229    319.21845    78.746864    22.571953    25.540776 
   46400    235.68325   -327.01876    216009.12     -18584.1    1370.6302    -19954.73   -808.31863    321.86757    78.746741    22.572002     25.52737 
   46600    240.26275   -378.45302    216009.12   -18571.282    1397.2626   -19968.544    -1037.642    323.68244    78.745466    22.571728    25.537257 
   46800    241.27633   -327.67228    216009.12   -18562.308    1403.1571   -19965.465   -826.78418    322.85096    78.745164    22.568898    25.543426 
   47000     244.6077   -389.89093    216009.12   -18539.721    1422.5308   -19962.252   -1111.9639     324.0238     78.74496    22.569866    25.542668 
   47200    238.43865   -296.39913    216009.12   -18663.665    1386.6544   -20050.319   -687.18919    324.99516    78.743273    22.568949    25.548137 
   47400    243.85281   -402.64279    216009.12   -18636.074    1418.1407   -20054.215   -1126.7872    326.74632    78.740914    22.570316    25.520684 
   47600     231.5292   -334.80238    216009.12    -18659.07     1346.472   -20005.543   -904.58762    326.63164    78.739698     22.56995     25.51973 
   47800    234.13432   -376.03154    216009.12   -18636.903    1361.6223   -19998.526    -1045.115    327.35951    78.739563    22.568565    25.518449 
   48000    239.99029   -267.09445    216009.12   -18646.323    1395.6781   -20042.001   -549.06298    327.14897    78.740659    22.566873    25.508693 
   48200    243.42448   -134.12498    216009.12   -18641.598    1415.6497   -20057.247    24.865659    326.87968     78.73843    22.566666    25.507336 
   48400    238.68876   -397.22982    216009.12   -18640.081    1388.1089    -20028.19   -1141.3306    327.49735    78.737341    22.567801    25.517417 
   48600    228.88669   -420.80374    216009.12    -18684.09    1331.1044   -20015.194   -1264.1826    329.23545    78.737727     22.56767    25.506251 
   48800    237.36447   -343.54401    216009.12   -18641.528    1380.4074   -20021.936    -916.1677    331.79879    78.736292    22.568525     25.48318 
   49000    234.44352   -250.20216    216009.12   -18618.338    1363.4205   -19981.759   -490.98814    332.21959    78.734002    22.568169    25.471659 
   49200    238.75422   -246.82038    216009.12    -18563.36    1388.4896    -19951.85   -470.78938    332.56598    78.732111    22.567324    25.475998 
   49400    237.42909   -300.87848    216009.12   -18605.901    1380.7832   -19986.685   -702.70853    333.37978    78.729773     22.56915    25.478533 
   49600    241.12396   -308.59234    216009.12   -18628.819     1402.271    -20031.09   -750.10324    333.98146     78.72863    22.568794    25.481306 
   49800    235.71761    -438.4015    216009.12    -18620.81      1370.83    -19991.64   -1305.1335    333.92888    78.725923    22.569128    25.500019 
   50000     239.5704   -475.15235    216009.12    -18610.06    1393.2361   -20003.296   -1428.5748    336.41848    78.726618    22.568947    25.516974 
   50200    238.41452   -226.54447    216009.12    -18571.14    1386.5141   -19957.654   -407.29407    336.78794    78.725546    22.567695    25.529596 
   50400    241.27294   -397.91992    216009.12   -18605.036    1403.1373   -20008.173   -1112.5649    338.00311    78.726467    22.567233    25.530606 
   50600    241.49256   -212.79789    216009.12    -18508.63    1404.4146   -19913.045   -304.15431    338.96687    78.727374    22.566724    25.525998 
   50800      238.008   -180.07599    216009.12   -18689.905    1384.1499   -20074.055   -182.11914    340.41351    78.727961    22.567702    25.542222 
   51000    238.45818   -220.54005    216009.12   -18643.937    1386.7679   -20030.705   -410.52727    341.84704    78.728651    22.565716    25.538075 
   51200    238.03853   -138.05036    216009.12   -18666.141    1384.3274   -20050.468    24.413861    342.94107    78.729595    22.566015    25.534576 
   51400    240.99508   -220.71431    216009.12   -18629.966    1401.5214   -20031.487   -326.41669    344.68005    78.729544    22.564323    25.542078 
   51600    241.38562   -281.29694    216009.12   -18693.099    1403.7927   -20096.891   -574.80089    342.91072    78.727625     22.56442    25.534757 
   51800    237.02303   -275.37698    216009.12   -18637.471    1378.4217   -20015.893   -605.17196    344.25097      78.7288    22.564637    25.541663 
   52000    242.15814    -374.9359    216009.12   -18706.305    1408.2853    -20114.59    -1066.313    345.36664    78.730674     22.56358    25.551917 
   52200    233.37577   -236.14416    216009.12   -18723.148    1357.2109   -20080.359     -381.969    346.09239    78.731391     22.56148    25.561873 
   52400    229.63721   -384.83357    216009.12   -18699.631    1335.4691     -20035.1   -1078.1496    346.95411    78.730655    22.563765    25.571295 
   52600    242.23747   -349.17777    216009.12   -18642.023    1408.7466    -20050.77   -899.88207    348.05477    78.730668    22.564039    25.570077 
   52800    238.48938   -407.88399    216009.12   -18573.424    1386.9494   -19960.373   -1185.1879    349.92322    78.731268    22.565162    25.558801 
   53000    244.21612   -260.81223    216009.12   -18542.854    1420.2536   -19963.108   -517.28601    351.65728    78.731331    22.565928    25.558456 
   53200    240.62363   -397.48204    216009.12   -18641.885    1399.3612   -20041.246   -1084.0539    352.17706    78.732659    22.565109    25.557139 
   53400    240.78012   -186.46298    216009.12   -18606.703    1400.2713   -20006.975   -193.22564    352.40343     78.73464    22.564039    25.564417 
   53600     232.5394   -584.76005    216009.12   -18683.214    1352.3469   -20035.561   -1870.1132    354.98357     78.73362    22.564178    25.572878 
   53800    239.08504   -387.50364    216009.12    -18633.57    1390.4135   -20023.983   -1064.1347    353.83185     78.73132    22.563912    25.576503 
   54000    238.33515   -338.91646    216009.12   -18605.552    1386.0525   -19991.604   -857.04474     355.3576    78.731082    22.560451    25.589966 
   54200    247.10623   -255.08176    216009.12   -18582.502    1437.0612   -20019.563   -510.59809    355.63644     78.73197    22.559726    25.586775 
   54400    242.98519   -464.65454    216009.12   -18516.108    1413.0951   -19929.203   -1377.1692       355.49    78.733033    22.558259    25.585537 
   54600    239.44208   -215.90718    216009.12   -18519.942    1392.4899   -19912.431   -385.09453    354.05044    78.734771    22.559207    25.585971 
   54800     239.1814   -351.73083    216009.12   -18551.127    1390.9739   -19942.101   -925.99735    355.74434    78.736912    22.558896    25.604571 
   55000    248.96979    -243.6403    216009.12   -18569.504    1447.8989   -20017.403   -465.65577    356.12729    78.738454    22.558345    25.622538 
   55200     229.3823    -299.4496    216009.12   -18710.497    1333.9866   -20044.484    -694.4665    355.84299    78.739357    22.559214     25.62336 
   55400    233.20628   -165.16328    216009.12   -18611.094    1356.2252   -19967.319   -138.45181    356.58059    78.739278    22.556965    25.611393 
   55600    240.57008   -423.44674    216009.12    -18605.44    1399.0498    -20004.49   -1249.3832    360.62079    78.737504    22.557883    25.614949 
   55800    243.91981   -208.42183    216009.12   -18527.692    1418.5304   -19946.222   -295.62773    359.92037    78.735742    22.559016    25.597875 
   56000    243.98793   -394.61347    216009.12    -18573.38    1418.9266   -19992.306   -1126.2204    359.89983    78.736983    22.557419    25.591004 
   56200    236.70749   -252.25759    216009.12   -18580.372    1376.5867   -19956.959   -531.80204    362.55413    78.738137    22.556328    25.599836 
   56400     234.4228   -392.55186    216009.12   -18662.093    1363.2999   -20025.392   -1110.5838    364.34625    78.738696    22.554923    25.601349 
   56600    231.30987   -330.82448    216009.12   -18736.468    1345.1965   -20081.665   -901.21501    363.97056      78.7381    22.554211    25.576885 
   56800     246.9755   -405.58003    216009.12   -18655.763     1436.301   -20092.064   -1157.6627    365.75979    78.739052    22.552914    25.599718 
   57000     232.2863   -287.42251    216009.12   -18719.079     1350.875   -20069.954   -684.69771    367.67187    78.738316    22.553095    25.608984 
   57200     243.8262   -204.35127    216009.12   -18606.896     1417.986   -20024.882    -326.1434    367.71982     78.74055    22.553325    25.614943 
   57400    238.90646   -393.98647    216009.12   -18659.096     1389.375   -20048.471   -1112.9216     369.4912    78.740275    22.553823    25.600323 
   57600    237.90782   -335.24041    216009.12   -18696.022    1383.5673   -20079.589   -841.26063    370.23802    78.739993     22.55497    25.612141 
   57800    239.73109   -305.32353    216009.12   -18613.213    1394.1706   -20007.384   -700.81498    371.83302    78.740844    22.557223    25.599918 
   58000    241.35272   -434.29264    216009.12   -18598.575    1403.6013   -20002.176   -1290.9694    374.11317    78.740216    22.557582    25.587352 
   58200      244.375   -248.11423    216009.12   -18570.754    1421.1775   -19991.932   -499.46701    373.63926    78.742493    22.556009    25.593989 
   58400    241.59702   -369.43565    216009.12   -18613.086     1405.022   -20018.108   -1036.0684    374.43657    78.743683     22.55255    25.585463 
   58600    237.79339   -33.322391    216009.12   -18638.324    1382.9018   -20021.226    414.77369    373.07567     78.74232    22.551892    25.589967 
   58800    233.37537   -575.39525    216009.12   -18620.019    1357.2085   -19977.228   -1887.3108    376.39274    78.742147    22.553323    25.566795 
   59000    244.06079   -190.46848    216009.12   -18540.793    1419.3502   -19960.144   -255.01003    378.45265    78.744948    22.557192    25.574619 
   59200    242.06149   -117.91601    216009.12   -18608.396    1407.7232   -20016.119    89.420896    379.15118    78.747208    22.558169    25.578065 
   59400    235.04808   -448.26794    216009.12   -18613.856    1366.9363   -19980.792     -1372.08    380.67317    78.749278    22.561327    25.569095 
   59600    233.76561   -265.59928    216009.12    -18655.84     1359.478   -20015.318   -558.30566    381.94596    78.748018    22.562637    25.556997 
   59800     247.1121   -325.74367    216009.12   -18582.362    1437.0953   -20019.458   -817.44127    383.71685    78.745996    22.561725    25.567374 
   60000     237.5753   -390.79381    216009.12   -18562.726    1381.6335   -19944.359   -1073.0021    386.39021    78.745256    22.560316    25.545808 
   60200    237.57719   -298.82123    216009.12   -18592.061    1381.6445   -19973.705    -665.4098    385.25437    78.744243    22.559199    25.530847 
   60400     241.2353   -361.68399    216009.12   -18589.941    1402.9185    -19992.86   -941.76603    388.77187    78.744372    22.560238    25.521976 
   60600    246.22855   -301.62908    216009.12   -18561.114     1431.957    -19993.07   -714.17744    390.84812    78.745324    22.560947     25.52453 
   60800    242.11831   -413.09368    216009.12   -18520.373    1408.0536   -19928.426   -1182.5607    392.47191    78.744115    22.562217    25.532955 
   61000    234.65903    -248.0166    216009.12   -18605.943    1364.6738   -19970.617   -477.35273    393.91542    78.746132    22.559881    25.527391 
   61200    245.18907   -185.57571    216009.12   -18517.514    1425.9119   -19943.426   -228.34148    393.79944    78.744494    22.559052    25.491351 
   61400    240.07114   -297.90522    216009.12   -18548.999    1396.1482   -19945.147   -731.56169    395.62168    78.744667    22.560216    25.501085 
   61600    245.12701   -363.97576    216009.12   -18600.575    1425.5509   -20026.126    -998.8148    395.64115    78.744989    22.561407    25.525456 
   61800    241.46679   -188.66704    216009.12    -18650.96    1404.2647   -20055.224    -236.6023    395.93037    78.747257    22.562946    25.537966 
   62000    241.55341    -127.6561    216009.12   -18568.351    1404.7684    -19973.12   -17.932076     395.9851    78.748143    22.564747    25.542466 
   62200    244.74771   -343.09014    216009.12   -18573.217    1423.3451   -19996.562   -902.03419    398.11274    78.749166    22.564187    25.564773 
   62400    245.06359   -340.00093    216009.12   -18584.751    1425.1821   -20009.933   -886.91428    399.60992    78.750775    22.561433    25.581527 
   62600    240.51032   -303.76632    216009.12   -18613.017    1398.7023   -20011.719    -727.3569    401.57788    78.750703    22.562769    25.602251 
   62800    235.03322   -227.66887    216009.12   -18661.185    1366.8499   -20028.035   -387.99985    401.33503    78.747398    22.562907    25.607585 
   63000     240.5074   -538.88059    216009.12    -18549.26    1398.6853   -19947.945   -1733.5818    403.43805    78.749439    22.563741    25.614653 
   63200    239.60124   -358.03316    216009.12   -18607.728    1393.4155   -20001.144   -957.49226    404.06919    78.749477    22.563003    25.604339 
   63400    236.79258   -227.97617    216009.12   -18670.467    1377.0815   -20047.549    -407.6749     405.5801    78.751481    22.562471    25.592433 
   63600    236.07213    -316.0046    216009.12   -18643.409    1372.8917   -20016.301   -735.02096    406.32177    78.751015    22.560759    25.555829 
   63800    236.41203   -246.53664    216009.12   -18683.065    1374.8685   -20057.934   -522.69281    410.08655    78.751579    22.559548    25.538846 
   64000    240.18996   -257.18127    216009.12   -18599.891    1396.8392    -19996.73   -515.21566    410.23782    78.750751    22.559692    25.541381 
   64200    233.82216   -362.97705    216009.12    -18627.62    1359.8069   -19987.427   -930.81944    413.17657    78.751517    22.560095    25.568699 
   64400    239.54341    -339.8596    216009.12   -18625.523    1393.0792   -20018.602   -897.83991    413.40705     78.75257    22.563132     25.58717 
   64600    232.90668   -196.01138    216009.12   -18630.753    1354.4829   -19985.236   -266.63054    414.78151    78.753596    22.561808    25.588367 
   64800    245.40898   -238.53137    216009.12    -18592.72    1427.1907   -20019.911   -462.56577    416.51364    78.751784    22.560023    25.617368 
   65000    242.07506   -174.63239    216009.12   -18523.504    1407.8021   -19931.306   -192.05629    416.80091    78.753958    22.559054    25.612007 
   65200    234.42827     -455.633    216009.12   -18580.424    1363.3317   -19943.756    -1361.062    418.34123    78.753841    22.560748    25.591258 
   65400    234.13045   -372.69256    216009.12   -18603.211    1361.5998   -19964.811   -1044.8116    417.92033    78.752502     22.56263    25.605156 
   65600    235.89135   -231.11781    216009.12   -18594.505    1371.8404   -19966.346   -392.99382    421.13453    78.751747    22.562551     25.60946 
   65800     239.7232   -276.98469    216009.12   -18590.183    1394.1247   -19984.308   -606.27433    422.55149    78.750243    22.565638    25.625808 
   66000    233.21266    -349.1604    216009.12   -18597.926    1356.2623   -19954.188   -916.13924    423.42702    78.747551    22.567067    25.628955 
   66200    235.97071   -331.28032    216009.12   -18648.303    1372.3019   -20020.605   -841.48958    424.40888    78.745417    22.566505    25.611583 
   66400    234.02718   -274.82706    216009.12   -18627.484    1360.9992   -19988.483   -591.15376    424.67805    78.743282    22.566251    25.619715 
   66600    239.39232   -356.41038    216009.12   -18630.058    1392.2005   -20022.258   -959.95611     425.0801    78.742616    22.564292    25.624827 
   66800    235.29417   -364.23667    216009.12   -18629.413    1368.3674    -19997.78    -940.5691    424.59333    78.742326    22.563328    25.633049 
   67000    236.38251   -315.85157    216009.12   -18702.189    1374.6968   -20076.885   -738.90572     424.5845    78.743006    22.562086    25.616481 
   67200    232.56278   -224.96549    216009.12   -18624.272    1352.4829   -19976.755   -351.96232    426.74941    78.744022    22.561937    25.624862 
   67400    238.74355   -186.06497    216009.12   -18606.552    1388.4275    -19994.98   -187.48461       426.72    78.745382    22.563003    25.625354 
   67600    241.51275   -344.28916    216009.12   -18564.516     1404.532   -19969.048   -865.26195    428.94787    78.744852    22.561292    25.607372 
   67800    239.49999   -213.52298    216009.12   -18558.968    1392.8267   -19951.795   -306.13669    429.96479    78.744774    22.559232    25.609036 
   68000    242.58348    -351.6588    216009.12   -18593.673    1410.7589   -20004.431   -937.78375     432.6393    78.741937    22.558533     25.61953 
   68200    241.60114   -279.64706    216009.12   -18609.035     1405.046   -20014.081   -628.26346    436.39578    78.741219    22.560403    25.639317 
   68400    239.73673   -320.03983    216009.12   -18547.818    1394.2034   -19942.021   -763.62117    440.17018    78.744052    22.560873    25.633833 
   68600    240.00191   -179.74052    216009.12   -18583.073    1395.7456   -19978.819   -213.89662    441.28003    78.743295    22.560754     25.62713 
   68800    244.41293    -320.0479    216009.12   -18543.827    1421.3982   -19965.225   -735.31838     440.9966    78.742767    22.561716    25.613773 
   69000    241.30661    -176.3691    216009.12   -18567.747    1403.3331    -19971.08   -174.24628    442.39878    78.745437    22.561605    25.628714 
   69200    235.94096   -365.99001    216009.12   -18598.439    1372.1289   -19970.568   -979.44811    443.83396    78.748157    22.562281    25.648262 
   69400    239.15902   -545.56382    216009.12    -18631.47    1390.8437   -20022.314   -1742.0537     444.6758    78.749845    22.561353    25.649553 
   69600    250.83805   -299.93735    216009.12   -18478.366    1458.7638    -19937.13   -676.17107    447.87963    78.748329    22.562163    25.631284 
   69800    239.51164    -481.1822    216009.12   -18603.304    1392.8944   -19996.199   -1515.1382    451.03866    78.746946    22.559986    25.629417 
   70000    240.45664   -269.72543    216009.12   -18548.346    1398.3901   -19946.737   -563.46103    452.22328    78.747889    22.559695    25.636622 
   70200    235.11304   -365.22147    216009.12   -18537.723    1367.3141   -19905.037    -972.6468    452.65272    78.750205    22.559479    25.636885 
   70400    246.03967    -134.3209    216009.12   -18460.418    1430.8586   -19891.277    20.113739    452.63779    78.751105    22.560444    25.594064 
   70600    234.50722   -302.40646    216009.12   -18531.547    1363.7909   -19895.338   -690.30177    454.35764    78.751393    22.560991    25.598002 
   70800    241.14175   -445.84076    216009.12   -18567.966    1402.3744    -19970.34   -1309.1227     454.8566    78.751982    22.558845    25.596195 
   71000    242.94504   -262.79237    216009.12   -18571.066    1412.8615   -19983.927   -552.41033    457.25532    78.751334    22.558068     25.59964 
   71200    237.16555   -470.18488    216009.12    -18529.27    1379.2506   -19908.521   -1420.6707    460.79003    78.751498     22.55714     25.59796 
   71400      237.915   -362.92321    216009.12   -18585.472     1383.609   -19969.081   -935.87607    460.81022    78.752961    22.556775    25.603456 
   71600    240.25418   -322.01083    216009.12    -18558.53    1397.2127   -19955.742   -741.66266     461.0635    78.751458    22.558999    25.632854 
   71800     235.8023   -256.49333    216009.12   -18691.957    1371.3225   -20063.279   -503.82471    462.90942    78.750934    22.558795    25.640078 
   72000    238.54508   -197.18816    216009.12   -18681.083    1387.2733   -20068.356    -255.0873    462.05634    78.752147    22.560366    25.647224 
   72200    243.55986   -372.66983    216009.12   -18540.064    1416.4371   -19956.502    -976.2822     463.4434    78.752452     22.56344    25.636328 
   72400    238.52761   -246.53383    216009.12    -18618.06    1387.1717   -20005.232   -470.03607    462.83269    78.754799    22.561834    25.648584 
   72600    237.82959    -263.0302    216009.12   -18570.368    1383.1123    -19953.48   -579.97566     462.4897    78.755112    22.561704    25.627646 
   72800    236.07531   -233.64975    216009.12   -18564.844    1372.9102   -19937.754   -411.26787    463.11666    78.756462     22.56086    25.620339 
   73000     235.8946   -433.76916    216009.12   -18596.575    1371.8593   -19968.435    -1278.731     466.0794    78.756854    22.559179    25.622697 
   73200    248.15618    -272.9085    216009.12   -18513.609    1443.1673   -19956.776   -640.70246     465.3114    78.756283    22.557538    25.622055 
   73400      246.864   -266.12941    216009.12   -18500.313    1435.6525   -19935.966   -551.89528    467.47648     78.75694    22.557395    25.623249 
   73600    242.51013   -384.05233    216009.12   -18516.771    1410.3323   -19927.103   -1072.5475     469.7742    78.758099    22.554504    25.629679 
   73800    240.75262   -110.92178    216009.12   -18607.848    1400.1114   -20007.959    83.247034    473.24733    78.758506    22.551893    25.624893 
   74000    224.64839   -544.32558    216009.12    -18611.09    1306.4563   -19917.546   -1679.9646    477.48156    78.758715    22.550544    25.626951 
   74200    246.36612    -286.3251    216009.12   -18542.079    1432.7571   -19974.836   -642.60547    479.98496    78.758239    22.552257    25.617526 
   74400    235.90343    -219.4132    216009.12   -18549.657    1371.9106   -19921.568   -374.57349     484.3721    78.756531    22.552549    25.602086 
   74600     237.0603   -255.71551    216009.12    -18608.88    1378.6385   -19987.519   -497.30752    487.67578    78.755321    22.552685     25.63485 
   74800    235.57822   -234.55668    216009.12   -18612.102    1370.0193   -19982.121   -467.50533    490.39528    78.756984    22.553449     25.64059 
   75000      237.804   -259.18412    216009.12   -18628.601    1382.9635   -20011.564   -536.71674    494.61869    78.755524    22.554658    25.639134 
   75200    239.87123    -225.8141    216009.12   -18559.152    1394.9856   -19954.138   -416.01215    498.64024    78.756555    22.555586    25.622074 
   75400     242.9492   -460.62868    216009.12   -18622.047    1412.8858   -20034.932   -1372.2522    503.84032    78.758405    22.554381    25.630436 
   75600    233.14255   -270.39544    216009.12   -18611.647    1355.8546   -19967.502    -591.5455    508.26928    78.760151    22.552377    25.650612 
   75800    244.36957   -315.77386    216009.12   -18563.123     1421.146   -19984.269   -794.15607     509.2107    78.759138    22.551094    25.660855 
   76000    246.70842   -407.39412    216009.12   -18566.521    1434.7477   -20001.269   -1159.3121    507.73774    78.760429    22.552433    25.656026 
   76200    242.18285   -215.78514    216009.12   -18654.173     1408.429   -20062.602   -306.02596    505.71521    78.758662    22.554713     25.65126 
   76400    240.21716   -236.63774    216009.12   -18630.796    1396.9974   -20027.794   -396.12907    503.64992    78.756269    22.555148    25.650893 
   76600    237.20658   -323.93198    216009.12   -18642.277    1379.4892   -20021.767   -758.97658    503.94875    78.758376    22.554823    25.636314 
   76800    234.90776   -418.50001    216009.12   -18667.178    1366.1203   -20033.299   -1157.0544     504.6008    78.757581    22.555839    25.633282 
   77000    239.90848   -453.71163    216009.12   -18628.536    1395.2023   -20023.738   -1325.6205    507.28019    78.758717    22.557402    25.630696 
   77200     248.0093   -151.57824    216009.12   -18599.611    1442.3131   -20041.924   -108.24067    511.35733    78.757202    22.557138    25.640436 
   77400    242.26493   -399.65855    216009.12   -18591.635    1408.9063   -20000.541    -1131.987    515.15363    78.758484    22.556877    25.646969 
   77600    227.56019   -450.49559    216009.12   -18628.951    1323.3901   -19952.341   -1280.3445    515.92151    78.757993    22.555055    25.619898 
   77800    241.19214   -262.63561    216009.12   -18608.258    1402.6674   -20010.925   -496.01255    515.63542    78.757751    22.554517    25.584333 
   78000    234.24902   -420.35593    216009.12   -18636.523    1362.2893   -19998.812   -1150.7964    516.51136     78.76061    22.556569    25.588524 
   78200    247.53834   -210.99234    216009.12   -18579.552    1439.5741   -20019.126   -308.68846    518.16951    78.759961     22.55379    25.600378 
   78400    241.14747   -451.54343    216009.12   -18604.716    1402.4077   -20007.124    -1362.829    520.72663     78.75714     22.55342    25.610454 
   78600    237.24233   -356.11403    216009.12   -18594.208    1379.6971   -19973.905   -964.75848    522.59562    78.757947    22.553285    25.570909 
   78800    236.61642   -321.34493    216009.12   -18614.879    1376.0571   -19990.936   -779.37053    525.36597    78.757641    22.554037    25.574212 
   79000    240.77794   -70.665685    216009.12   -18598.701    1400.2586   -19998.959    282.74684    529.46117    78.758123    22.554437    25.590793 
   79200    239.63381   -431.89694    216009.12   -18559.968    1393.6049   -19953.573   -1261.0813    534.26131    78.758643    22.555944    25.584835 
   79400    243.27857   -359.49069    216009.12   -18537.607    1414.8012   -19952.408   -867.89925    533.91206    78.757548    22.556125    25.587797 
   79600     236.6644   -468.00037    216009.12   -18615.437    1376.3361   -19991.773   -1414.7552    534.55291    78.758267    22.555267    25.578851 
   79800    238.05679   -491.95198    216009.12   -18614.218    1384.4336   -19998.652   -1493.1892    538.14863     78.75925    22.555219    25.554648 
   80000     237.3749   -236.57842    216009.12   -18621.515    1380.4681   -20001.983   -410.03774    542.57544    78.761672    22.553603    25.551228 
   80200    239.97334    -317.6038    216009.12   -18594.674    1395.5795   -19990.253   -787.50337    544.41124    78.763752    22.553341     25.54883 
   80400    246.32324   -336.75422    216009.12   -18641.699    1432.5077   -20074.207   -859.48433    544.01316    78.761969    22.554404    25.542564 
   80600     236.6455   -422.72867    216009.12   -18614.932    1376.2262   -19991.159   -1268.2827    544.05844     78.76331    22.554512    25.510793 
   80800    240.70589   -277.79236    216009.12   -18626.201    1399.8397   -20026.041     -587.262     542.6726    78.763067    22.555949    25.493534 
   81000    237.68007   -443.74284    216009.12   -18608.622    1382.2428   -19990.865   -1274.8433    544.87831    78.763331    22.556676    25.511839 
   81200    244.97353   -433.34133    216009.12   -18613.841    1424.6584   -20038.499   -1224.2512    548.47446    78.762593    22.556129    25.505316 
   81400    234.87958   -247.86084    216009.12   -18601.053    1365.9564   -19967.009   -473.12409    554.29657    78.764181    22.555756    25.495619 
   81600    240.09487   -266.40274    216009.12    -18640.55    1396.2862   -20036.837   -539.23834    555.90235    78.762879    22.553639    25.477365 
   81800    228.19137   -218.11857    216009.12    -18706.36    1327.0607   -20033.421    -347.6582    555.34124    78.762157    22.554055    25.479803 
   82000    238.49141   -328.34182    216009.12   -18605.054    1386.9612   -19992.015    -845.8655    556.82717    78.761148    22.553873    25.516661 
   82200    242.75426   -248.98035    216009.12   -18575.396    1411.7521   -19987.148   -431.31814    560.10011    78.760373    22.554227    25.525311 
   82400     237.4575   -270.04915    216009.12   -18570.552    1380.9484     -19951.5   -529.71789    562.96613    78.759777    22.558794    25.512617 
   82600    239.27181   -129.54958    216009.12   -18506.789    1391.4996   -19898.288    37.564926    565.77985    78.760047    22.559035    25.504303 
   82800    244.50718   -288.03264    216009.12   -18624.879    1421.9463   -20046.825   -617.65721     567.8513    78.760393    22.558268    25.500582 
   83000    241.65694   -279.20033    216009.12   -18573.366    1405.3705   -19978.737   -623.63317    569.35344    78.760589    22.557972    25.505196 
   83200    246.75137   -307.64119    216009.12   -18601.196    1434.9975   -20036.194   -697.98823    570.45081    78.759795     22.55651    25.508577 
   83400    238.79711    -303.2576    216009.12   -18638.116     1388.739   -20026.855   -693.69698    569.70141    78.761643    22.557694    25.517059 
   83600      235.354   -269.66625    216009.12   -18694.839    1368.7154   -20063.555   -581.58361    566.39784     78.76086     22.55732    25.516392 
   83800    242.58071    -242.5557    216009.12   -18642.332    1410.7428   -20053.074   -399.81884    561.61257    78.761304    22.559907    25.507554 
   84000    248.60797   -153.84978    216009.12   -18611.117    1445.7947   -20056.912   -76.798218    557.04636    78.761242    22.560694    25.499814 
   84200    238.56954   -446.35017    216009.12   -18596.505    1387.4156   -19983.921   -1360.4096    559.64149    78.760029    22.562489     25.50998 
   84400    242.41921   -340.86491    216009.12   -18650.195    1409.8035   -20059.999   -875.20038    560.87817    78.757759    22.560908    25.533534 
   84600    247.77579   -367.85235    216009.12   -18593.845    1440.9551     -20034.8   -914.94206    561.42159    78.757114    22.562412    25.544171 
   84800    236.16765   -314.26887    216009.12   -18617.371    1373.4472   -19990.818   -743.09602    564.71723    78.758533    22.562173     25.53421 
   85000    239.31555   -280.42118    216009.12   -18596.973    1391.7541   -19988.727    -573.9136    566.98626    78.758916    22.562522    25.546996 
   85200    237.35205   -658.54057    216009.12   -18629.546    1380.3352   -20009.881   -2232.6657    565.85252    78.760369    22.565174    25.539485 
   85400    235.20711   -204.49792    216009.12   -18661.958    1367.8611   -20029.819   -310.07049    562.90569     78.76155    22.565534      25.5435 
   85600    236.51612   -363.66796    216009.12   -18665.272    1375.4738   -20040.746   -964.67902    564.35684    78.762521    22.566163    25.524614 
   85800    244.89047   -231.07016    216009.12   -18580.953    1424.1753   -20005.128   -394.31537    565.55544    78.761717    22.567835    25.523552 
   86000    245.57225   -264.79363    216009.12   -18608.799    1428.1403   -20036.939   -537.11521    565.83679    78.760717     22.57296    25.536928 
   86200    243.30682   -326.16473    216009.12   -18603.172    1414.9655   -20018.138   -800.65938    562.31055     78.76054    22.575882    25.547948 
   86400    238.38853   -391.93517    216009.12   -18698.757    1386.3629    -20085.12   -1101.3512    558.58121    78.761255    22.577845    25.576975 
   86600    248.47842   -343.74941    216009.12   -18581.568    1445.0412   -20026.609   -891.33895     558.5182    78.761985     22.57842    25.598487 
   86800    242.01782   -220.93606    216009.12   -18628.961    1407.4693   -20036.431   -353.35071     557.8828    78.761301    22.580499    25.600582 
   87000    245.85015   -344.75359    216009.12   -18610.495    1429.7564   -20040.251   -918.22908    559.13879    78.763761     22.58266    25.603206 
   87200    247.66001   -195.60717    216009.12   -18631.079    1440.2818   -20071.361    -258.7013    557.50226    78.761118    22.584391    25.595577 
   87400    239.98523    -302.9855    216009.12   -18632.907    1395.6486   -20028.556   -786.30405    560.50354    78.760867    22.581994    25.606297 
   87600    242.19997   -413.65889    216009.12   -18633.209    1408.5285   -20041.738   -1155.5415    562.55498    78.759284    22.584395    25.609796 
   87800    239.70191    -273.4848    216009.12   -18650.529     1394.001    -20044.53   -536.34532    561.80577    78.761738    22.587064       25.625 
   88000    245.00874   -342.10214    216009.12   -18583.126    1424.8631    -20007.99   -885.43609    565.92011     78.76531    22.588616    25.620529 
   88200    233.76495    -325.4731    216009.12   -18662.802    1359.4742   -20022.276   -812.09455    565.42643    78.765276    22.588109    25.641783 
   88400    242.23167   -243.67725    216009.12   -18605.021    1408.7129   -20013.734   -450.24281    567.71838    78.766104    22.590615    25.626424 
   88600     231.4762   -251.16089    216009.12    -18621.01    1346.1638   -19967.174   -490.69293    569.24525    78.765231    22.590289    25.609345 
   88800    229.69248   -460.08303    216009.12   -18650.029    1335.7905   -19985.819   -1367.6795    568.98401    78.764096    22.591396    25.604135 
   89000      238.856   -343.70208    216009.12   -18572.059    1389.0815    -19961.14   -902.15363    564.21007    78.765162    22.593428    25.582723 
   89200    238.21061   -129.01833    216009.12   -18558.875    1385.3282   -19944.203    7.3744479    563.67588    78.766226    22.593267    25.586572 
   89400    238.16955   -159.10015    216009.12   -18542.005    1385.0894   -19927.094   -45.496223    562.76121    78.768458    22.591366    25.593466 
   89600    236.07311    -295.3067    216009.12   -18673.646    1372.8974   -20046.544   -664.33607    563.70154    78.769862    22.587203    25.552171 
   89800    244.06292   -330.05354    216009.12   -18592.942    1419.3626   -20012.305   -809.52732    563.08296    78.769035    22.587923    25.559305 
   90000    247.95768   -385.86109    216009.12   -18637.937    1442.0129    -20079.95   -1175.3864    558.66351    78.768779     22.59043    25.536483 
   90200     245.8066   -242.53548    216009.12   -18686.229    1429.5031   -20115.732   -419.14073    557.88882    78.771052    22.590275    25.561464 
   90400     240.9775   -450.46933    216009.12   -18646.584    1401.4192   -20048.004   -1307.3001    556.85411     78.77184    22.589568    25.575726 
   90600    242.44449   -214.39084    216009.12   -18616.578    1409.9506   -20026.529   -331.45422    552.66888     78.77141    22.590565     25.58186 
   90800    234.98298    -442.2542    216009.12   -18627.501    1366.5577   -19994.058   -1308.3437    553.64162    78.768831    22.589467    25.576793 
   91000    240.93933   -462.43262    216009.12    -18646.61    1401.1972   -20047.807   -1374.2604    556.77536     78.76803    22.590671    25.579037 
   91200    234.04517    -415.0418    216009.12   -18741.889    1361.1038   -20102.993    -1155.626     559.4982    78.769495    22.591383    25.551051 
   91400    240.10583    -339.2812    216009.12    -18683.86    1396.3499   -20080.209   -878.58641    562.58013    78.770154    22.590914    25.546332 
   91600     248.2067   -449.33734    216009.12   -18576.451    1443.4611   -20019.912   -1310.2583    566.42245    78.770254    22.589795    25.561572 
   91800    246.49158   -276.30447    216009.12   -18598.155    1433.4867   -20031.642   -631.60552    564.14038     78.76928    22.587283    25.568571 
   92000    241.07778   -145.21501    216009.12   -18570.355    1402.0024   -19972.357   -88.225769    564.42678    78.769131    22.588088     25.56093 
   92200     233.2027   -263.20052    216009.12   -18586.297    1356.2044   -19942.501   -565.44072    564.10327    78.769326     22.59015    25.571772 
   92400    238.77277   -400.60192    216009.12   -18553.368    1388.5975   -19941.965     -1160.26    564.43406    78.765856    22.589227    25.559042 
   92600    242.04751   -308.61054    216009.12   -18507.245    1407.6419   -19914.887   -728.71975     561.2135    78.766675    22.585371    25.562801 
   92800    239.70705    -346.3617    216009.12   -18563.158    1394.0308   -19957.189   -900.89441    561.90102    78.768551    22.584568    25.550655 
   93000    238.61483   -424.29451    216009.12   -18613.879    1387.6789   -20001.558   -1272.7185    563.64406    78.769174    22.585321    25.539913 
   93200    238.17814   -279.95549    216009.12   -18609.032    1385.1394   -19994.171   -611.63606    563.93716     78.77096    22.584059    25.509506 
   93400    231.20672   -277.25974    216009.12   -18681.837    1344.5967   -20026.434   -589.72803     562.3298    78.771517    22.582164    25.489641 
   93600    242.61438   -286.59639    216009.12   -18633.949    1410.9386   -20044.888   -667.59344    563.48021    78.771738    22.579013    25.491635 
   93800    235.88945   -388.34527    216009.12   -18649.144    1371.8293   -20020.973   -1049.0691    566.00948    78.770547    22.578463    25.482334 
   94000    239.52012   -328.94722    216009.12   -18631.487    1392.9437   -20024.431   -820.87745    568.73927    78.773044    22.575688    25.484241 
   94200    239.81505   -374.86477    216009.12   -18565.688    1394.6589   -19960.347   -1015.7213    570.56498    78.772489    22.576655    25.492183 
   94400    233.28368   -221.72736    216009.12   -18614.408    1356.6754   -19971.083   -308.60284    571.35992    78.770673    22.577237    25.508539 
   94600    233.52413   -306.85599    216009.12   -18629.918    1358.0737   -19987.992   -691.61219     573.1858    78.768215    22.577235    25.497106 
   94800    234.90605   -300.93858    216009.12   -18638.002    1366.1103   -20004.113   -724.77397     574.3693    78.768349    22.578143    25.516913 
   95000    241.65031    -150.4498    216009.12    -18649.62     1405.332   -20054.952    -47.06219    575.15945    78.767108    22.579757     25.51988 
   95200     237.1067   -176.56207    216009.12   -18617.114    1378.9084   -19996.022   -146.31688    578.28945    78.765198    22.581707    25.497141 
   95400    236.13658   -182.74049    216009.12   -18601.492    1373.2666   -19974.758   -207.56001     577.5824    78.764892    22.582491     25.50376 
   95600    242.80166   -368.06072    216009.12    -18569.08    1412.0277   -19981.107   -987.69575    576.77048    78.767077    22.583615    25.500266 
   95800    244.08688   -295.06617    216009.12   -18561.266     1419.502   -19980.768   -735.02697    577.24836    78.769305    22.585259    25.480583 
   96000    239.19005   -190.96795    216009.12   -18540.256    1391.0242    -19931.28   -248.91286    577.26011    78.772558    22.586147    25.485215 
   96200    244.88283   -351.92451    216009.12   -18519.012    1424.1309   -19943.143   -941.46221    580.40016    78.774655    22.587299    25.476548 
   96400    246.92439   -408.51085    216009.12   -18566.138    1436.0037   -20002.142    -1179.832     578.5319    78.775002    22.587272    25.460451 
   96600    240.30145   -278.86398    216009.12    -18610.88    1397.4876   -20008.367   -587.55227    579.91804    78.776526    22.588302    25.458864 
   96800    235.18117   -337.64746    216009.12   -18575.801    1367.7103   -19943.512    -880.3348    581.67433    78.776308    22.589545    25.464003 
   97000    234.53923   -400.06461    216009.12   -18598.581    1363.9771   -19962.558   -1133.0044    583.61131    78.775482    22.588122    25.465092 
   97200    241.96536   -301.09355    216009.12   -18564.469    1407.1641   -19971.634   -730.23449    585.06057    78.774601    22.588371    25.489422 
   97400    236.81795   -440.16499    216009.12    -18542.55    1377.2291   -19919.779   -1321.3581    591.66859    78.777091    22.588111    25.509322 
   97600     246.4939   -362.67665    216009.12   -18474.922    1433.5001   -19908.422   -953.39528    593.43045    78.775578    22.588562    25.502436 
   97800    241.83721   -226.10046    216009.12   -18507.422    1406.4189   -19913.841   -363.06851    594.66995    78.776424    22.588841    25.496702 
   98000     228.7576   -309.05325    216009.12   -18574.537    1330.3536   -19904.891   -786.78444    597.88946    78.777834    22.589627     25.47629 
   98200    237.62099   -194.96072    216009.12   -18599.009    1381.8992   -19980.908    -249.0177    598.72867    78.779419    22.588192    25.481188 
   98400    236.28511   -507.68922    216009.12   -18544.071    1374.1303   -19918.201   -1599.7568    601.93013     78.77875    22.588447    25.497972 
   98600    237.51078   -271.01147    216009.12   -18557.112    1381.2583    -19938.37   -607.33176    601.83812    78.778529    22.589626    25.505136 
   98800    241.95258   -429.70979    216009.12   -18537.929    1407.0899   -19945.019   -1246.4615    605.07555    78.777241    22.588449    25.515005 
   99000    234.24659   -312.05443    216009.12   -18633.756    1362.2752   -19996.031   -776.51282    605.09156    78.775599    22.588038    25.503937 
   99200    238.26799    -27.49538    216009.12   -18614.321    1385.6619   -19999.983    443.33958    600.84761    78.771694    22.587772    25.484877 
   99400    233.24221   -401.05786    216009.12    -18654.69    1356.4342   -20011.124   -1127.4769    600.40599    78.768807    22.587602    25.498037 
   99600    242.99337   -263.38137    216009.12   -18572.376    1413.1426   -19985.519   -514.35555    601.96815    78.768292    22.586983    25.484215 
   99800    242.38527    -262.1974    216009.12   -18583.464    1409.6062    -19993.07    -581.3145    602.58723    78.769295    22.586275    25.471767 
  100000    246.19011   -318.03309    216009.12   -18590.651    1431.7334   -20022.385   -765.41077    604.72026    78.769176    22.586029    25.479142 
  100200    234.25962   -349.74393    216009.12   -18650.121    1362.3509   -20012.472   -928.52327    604.64023     78.76768    22.587225    25.473463 
  100400    242.32526   -221.67995    216009.12    -18605.13    1409.2572   -20014.387   -386.49392    600.75072    78.768642    22.589942    25.499214 
  100600    243.09592   -297.72607    216009.12   -18633.132     1413.739   -20046.871   -695.49669    602.66294    78.767079    22.588729     25.49942 
  100800    232.83084   -360.40299    216009.12     -18675.2    1354.0418   -20029.242   -952.55028    604.73502    78.764403    22.590462    25.502676 
[...]
 5175800    224.18235   -180.49706    216009.12   -20668.979     1303.746   -21972.725   -174.28067     10315.02     79.03001    22.892068    25.458118 
 5176000    228.31848    -108.5318    216009.12   -20658.805    1327.7999   -21986.605    184.88753      10312.8    79.029582     22.89148    25.455624 
 5176200    222.13962   -193.20046    216009.12   -20656.044    1291.8664    -21947.91   -154.54043    10313.898    79.029495    22.891574    25.456205 
 5176400    226.46158   -170.17537    216009.12   -20688.179     1317.001    -22005.18   -112.35043    10312.782    79.028623    22.890965    25.459564 
 5176600    223.76605   -110.02187    216009.12   -20641.419     1301.325   -21942.744    190.34269     10312.53    79.028804    22.890787    25.459375 
 5176800    230.78922   -225.80096    216009.12   -20625.572    1342.1687   -21967.741   -338.61383     10314.79    79.028308    22.891077    25.455849 
 5177000    226.44731   -112.73044    216009.12   -20623.416     1316.918   -21940.334    146.91423    10313.691    79.028411     22.89031    25.460276 
 5177200    230.14136    -162.0267    216009.12   -20638.779     1338.401    -21977.18   -99.373501    10313.453    79.028502    22.890435    25.461921 
 5177400     231.6251   -291.37452    216009.12   -20667.255    1347.0297   -22014.285   -672.90459     10317.42    79.028732    22.890431    25.457719 
 5177600     234.3792   -176.65659    216009.12   -20617.564    1363.0464    -21980.61   -160.64507    10313.932    79.028033    22.890612    25.452062 
 5177800    232.36556   -112.51212    216009.12   -20653.739     1351.336   -22005.075    121.90615    10313.451    79.028241    22.890583    25.448623 
 5178000     233.0691     -255.225    216009.12   -20664.977    1355.4274   -22020.404   -437.67604    10316.097    79.027722    22.891135    25.455298 
 5178200    219.27293   -166.86921    216009.12   -20666.658     1275.195   -21941.853   -71.487281    10314.847    79.026912    22.891349    25.455175 
 5178400    226.74938   -89.453936    216009.12   -20679.347    1318.6747   -21998.022    239.70452    10314.894    79.027025    22.891475      25.4601 
 5178600    220.18973   -209.52322    216009.12   -20667.339    1280.5267   -21947.865   -263.56795    10314.817    79.027724    22.890883    25.458458 
 5178800    231.02181   -196.11456    216009.12   -20626.173    1343.5213   -21969.694   -202.17263    10316.896    79.027171    22.890398    25.454022 
 5179000    223.48876   -133.89264    216009.12   -20652.469    1299.7124   -21952.181    50.897694    10313.325    79.026794    22.890545    25.450233 
 5179200    224.93547   -226.94641    216009.12     -20624.8    1308.1258   -21932.925   -344.69037    10314.108    79.026905    22.890216    25.457914 
 5179400    227.46086   -233.63317    216009.12   -20690.531    1322.8124   -22013.343   -385.44181    10315.972    79.027222    22.889273    25.459304 
 5179600    232.35458   -114.59103    216009.12   -20587.665    1351.2721   -21938.937     130.6869    10312.443    79.027244    22.888829    25.453644 
 5179800    227.32132   -204.73277    216009.12   -20645.365    1322.0009   -21967.366   -211.36921    10313.139    79.027037    22.888771    25.455936 
 5180000    224.65259    -285.5642    216009.12   -20665.339    1306.4807   -21971.819   -610.48859    10314.745    79.027721    22.888287    25.460964 
 5180200     220.4387   -98.718839    216009.12   -20729.329    1281.9746   -22011.304    169.55508    10313.899    79.027546    22.888693    25.447754 
 5180400    222.10395   -224.21238    216009.12   -20701.688     1291.659   -21993.347   -346.72657    10312.448    79.026643     22.88725    25.453633 
 5180600    226.94692   -280.02894    216009.12   -20647.423    1319.8235   -21967.247   -583.52542    10316.135    79.026951    22.887428    25.458821 
 5180800    229.82605   -76.956309    216009.12   -20629.565    1336.5673   -21966.132    271.38461    10313.649    79.026764    22.887414    25.456718 
 5181000    225.65648   -156.18506    216009.12   -20667.954    1312.3189   -21980.273   -10.955343    10313.652    79.026647    22.887664    25.462445 
 5181200    225.49027   -337.92211    216009.12   -20678.145    1311.3523   -21989.497   -841.08281     10317.89    79.026644     22.88848    25.460756 
 5181400    222.68755   -128.19139    216009.12   -20715.863    1295.0529   -22010.916    19.502801    10314.047    79.026571    22.888568    25.460912 
 5181600     227.6978   -169.98188    216009.12    -20641.88    1324.1903   -21966.071   -99.568282    10313.084    79.026938    22.888413    25.460835 
 5181800    220.58981    -288.7343    216009.12   -20727.052    1282.8534   -22009.906   -620.17226    10318.302    79.025937    22.888545    25.453084 
 5182000       224.85   -94.538292    216009.12   -20644.904    1307.6288   -21952.533    187.13208    10314.075     79.02557    22.888439    25.454173 
 5182200    231.79659   -113.67633    216009.12   -20644.462     1348.027   -21992.489    115.52042    10310.789    79.025238     22.88814    25.458353 
 5182400    231.14752    -235.1369    216009.12   -20627.173    1344.2524   -21971.425   -352.22969    10315.724     79.02321    22.888589    25.466517 
 5182600    220.46524    -118.5747    216009.12   -20721.077    1282.1289   -22003.206    150.47471    10314.019     79.02232    22.889139    25.453886 
 5182800    222.79666   -102.76626    216009.12   -20656.584    1295.6874   -21952.271    172.29576    10311.045    79.021059    22.888601    25.457011 
 5183000    225.93616   -301.34333    216009.12   -20646.427    1313.9454   -21960.372   -672.52575    10315.499    79.020437    22.887744    25.458825 
 5183200    233.60988   -154.97094    216009.12   -20606.918    1358.5724   -21965.491   -33.738853    10312.419    79.020272    22.886697    25.463332 
 5183400    234.70493     -132.185    216009.12   -20618.185    1364.9407   -21983.126    22.211468    10311.899    79.020188    22.886465    25.457101 
 5183600    221.20613   -347.67938    216009.12   -20694.599    1286.4376   -21981.037   -858.51509    10316.922    79.020166    22.886971    25.454729 
 5183800    221.67987   -146.22395    216009.12   -20723.654    1289.1927   -22012.847   -15.953144      10312.8    79.020253    22.888154    25.460873 
 5184000    225.94586   -80.999847    216009.12   -20721.527    1314.0018   -22035.528    291.34851    10310.727    79.019923    22.888833    25.458608 
 5184200    228.34951   -307.66757    216009.12   -20601.198    1327.9804   -21929.178   -662.05097    10316.159     79.01974     22.88819    25.470694 
 5184400    220.32202   -174.28286    216009.12   -20671.876     1281.296   -21953.172   -138.54389    10314.809    79.019886    22.886832    25.467133 
 5184600    223.93606   -75.446616    216009.12   -20609.226    1302.3137   -21911.539    279.31482    10309.535    79.019384    22.887586    25.461211 
 5184800    224.57069   -343.87992    216009.12   -20657.499    1306.0044   -21963.503   -837.54422    10316.249    79.019419    22.887542    25.470383 
 5185000     228.3068   -266.75712    216009.12   -20676.037     1327.732   -22003.769   -515.26425    10318.173    79.019009    22.887009    25.463299 
 5185200    226.72885   -73.975172    216009.12   -20655.176    1318.5553   -21973.731    270.14724    10311.342    79.017901    22.886825    25.456586 
 5185400    225.63992   -341.44849    216009.12   -20693.152    1312.2226   -22005.374   -833.10439    10315.978    79.017081    22.887254    25.458035 
 5185600    222.77232   -219.78034    216009.12   -20662.738    1295.5459   -21958.284   -303.96849    10315.966    79.016252    22.887051    25.459674 
 5185800    229.89092   -21.651143    216009.12   -20675.933    1336.9445   -22012.878     523.1548    10311.095    79.015658     22.88703     25.45705 
 5186000    229.26221   -253.18142    216009.12   -20626.463    1333.2882   -21959.751   -451.83075    10313.927    79.015516    22.887436    25.464399 
 5186200    226.00409     -246.079    216009.12   -20636.387    1314.3405   -21950.728   -426.71942    10318.423    79.015246    22.887242    25.453009 
 5186400    229.14936   -1.6472691    216009.12   -20649.585    1332.6319   -21982.217     595.5037    10310.211    79.015725    22.887205    25.453523 
 5186600    232.20197   -197.15569    216009.12   -20634.362    1350.3846   -21984.747     -179.411    10314.655    79.015605    22.886948     25.46115 
 5186800    218.33774   -321.01817    216009.12   -20633.836    1269.7563   -21903.593   -743.29555     10319.27    79.015637    22.886859     25.46155 
 5187000    221.83689   -5.0445932    216009.12   -20653.508    1290.1058   -21943.614    551.90005    10310.437    79.015818     22.88754    25.460703 
 5187200     227.9538   -241.29637    216009.12   -20609.154    1325.6791   -21934.833   -431.25113    10313.553    79.016361    22.889089    25.460048 
 5187400    228.60279   -356.01455    216009.12   -20628.945    1329.4533   -21958.398   -873.64771    10317.959    79.016998    22.888428    25.466817 
 5187600    221.46689   -42.556438    216009.12   -20675.742    1287.9541   -21963.696    452.71802    10311.978    79.017699    22.888234    25.462041 
 5187800    229.88721   -197.07767    216009.12   -20623.946     1336.923   -21960.869   -191.22424    10312.354    79.016981     22.88705    25.458836 
 5188000    227.24252   -342.30408    216009.12   -20641.546    1321.5426   -21963.089   -834.97089    10318.836    79.017584    22.886457    25.468638 
 5188200    226.28769   -151.51787    216009.12   -20602.204    1315.9897   -21918.194   -36.101149    10314.801    79.018184    22.886284    25.473838 
 5188400    230.59672   -121.86157    216009.12   -20631.459    1341.0491   -21972.508    114.16051    10309.228    79.018161     22.88644    25.473377 
 5188600    226.92892   -364.47524    216009.12   -20633.537    1319.7188   -21953.256   -932.36172    10317.295    79.018262    22.886688    25.472673 
 5188800    220.63697   -194.24933    216009.12   -20696.033    1283.1276    -21979.16   -194.77331    10316.095    79.018718    22.886498    25.465605 
 5189000    227.15401   -99.466824    216009.12   -20689.312    1321.0279    -22010.34    181.23742    10308.071    79.018915    22.885958    25.465437 
 5189200    226.93083   -272.59439    216009.12   -20672.978      1319.73   -21992.708   -543.94319    10313.218    79.018861    22.885492     25.46569 
 5189400    219.83971   -251.03334    216009.12   -20730.983    1278.4911   -22009.474   -453.01723    10316.314    79.018897    22.885993    25.460202 
 5189600    225.93371   -86.600864    216009.12   -20679.935    1313.9311   -21993.867    240.68918    10308.114    79.019692    22.886033    25.464845 
 5189800    221.90173   -255.08448    216009.12    -20624.63    1290.4829   -21915.113   -470.16475    10313.134    79.019894    22.887175    25.470232 
 5190000    223.08849   -313.70642    216009.12   -20663.567    1297.3846   -21960.951    -718.3257    10317.209    79.020584    22.886799    25.466738 
 5190200    225.46803   -113.94742    216009.12    -20654.94    1311.2229   -21966.163    140.60479    10313.304    79.021022    22.887084    25.465642 
 5190400    227.07644   -210.93489    216009.12   -20667.729    1320.5768   -21988.305   -302.83294    10311.782    79.020807    22.886691    25.461129 
 5190600    234.45615   -232.31882    216009.12   -20597.669    1363.4939   -21961.163   -363.73625    10318.448    79.020519    22.886643    25.466033 
 5190800    220.33075   -180.25594    216009.12   -20670.996    1281.3468   -21952.343    -177.6435    10313.101    79.019938    22.886558    25.465439 
 5191000    230.00668   -290.73022    216009.12   -20650.301    1337.6177   -21987.919   -674.83856    10313.108    79.018985    22.885244    25.467819 
 5191200    228.75112   -233.63559    216009.12   -20634.571    1330.3159   -21964.887   -416.93225    10316.135    79.018704    22.884999     25.46903 
 5191400    225.99131   -190.35821    216009.12   -20673.898    1314.2661   -21988.164   -192.63727    10312.686     79.01887    22.884998    25.466938 
 5191600    226.64254    -150.2209    216009.12   -20687.086    1318.0534   -22005.139    39.853505    10313.057    79.018155    22.884812    25.468957 
 5191800    225.27466   -148.53256    216009.12   -20680.395    1310.0984   -21990.493   -1.3433757    10314.552    79.018262    22.884516     25.46151 
 5192000    232.43489   -174.93235    216009.12   -20625.575    1351.7392   -21977.315   -102.43495    10315.952    79.017454    22.884995    25.463969 
 5192200     231.3196   -158.98851    216009.12   -20597.972    1345.2531   -21943.225   -54.547007    10311.591    79.017136    22.886165    25.463755 
 5192400    222.70131   -90.092518    216009.12   -20670.547    1295.1329    -21965.68    230.38254    10310.365    79.016899    22.885395    25.461697 
 5192600    228.98628   -194.32307    216009.12   -20654.641    1331.6835   -21986.324   -234.30705     10314.38    79.016583    22.885994    25.459847 
 5192800    224.76442   -203.95773    216009.12   -20672.699     1307.131   -21979.831   -263.82406     10313.02    79.016054    22.885393    25.465451 
 5193000    227.04314   -150.89911    216009.12    -20641.98    1320.3831   -21962.363   -37.173723    10311.917    79.016343     22.88623    25.468509 
 5193200    221.64333   -148.95505    216009.12   -20707.576    1288.9802   -21996.556   -8.0549734    10311.579    79.015464     22.88683     25.45978 
 5193400    228.97459    -235.4068    216009.12   -20631.732    1331.6156   -21963.347   -380.95244    10315.181    79.015567    22.887554    25.461393 
 5193600    226.90249   -126.95232    216009.12   -20664.335    1319.5651     -21983.9    101.73315    10314.972    79.015717    22.887298    25.466044 
 5193800    223.95502    -226.4666    216009.12   -20650.787    1302.4239   -21953.211   -330.75174    10313.513    79.015478     22.88747    25.466999 
 5194000    222.38134   -248.24192    216009.12   -20643.684    1293.2721   -21936.957   -456.04782    10314.632    79.015065    22.887649    25.464445 
 5194200    225.87056   -99.849956    216009.12   -20720.403    1313.5639   -22033.966    183.03085    10312.989    79.014422    22.886492    25.464579 
 5194400    226.76013    -211.6846    216009.12   -20692.671    1318.7373   -22011.408    -302.3866    10313.093     79.01463    22.886309    25.459793 
 5194600    225.61774   -250.52726    216009.12   -20655.434    1312.0936   -21967.528   -428.96136    10314.343    79.014477    22.886102    25.461964 
 5194800    232.87727   -131.34023    216009.12   -20608.246    1354.3118   -21962.557    73.221101     10314.64     79.01362    22.886094    25.454214 
 5195000    221.72707   -184.15252    216009.12   -20670.244    1289.4672   -21959.711   -167.26323     10315.51    79.013614    22.885056    25.457817 
 5195200    232.00036    -270.9493    216009.12   -20588.731    1349.2121   -21937.943   -574.20104    10313.867    79.013832    22.885256    25.461809 
 5195400    225.21988   -169.01055    216009.12   -20663.854    1309.7798   -21973.634   -91.850819    10313.303    79.013769    22.884308    25.466188 
 5195600    234.34866   -183.95257    216009.12   -20612.794    1362.8688   -21975.663   -212.49489    10315.615    79.013545    22.883571    25.461034 
 5195800    224.29104   -225.36862    216009.12   -20683.112    1304.3781    -21987.49   -364.83728    10313.031     79.01345    22.883797    25.460912 
 5196000     230.8548   -177.83964    216009.12   -20601.465      1342.55   -21944.015   -167.26522    10310.606     79.01364     22.88362    25.464466 
 5196200    231.06871   -199.49474    216009.12   -20626.926     1343.794    -21970.72   -241.27382     10315.54    79.014118    22.882945    25.466321 
 5196400    225.99097   -211.68546    216009.12   -20673.091    1314.2641   -21987.355   -241.47407    10312.639    79.014281    22.882454    25.461897 
 5196600    228.82893   -175.26974    216009.12   -20635.089    1330.7685   -21965.857   -115.08382    10313.288     79.01473    22.882032    25.466644 
 5196800    225.00109    -220.2221    216009.12   -20643.258    1308.5074   -21951.765   -315.55097    10314.598    79.015259    22.881701    25.465511 
 5197000    230.61312   -218.61272    216009.12    -20641.23    1341.1445   -21982.375   -293.53614    10313.678    79.015374      22.8812    25.467258 
 5197200    234.70107   -152.01973    216009.12    -20623.27    1364.9182   -21988.188   -21.261892    10314.129    79.014017    22.879448    25.463866 
 5197400    223.15953   -142.72653    216009.12   -20679.788    1297.7978   -21977.585     45.11997    10313.275    79.013664    22.879659    25.462277 
 5197600    226.68477   -166.05556    216009.12   -20681.475     1318.299   -21999.774   -58.882153    10310.995    79.013224    22.879334    25.465483 
 5197800    219.57619   -222.38365    216009.12   -20684.796    1276.9586   -21961.755    -362.4119    10313.261    79.012822    22.878493    25.468812 
 5198000    225.40075   -168.30693    216009.12   -20731.169    1310.8317   -22042.001     -131.335    10313.172    79.012522    22.879353     25.46661 
 5198200    225.39506   -119.80422    216009.12   -20641.304    1310.7986   -21952.103    95.698625    10311.552    79.011497    22.879442    25.462963 
 5198400    229.61267   -229.89243    216009.12   -20634.422    1335.3264   -21969.748   -410.33465    10312.176    79.012149    22.878897    25.467288 
 5198600    223.16955   -233.15759    216009.12   -20651.153     1297.856   -21949.009   -368.11852    10312.663    79.012204    22.878944    25.465289 
 5198800    220.85848   -124.21791    216009.12   -20720.231    1284.4158   -22004.647    101.25223    10309.984    79.012321    22.879121      25.4639 
 5199000     222.7496   -231.63192    216009.12   -20675.853    1295.4138   -21971.267   -421.07081    10312.019    79.011468    22.879461     25.45808 
 5199200    230.75612   -266.38725    216009.12   -20583.264    1341.9761    -21925.24   -552.66153    10318.184    79.011518     22.87982    25.470288 
 5199400    223.26392   -152.47737    216009.12   -20701.369    1298.4048   -21999.774   -80.817135    10309.505    79.010575    22.879286    25.469238 
 5199600    227.35133   -218.03437    216009.12   -20689.965    1322.1754   -22012.141   -295.99123    10312.051    79.010822    22.879282    25.468134 
 5199800    230.44708   -178.81497    216009.12    -20659.96    1340.1789   -22000.139   -139.69285    10315.741    79.010796    22.878776    25.465039 
 5200000    228.45261   -86.960203    216009.12   -20668.209    1328.5799   -21996.789    259.61137    10308.949     79.01159    22.877464     25.47134 
Loop time of 7294.03 on 160 procs for 5200000 steps with 9248 atoms

Performance: 615.956 ns/day, 0.039 hours/ns, 712.912 timesteps/s
97.7% CPU use with 160 MPI tasks x no OpenMP threads

MPI task timing breakdown:
Section |  min time  |  avg time  |  max time  |%varavg| %total
---------------------------------------------------------------
Pair    | 0.24348    | 1466.7     | 5818.3     |5242.0 | 20.11
Neigh   | 0.31239    | 92.468     | 448.31     |1252.2 |  1.27
Comm    | 11.197     | 1791.5     | 5832.7     |4701.3 | 24.56
Output  | 89.659     | 89.733     | 91.578     |   1.6 |  1.23
Modify  | 209.42     | 3750.1     | 7096.3     |4866.2 | 51.41
Other   |            | 103.6      |            |       |  1.42

Nlocal:    57.8 ave 196 max 0 min
Histogram: 72 21 27 0 0 0 0 0 13 27
Nghost:    539.1 ave 930 max 0 min
Histogram: 18 6 0 8 8 32 39 17 21 11
Neighs:    0 ave 0 max 0 min
Histogram: 160 0 0 0 0 0 0 0 0 0
FullNghs:  5864.7 ave 23574 max 0 min
Histogram: 107 13 0 0 0 0 0 1 20 19

Total # of neighbors = 938352
Ave neighs/atom = 101.465
Neighbor list builds = 551729
Dangerous builds = 0
write_data 		${DIR}/data.${NAME}_run
write_data 		run_28/data.${NAME}_run
write_data 		run_28/data.ibeam_cooling_28_run
Total wall time: 2:01:49
