
### Dimensions ###


### IMPORT ATOMS ###
read_data ../Box_Setup/data.Ibeam_235K
Reading data file ...
  orthogonal box = (0.0000000 0.0000000 0.0000000) to (78.752000 72.975319 40.002420)
  4 by 4 by 4 MPI processor grid
  reading atoms ...
  9010 atoms
  reading velocities ...
  9010 velocities
  read_data CPU = 0.023 seconds
group water type 2
2386 atoms in group water
group graphite type 1
6624 atoms in group graphite


# Define potential
#
pair_style          sw
pair_coeff * * MLC_e.sw C mW

# Add velocity/set timestep
#

fix		1 graphite setforce 0.0 0.0 0.0
velocity 	graphite set 0.0 0.0 0.0
velocity            water create ${START_TEMP} ${SEED} rot yes dist gaussian
velocity            water create 235 ${SEED} rot yes dist gaussian
velocity            water create 235 25892 rot yes dist gaussian
timestep            5.0

# Define output
#
compute 1 water msd
compute 2 water temp


thermo	            100
thermo_style custom step c_2 press vol etotal ke pe c_1[4] density

# Neighbor lists
#
neigh_modify        delay 0 every 1 check yes


# Set fixes
#
fix                 2 water momentum 10 linear 1 1 1 rescale
fix                 3 all nve
fix                 4 water temp/csvr ${START_TEMP} ${START_TEMP} 500.0 928347
fix                 4 water temp/csvr 235 ${START_TEMP} 500.0 928347
fix                 4 water temp/csvr 235 235 500.0 928347

# Run 0.05 ns equilibration
#
dump                1 all custom 100 ${DIR}/eq.${NAME}.dump id type x y z vx vy vz
dump                1 all custom 100 run_3/eq.${NAME}.dump id type x y z vx vy vz
dump                1 all custom 100 run_3/eq.ibeam_cooling_3.dump id type x y z vx vy vz
run                 10000
Neighbor list info ...
  update every 1 steps, delay 0 steps, check yes
  max neighbors/atom: 2000, page size: 100000
  master list distance cutoff = 6.6747184
  ghost atom cutoff = 6.6747184
  binsize = 3.3373592, bins = 24 22 12
  1 neighbor lists, perpetual/occasional/extra = 1 0 0
  (1) pair sw, perpetual
      attributes: full, newton on
      pair build: full/bin/atomonly
      stencil: full/bin/3d
      bin: standard
Per MPI rank memory allocation (min/avg/max) = 3.602 | 4.441 | 4.793 Mbytes
Step c_2 Press Volume TotEng KinEng PotEng c_1[4] Density 
       0          235   -397.42353       229892   -22660.138    1670.6695   -24330.807            0   0.88510766 
     100    226.59251   -346.11644       229892   -22662.134    1610.8987   -24273.033   0.86506509   0.88510766 
     200    231.61345   -311.16354       229892   -22669.183    1646.5937   -24315.777    1.2208227   0.88510766 
     300    231.41641   -469.24315       229892   -22655.252    1645.1929   -24300.445    1.5982593   0.88510766 
     400     235.9249   -424.60838       229892   -22654.394    1677.2448   -24331.638    1.9289523   0.88510766 
     500    231.97853   -210.64663       229892   -22633.612    1649.1892   -24282.802    2.2739399   0.88510766 
     600    235.68431   -392.35337       229892   -22563.439    1675.5344   -24238.974    2.6534754   0.88510766 
     700    234.92337    -445.1884       229892   -22578.891    1670.1247   -24249.015    2.9190718   0.88510766 
     800    242.15976   -259.92592       229892    -22566.74    1721.5699    -24288.31    3.3157606   0.88510766 
     900    237.37978   -392.04213       229892   -22608.347    1687.5879   -24295.935    3.6011048   0.88510766 
    1000    231.27451   -414.51835       229892   -22636.585    1644.1841   -24280.769    3.9236977   0.88510766 
    1100    230.96788   -251.53771       229892   -22612.602    1642.0043   -24254.606    4.2448919   0.88510766 
    1200    233.02026   -428.10713       229892   -22601.953    1656.5951   -24258.549    4.5350924   0.88510766 
    1300    243.12213   -265.61702       229892   -22559.751    1728.4116   -24288.163    4.9231142   0.88510766 
    1400     238.3336   -203.74412       229892   -22602.029    1694.3689   -24296.398    5.3273252   0.88510766 
    1500    228.97104   -432.41485       229892   -22641.839    1627.8082   -24269.647    5.6620637   0.88510766 
    1600    235.69066   -284.51732       229892   -22620.737    1675.5796   -24296.316    6.0233755   0.88510766 
    1700    232.24699   -157.23521       229892   -22634.036    1651.0977   -24285.134    6.2954458   0.88510766 
    1800    238.47927   -395.83694       229892   -22593.673    1695.4045   -24289.078    6.7318774   0.88510766 
    1900    237.35004    -318.6477       229892   -22549.461    1687.3765   -24236.837    7.1950612   0.88510766 
    2000    240.83954   -365.09083       229892   -22528.659    1712.1841   -24240.843    7.5171714   0.88510766 
    2100    240.77066   -339.69828       229892    -22625.45    1711.6945   -24337.144    7.7829163   0.88510766 
    2200    235.95957    -213.3498       229892   -22599.596    1677.4913   -24277.088    8.0388511   0.88510766 
    2300    233.64705   -229.73844       229892   -22577.684    1661.0511   -24238.735     8.345391   0.88510766 
    2400    241.98351    -383.3058       229892   -22577.162    1720.3169   -24297.479    8.6146955   0.88510766 
    2500    234.08967   -367.66308       229892   -22599.666    1664.1978   -24263.863    9.0336861   0.88510766 
    2600    229.21188   -215.40922       229892   -22608.126    1629.5204   -24237.647    9.3564356   0.88510766 
    2700    233.13834   -337.70167       229892   -22614.551    1657.4345   -24271.985    9.8253448   0.88510766 
    2800    235.79846   -416.53879       229892   -22573.016     1676.346   -24249.362    10.010101   0.88510766 
    2900    237.75465    -258.9081       229892   -22583.499     1690.253   -24273.752    10.321429   0.88510766 
    3000    237.31077   -250.97929       229892   -22588.771    1687.0973   -24275.868    10.620459   0.88510766 
    3100    233.34211   -605.16839       229892   -22571.957    1658.8832   -24230.841    11.371779   0.88510766 
    3200     236.3258   -179.90067       229892   -22624.992    1680.0949   -24305.087    11.845028   0.88510766 
    3300    229.32626   -336.27779       229892   -22700.941    1630.3336   -24331.275    12.162293   0.88510766 
    3400    232.77701   -468.77295       229892   -22645.856    1654.8658   -24300.721    12.507851   0.88510766 
    3500    233.12417   -437.73193       229892   -22642.392    1657.3338   -24299.725    12.746595   0.88510766 
    3600    231.48068   -564.08134       229892   -22630.711    1645.6498   -24276.361    13.071478   0.88510766 
    3700    237.57727   -304.13204       229892   -22602.637    1688.9919   -24291.629    13.248839   0.88510766 
    3800    241.37059   -300.26923       229892   -22586.519    1715.9595   -24302.479    13.377101   0.88510766 
    3900    237.48507   -469.02188       229892   -22589.734    1688.3364   -24278.071    13.594623   0.88510766 
    4000    233.09688   -291.41465       229892   -22616.634    1657.1398   -24273.774    13.960006   0.88510766 
    4100    236.22157   -295.50751       229892   -22609.786     1679.354    -24289.14     14.38703   0.88510766 
    4200    235.86422   -426.17764       229892   -22585.572    1676.8134   -24262.386    14.627611   0.88510766 
    4300    227.14314   -398.45829       229892    -22644.15    1614.8133   -24258.964     15.06119   0.88510766 
    4400    237.16484   -190.44816       229892   -22614.375    1686.0599   -24300.435    15.377792   0.88510766 
    4500    233.16424   -323.01208       229892   -22649.754    1657.6187   -24307.373    15.544785   0.88510766 
    4600    234.40743   -471.10898       229892   -22696.949    1666.4568   -24363.406    16.073746   0.88510766 
    4700    233.48829   -329.03112       229892   -22620.966    1659.9224   -24280.888    16.525984   0.88510766 
    4800    233.92695   -249.13727       229892   -22585.043     1663.041   -24248.084    16.724278   0.88510766 
    4900    240.52847   -372.17886       229892   -22550.532    1709.9727   -24260.505    17.279323   0.88510766 
    5000    235.67947   -406.01915       229892   -22604.334       1675.5   -24279.834    17.684096   0.88510766 
    5100    240.85766   -252.31586       229892   -22569.023    1712.3129   -24281.336    17.781798   0.88510766 
    5200    235.26428   -327.75935       229892   -22603.418    1672.5483   -24275.966    18.005135   0.88510766 
    5300    229.73691   -149.36505       229892   -22666.834     1633.253   -24300.087    18.032647   0.88510766 
    5400    235.48982   -335.54008       229892   -22669.326    1674.1517   -24343.478    18.250307   0.88510766 
    5500    233.22479   -434.18748       229892   -22666.664    1658.0491   -24324.713    18.532667   0.88510766 
    5600    238.31042   -250.31371       229892   -22696.176     1694.204    -24390.38    18.806116   0.88510766 
    5700    233.02393    -421.7424       229892   -22683.067    1656.6212   -24339.688    19.143532   0.88510766 
    5800    235.47763   -510.66915       229892   -22676.968    1674.0651   -24351.033    19.836276   0.88510766 
    5900    236.68451   -465.40898       229892   -22695.878    1682.6451   -24378.523     19.87529   0.88510766 
    6000    235.45558   -268.27373       229892   -22717.207    1673.9083   -24391.116    20.114163   0.88510766 
    6100    234.33592   -576.64642       229892   -22731.474    1665.9484   -24397.422    20.143878   0.88510766 
    6200    232.36177   -392.42004       229892   -22737.849    1651.9137   -24389.763    20.220357   0.88510766 
    6300    236.84651   -339.79477       229892    -22655.73    1683.7968   -24339.527    20.437897   0.88510766 
    6400    233.14856   -405.34437       229892   -22698.567    1657.5072   -24356.074    20.345211   0.88510766 
    6500    234.17588   -397.45863       229892   -22729.579    1664.8106    -24394.39    20.491984   0.88510766 
    6600    228.95185   -299.23122       229892   -22723.268    1627.6718   -24350.939    20.605258   0.88510766 
    6700     230.8892   -249.52137       229892   -22736.675    1641.4449    -24378.12    20.958056   0.88510766 
    6800    231.33059   -200.09966       229892   -22722.686    1644.5828   -24367.269    21.216606   0.88510766 
    6900    236.11696   -374.08394       229892   -22663.493    1678.6102   -24342.103    21.696814   0.88510766 
    7000    231.47526   -447.93767       229892   -22655.058    1645.6113   -24300.669    21.956831   0.88510766 
    7100    239.63624   -275.54997       229892   -22664.286    1703.6296   -24367.915    22.472253   0.88510766 
    7200    234.40928   -370.09912       229892   -22732.048    1666.4699   -24398.518    22.920722   0.88510766 
    7300    225.26658   -406.16045       229892   -22745.717    1601.4724    -24347.19     23.01069   0.88510766 
    7400    228.30454   -265.85506       229892   -22712.378    1623.0699   -24335.448    23.479523   0.88510766 
    7500    232.55804   -404.63749       229892   -22682.501     1653.309    -24335.81    23.842785   0.88510766 
    7600    234.84311   -291.50257       229892    -22636.16    1669.5542   -24305.714     24.32563   0.88510766 
    7700    231.91601   -414.28444       229892   -22634.636    1648.7447   -24283.381    24.673547   0.88510766 
    7800    232.61834   -258.04649       229892   -22693.679    1653.7377   -24347.417    25.138146   0.88510766 
    7900    232.57945   -385.72655       229892   -22651.609    1653.4613    -24305.07    25.738254   0.88510766 
    8000     236.8237   -181.60907       229892   -22581.745    1683.6346   -24265.379    25.756019   0.88510766 
    8100    234.00297   -397.33123       229892   -22560.189    1663.5814    -24223.77      26.0039   0.88510766 
    8200    237.72308   -490.95284       229892   -22568.725    1690.0285   -24258.753    26.115511   0.88510766 
    8300    240.34505   -334.60284       229892    -22529.72    1708.6687   -24238.388    26.413942   0.88510766 
    8400    240.04309   -404.52491       229892   -22513.996     1706.522   -24220.518    26.569196   0.88510766 
    8500    232.51753   -379.19122       229892   -22549.863     1653.021   -24202.884    26.931066   0.88510766 
    8600    231.11372    -449.6687       229892   -22567.487    1643.0411   -24210.528    26.817739   0.88510766 
    8700    238.77199   -342.44415       229892   -22588.421    1697.4854   -24285.906    27.029925   0.88510766 
    8800    236.47224   -418.36948       229892   -22600.326     1681.136   -24281.462    27.708121   0.88510766 
    8900     229.6198   -380.14885       229892   -22619.654    1632.4204   -24252.074     28.26491   0.88510766 
    9000     233.1878   -192.18845       229892   -22590.631    1657.7862   -24248.417    28.569525   0.88510766 
    9100    233.74412   -444.69166       229892    -22613.28    1661.7412   -24275.021     28.99456   0.88510766 
    9200    237.19879    -286.4708       229892   -22558.691    1686.3012   -24244.992    29.470286   0.88510766 
    9300    232.76989   -438.25068       229892    -22627.78    1654.8151   -24282.595    29.825784   0.88510766 
    9400    238.61606   -369.72148       229892   -22594.196    1696.3769   -24290.573    30.144924   0.88510766 
    9500    235.26808   -324.06552       229892   -22641.957    1672.5753   -24314.532    30.493041   0.88510766 
    9600    234.94937   -409.78156       229892    -22652.62    1670.3095    -24322.93    30.901741   0.88510766 
    9700    237.17889   -330.97035       229892   -22616.113    1686.1598   -24302.272    31.411308   0.88510766 
    9800    234.62915   -443.55497       229892   -22567.881     1668.033   -24235.914    31.532545   0.88510766 
    9900    237.60176   -227.88929       229892   -22589.595     1689.166   -24278.761    31.863301   0.88510766 
   10000    231.70565    -383.7438       229892   -22592.534    1647.2492   -24239.783    31.811348   0.88510766 
Loop time of 18.5783 on 64 procs for 10000 steps with 9010 atoms

Performance: 232.529 ns/day, 0.103 hours/ns, 538.261 timesteps/s
99.1% CPU use with 64 MPI tasks x no OpenMP threads

MPI task timing breakdown:
Section |  min time  |  avg time  |  max time  |%varavg| %total
---------------------------------------------------------------
Pair    | 0.0012968  | 4.8982     | 15.049     | 245.1 | 26.37
Neigh   | 0.0014167  | 0.28912    | 1.017      |  65.9 |  1.56
Comm    | 0.64886    | 7.127      | 14.621     | 179.9 | 38.36
Output  | 0.20043    | 0.20275    | 0.20609    |   0.4 |  1.09
Modify  | 0.50904    | 5.768      | 17.535     | 266.1 | 31.05
Other   |            | 0.2933     |            |       |  1.58

Nlocal:        140.781 ave         426 max           0 min
Histogram: 24 6 18 0 0 0 0 0 0 16
Nghost:        812.812 ave        1205 max          54 min
Histogram: 8 0 0 8 0 0 11 13 1 23
Neighs:         0.00000 ave           0 max           0 min
Histogram: 64 0 0 0 0 0 0 0 0 0
FullNghs:      14003.2 ave       52506 max           0 min
Histogram: 35 13 0 0 0 0 0 0 6 10

Total # of neighbors = 896204
Ave neighs/atom = 99.467703
Neighbor list builds = 569
Dangerous builds = 0
write_data 	    ${DIR}/data.${NAME}_eq
write_data 	    run_3/data.${NAME}_eq
write_data 	    run_3/data.ibeam_cooling_3_eq
System init for write_data ...

undump              1
unfix               4



################################################
#######         Run Simulation         #########
################################################

reset_timestep      0
timestep	    10.0
log                 ${DIR}/log.run_${NAME}
log                 run_3/log.run_${NAME}
log                 run_3/log.run_ibeam_cooling_3
