
# Set production fixes - Nose/Hoover
#
fix                 4 water temp/csvr ${START_TEMP} ${END_TEMP} 500.0 928347
fix                 4 water temp/csvr 235 ${END_TEMP} 500.0 928347
fix                 4 water temp/csvr 235 225 500.0 928347


## divide "droplet" into core and surface
#region		core_reg cylinder z 135 135 44.6 20 INF units box
#region		surface_reg cylinder z 135 135 44.6 20 INF units box side out
#group		core dynamic all region core_reg
#group		surface dynamic all region surface_reg

## compute pressure core
#compute        peratom_core core stress/atom NULL
#compute        p_core core reduce sum c_peratom_core[1] c_peratom_core[2] c_peratom_core[3]
#variable       press_core equal -(c_p_core[1]+c_p_core[2]+c_p_core[3])/(3*1249982.5)


## compute pressure surface
#compute        peratom_surf surface stress/atom NULL
#compute        p_surf surface reduce sum c_peratom_surf[1] c_peratom_surf[2] #c_peratom_surf[3]
#variable       press_surf equal -(c_p_surf[1]+c_p_surf[2]+c_p_surf[3])/(3*42395)

## compute total pressure of drop
compute        peratom water stress/atom NULL
compute        p water reduce sum c_peratom[1] c_peratom[2] c_peratom[3]
variable       press equal -(c_p[1]+c_p[2]+c_p[3])/(3*58187)


# compute order parameter
compute        3 all orientorder/atom nnn NULL cutoff 3.5

# compute center of mass of bridge
compute 	4 water com

# Run simulation
thermo_style        custom step c_2 press vol etotal ke pe v_press c_1[4] c_4[*]
thermo              200
dump		     1 water custom 400 ${DIR}/prod.${NAME}.dump id type x y z vx vy vz c_3[*] c_peratom[*]
dump		     1 water custom 400 run_3/prod.${NAME}.dump id type x y z vx vy vz c_3[*] c_peratom[*]
dump		     1 water custom 400 run_3/prod.ibeam_cooling_3.dump id type x y z vx vy vz c_3[*] c_peratom[*]
run                 ${STEPS}
run                 4000000
Neighbor list info ...
  update every 1 steps, delay 0 steps, check yes
  max neighbors/atom: 2000, page size: 100000
  master list distance cutoff = 6.6747184
  ghost atom cutoff = 6.6747184
  binsize = 3.3373592, bins = 24 22 12
  2 neighbor lists, perpetual/occasional/extra = 1 1 0
  (1) pair sw, perpetual
      attributes: full, newton on
      pair build: full/bin/atomonly
      stencil: full/bin/3d
      bin: standard
  (2) compute orientorder/atom, occasional, copy from (1)
      attributes: full, newton on
      pair build: copy
      stencil: none
      bin: none
Per MPI rank memory allocation (min/avg/max) = 6.106 | 6.688 | 7.323 Mbytes
Step c_2 Press Volume TotEng KinEng PotEng v_press c_1[4] c_4[1] c_4[2] c_4[3] 
       0    231.70565    -383.7438       229892   -22592.534    1647.2492   -24239.783   -929.30516    31.811348    39.439908    35.570079     26.66538 
     200    234.86101   -459.47638       229892   -22610.661    1669.6814   -24280.342   -1215.1983    32.538369    39.439994    35.569355    26.677812 
     400    238.74872   -388.35907       229892   -22593.792      1697.32   -24291.112   -970.76681    33.260095     39.43876    35.570579    26.676109 
     600    236.44385   -117.94742       229892   -22480.912    1680.9342   -24161.846    74.194866     35.31024    39.442619    35.570119    26.679283 
     800    231.48895    -332.8602       229892   -22497.486    1645.7086   -24143.194   -769.98072    37.204697    39.443677     35.56874    26.682957 
    1000    239.77187   -267.96103       229892   -22566.354    1704.5939   -24270.948   -492.09599    38.617061    39.444127    35.568969     26.67314 
    1200    237.16485   -521.01806       229892   -22545.649    1686.0599   -24231.709   -1488.8072    39.762803    39.445339    35.567894    26.673653 
    1400    236.59382   -438.88039       229892   -22558.268    1682.0004   -24240.269   -1180.7048    41.020196    39.448374    35.566163     26.67374 
    1600    234.90091   -308.54232       229892   -22540.786     1669.965   -24210.751   -663.48075    43.012478    39.450684     35.56707    26.690542 
    1800    238.97888   -502.13998       229892   -22524.767    1698.9563   -24223.724   -1418.6567    44.167132    39.451041    35.568744    26.699056 
    2000    237.99191    -307.9611       229892   -22472.848    1691.9397   -24164.788   -638.89591    44.693263    39.450482    35.568833    26.716845 
    2200    238.13066   -436.97084       229892   -22555.641    1692.9261   -24248.567   -1145.5525    45.529975    39.450328    35.569017    26.727474 
    2400    243.24009   -287.97655       229892    -22538.38    1729.2503   -24267.631   -608.06977    46.807428    39.450305    35.571805    26.722423 
    2600    231.41424   -258.34999       229892   -22585.496    1645.1775   -24230.674   -498.80116    48.124077    39.451832    35.571329    26.715829 
    2800    239.12812    -325.1433       229892   -22524.522    1700.0173   -24224.539   -729.29743    48.778466    39.452484    35.570299    26.722913 
    3000    240.28841    -479.1958       229892    -22548.63     1708.266   -24256.896   -1301.9289    49.951984    39.452561    35.569673    26.744293 
    3200    239.69808   -347.79933       229892   -22661.086    1704.0692   -24365.156   -813.84322    51.356806    39.451371    35.569762    26.744445 
    3400    235.52797   -187.90664       229892   -22695.746    1674.4229   -24370.169   -165.08313    51.707733    39.451832    35.569269    26.750145 
    3600    237.43567   -292.31565       229892   -22650.745    1687.9853    -24338.73   -605.20166    52.614137    39.453063    35.570048    26.742226 
    3800    231.10712   -172.06214       229892   -22568.451    1642.9941   -24211.445   -148.37084      54.0265      39.4544    35.569749    26.720982 
    4000    237.40741   -535.16886       229892   -22639.668    1687.7844   -24327.452   -1533.0925    55.460654    39.455836    35.569229    26.693932 
    4200     237.8572   -359.35683       229892   -22579.425     1690.982   -24270.407    -872.2145    55.744884    39.457417    35.566839    26.693463 
    4400    230.87985     -343.865       229892   -22607.398    1641.3784   -24248.777   -788.50746    57.122701    39.454452    35.569518    26.686626 
    4600    229.37896   -266.55171       229892   -22666.764    1630.7082   -24297.472   -519.51383    58.771556    39.455711    35.568867     26.68272 
    4800    235.86594   -457.81971       229892   -22547.878    1676.8256   -24224.704    -1265.219    58.776505     39.45561    35.569065    26.707255 
    5000    234.58717   -480.05971       229892   -22613.981    1667.7346   -24281.715     -1323.56    59.942759    39.454108    35.569731     26.71932 
    5200    234.98513    -449.0264       229892   -22593.388    1670.5638   -24263.952   -1235.6362    61.216204    39.452967     35.57066    26.722296 
    5400    236.89855   -340.70437       229892   -22606.243    1684.1668   -24290.409   -787.45408    62.543551    39.452619      35.5723    26.710194 
    5600    234.49533    -466.5205       229892   -22597.434    1667.0817   -24264.516   -1303.7946    63.296268     39.45134    35.572124    26.707666 
    5800    234.87081   -365.77297       229892   -22508.651     1669.751   -24178.402     -876.461    64.771459    39.452937    35.573254    26.707198 
    6000    234.57515   -369.01819       229892    -22586.06    1667.6492   -24253.709    -910.9424    66.258898    39.453538    35.576135    26.714401 
    6200    232.41036   -336.54273       229892   -22614.639    1652.2592   -24266.898   -761.67106    67.727243    39.453478    35.576633    26.730613 
    6400    230.60182   -419.08117       229892   -22587.077    1639.4018   -24226.479   -1087.7127    68.550799    39.453489    35.579198    26.753736 
    6600    231.42917   -281.48308       229892   -22575.561    1645.2836   -24220.844    -566.2822    69.884785    39.453444    35.579144    26.746936 
    6800    235.72126   -283.91235       229892   -22584.006    1675.7971   -24259.804   -565.77155    70.595669    39.453384    35.577311    26.731754 
    7000    235.05668   -330.33938       229892    -22563.87    1671.0724   -24234.942   -756.95064    72.702214    39.454968    35.577675    26.713441 
    7200    230.73364   -308.13471       229892   -22675.255    1640.3389   -24315.594   -634.04039    74.514958    39.456578    35.575664    26.704272 
    7400    231.27595   -361.60142       229892   -22635.096    1644.1944    -24279.29   -845.14123    75.173576    39.459689    35.574211    26.700077 
    7600    231.27384    -301.1842       229892   -22548.782    1644.1794   -24192.962   -652.87731    74.891026    39.459992    35.575634    26.681958 
    7800     237.9362   -325.50717       229892   -22656.623    1691.5437   -24348.167   -733.35379    75.933478    39.462533    35.577659    26.676769 
    8000    235.26849   -278.53473       229892   -22541.873    1672.5783   -24214.452   -536.18652    76.792125    39.463156    35.576708    26.665583 
    8200    238.42518   -502.58095       229892   -22584.036    1695.0199   -24279.056   -1434.3476    78.875527    39.465331    35.576084    26.668952 
    8400    241.17951   -429.21231       229892   -22528.155     1714.601   -24242.756   -1171.0769    79.164265    39.464301     35.57647    26.690191 
    8600    239.59419   -380.24846       229892   -22598.971    1703.3307   -24302.302   -986.78321    78.402736    39.463367    35.577174     26.68557 
    8800    233.98519   -222.95994       229892    -22586.07     1663.455   -24249.525    -354.1222    78.119557    39.463434    35.577245    26.673411 
    9000    231.05222   -401.44268       229892    -22565.33    1642.6038   -24207.934   -1028.1489    80.053028    39.463479    35.577995    26.677896 
    9200    240.00851   -344.31638       229892   -22523.912    1706.2762   -24230.188   -815.38591    81.238089    39.464087    35.580249    26.686333 
    9400     235.8544   -347.13832       229892   -22570.723    1676.7437   -24247.466   -805.28563     82.44933    39.462965    35.583772    26.689157 
    9600    231.30114   -448.37481       229892   -22636.262    1644.3735   -24280.635   -1222.1447    84.070776    39.461362    35.585046    26.678926 
    9800    236.36585   -477.47132       229892   -22548.933    1680.3797   -24229.313   -1349.4483    85.293935    39.460038    35.586298    26.679811 
   10000     233.2932   -518.97195       229892   -22578.154    1658.5355   -24236.689   -1489.8901    86.461153    39.461493    35.586765    26.680918 
   10200    240.42866   -280.35285       229892   -22556.834    1709.2631   -24266.098   -530.30635    87.591361    39.461774    35.586851    26.684603 
   10400    233.00986    -296.6232       229892   -22536.359    1656.5212    -24192.88    -617.6337    88.561022     39.46172    35.585281    26.690165 
   10600    232.77834   -374.77097       229892    -22574.95    1654.8753   -24229.825   -963.54885    89.063568    39.461679     35.58665    26.707796 
   10800    230.28924   -371.12801       229892   -22588.409    1637.1796   -24225.588    -909.4729    89.357848    39.464744     35.58397    26.724037 
   11000    232.68958   -393.02788       229892   -22644.696    1654.2442    -24298.94   -1009.1515    90.820958    39.464228    35.580888    26.736015 
   11200    231.38337   -362.28883       229892   -22639.394     1644.958   -24284.352   -878.78414    92.119272    39.464315    35.578189    26.740387 
   11400    235.52109   -160.94247       229892   -22630.399    1674.3741   -24304.773   -102.82864    92.447988    39.464877    35.576885    26.729071 
   11600    238.20659   -424.08112       229892   -22517.315    1693.4659   -24210.781   -1114.4958    94.037763    39.465143    35.575883    26.731258 
   11800    232.46502   -323.90398       229892   -22517.684    1652.6478   -24170.332   -737.14534    93.829786    39.464606    35.575221    26.717117 
   12000    240.03553   -249.76691       229892   -22528.352    1706.4683    -24234.82   -464.74066    95.091678    39.464474    35.574986    26.698812 
   12200    232.54631   -285.71937       229892   -22534.955    1653.2256   -24188.181   -584.60871    95.532553    39.465027    35.573237     26.67666 
   12400    234.61563   -347.37869       229892   -22559.503    1667.9369    -24227.44   -803.70079    96.011313     39.46527    35.575389    26.682583 
   12600    239.54438   -342.95437       229892   -22504.283    1702.9766    -24207.26   -790.37525    97.478411    39.466462    35.573996    26.676446 
   12800    237.52725   -192.37598       229892   -22515.771    1688.6363   -24204.407   -210.14032    99.091899    39.469738    35.573146    26.655505 
   13000    238.11552   -459.94133       229892   -22585.776    1692.8185   -24278.594   -1231.1304    99.769668    39.471332    35.573129     26.63669 
   13200    233.83175   -386.83789       229892   -22642.623    1662.3641   -24304.987   -989.94659    101.54873    39.468864    35.570971    26.639636 
   13400    232.78287   -410.29245       229892   -22668.492    1654.9074     -24323.4   -1076.1359    103.04511    39.470589     35.56801    26.641323 
   13600     234.2315    -405.1162       229892   -22620.404     1665.206    -24285.61    -1049.041    103.88179    39.470684    35.566731    26.651394 
   13800    236.37264   -421.05232       229892   -22549.324    1680.4279   -24229.752   -1103.1513    103.98959    39.471223    35.564695    26.670722 
   14000    241.64446   -188.21052       229892    -22489.38    1717.9065   -24207.287   -166.22793    105.13429    39.474241    35.562692    26.663739 
   14200    234.98601   -338.51096       229892   -22528.048    1670.5701   -24198.619   -782.54695    107.04432    39.474596    35.563152    26.664342 
   14400    227.91016   -451.06891       229892   -22613.758    1620.2662   -24234.024   -1239.6328    107.52656    39.473287    35.566096    26.675659 
   14600     236.0404    -330.7344       229892   -22580.864     1678.066    -24258.93   -739.84563    108.17848    39.471944    35.568329    26.684488 
   14800    236.01971    -342.9733       229892   -22507.947    1677.9189   -24185.866   -809.36768    109.07303     39.47236     35.57135    26.685773 
   15000    232.09483   -469.84623       229892   -22557.061     1650.016   -24207.077   -1295.8557    109.01667    39.472537    35.573831    26.684658 
   15200    234.38634   -328.58635       229892    -22502.91    1666.3068   -24169.217   -786.08918    109.39174    39.473999    35.572829     26.66867 
   15400    230.14301   -246.33751       229892   -22532.499    1636.1401   -24168.639    -427.4799    111.42303    39.473405    35.572667    26.686074 
   15600    239.58796   -232.48718       229892   -22389.772    1703.2864   -24093.059   -381.35736    112.40482     39.47547    35.573097    26.701799 
   15800     234.4365   -416.28803       229892   -22436.909    1666.6634   -24103.573   -1084.0391    114.00581    39.476244    35.574566     26.70065 
   16000    234.38583   -352.51644       229892   -22516.989    1666.3032   -24183.292   -824.51897    115.35373    39.477267    35.575599    26.691912 
   16200    242.80566   -244.81316       229892   -22493.248    1726.1618    -24219.41   -430.79245    117.33827    39.478628     35.57702    26.685303 
   16400    234.32784   -430.03737       229892   -22539.882     1665.891   -24205.773   -1064.3256    119.30707    39.478559     35.57724    26.679044 
   16600    241.27303    -427.1804       229892   -22465.974    1715.2659    -24181.24   -1190.8782    120.10442    39.479518    35.575366    26.677555 
   16800    236.59795   -291.84767       229892   -22502.811    1682.0297    -24184.84   -581.47418      119.856    39.480317    35.577501    26.657986 
   17000    233.15446   -247.16008       229892   -22553.892    1657.5491   -24211.442   -445.76681    121.48734    39.483248    35.581386    26.647421 
   17200    230.41863   -273.15009       229892   -22532.867    1638.0995   -24170.966   -513.56392    123.27706    39.484468    35.583963    26.640915 
   17400    235.02849   -197.68513       229892   -22598.454    1670.8721   -24269.326   -154.14121     123.7885    39.484875    35.584498     26.62075 
   17600     236.7293   -335.30053       229892    -22526.47    1682.9635   -24209.434   -741.21512    125.68825    39.485786    35.582831    26.632773 
   17800    234.44748   -240.07689       229892   -22561.312    1666.7416   -24228.054   -384.56885    126.33346    39.486053    35.581644    26.633006 
   18000    238.41516   -311.10482       229892   -22521.419    1694.9487   -24216.367     -702.489    127.82058     39.48785    35.581854    26.648963 
   18200    240.34198   -485.68213       229892   -22560.509    1708.6469   -24269.156   -1364.2267    128.62725    39.488954    35.581315    26.671031 
   18400    231.19905   -322.42844       229892   -22558.818    1643.6477   -24202.465   -694.38487    129.91855    39.490566    35.581406    26.692186 
   18600    236.92038   -479.51437       229892   -22537.748    1684.3219    -24222.07   -1311.2136    129.84088    39.489213     35.57874    26.678981 
   18800    236.44984   -240.02041       229892   -22594.771    1680.9767   -24275.747   -380.96899    129.46151    39.489098    35.579169    26.685776 
   19000    239.47697   -305.65166       229892   -22553.158    1702.4973   -24255.655     -673.038    130.90535    39.488898    35.577852    26.694032 
   19200    231.22107   -379.12162       229892   -22564.734    1643.8043   -24208.538   -912.02386    131.27604    39.488191    35.577658    26.710373 
   19400    238.03755    -217.6478       229892   -22511.471    1692.2641   -24203.735   -301.22493    132.38568    39.488327    35.578259    26.708843 
   19600    237.38797   -486.07463       229892   -22518.586    1687.6461   -24206.232   -1320.0689     132.9278    39.487339    35.579573    26.717677 
   19800    239.15366   -424.21949       229892   -22508.006    1700.1989   -24208.205   -1099.7488     134.4401    39.486697    35.581367    26.732639 
   20000    232.78613   -319.57836       229892   -22486.009    1654.9306    -24140.94   -664.82392    135.86036    39.484792    35.580525    26.741272 
   20200    241.35079   -332.95721       229892   -22583.828    1715.8188   -24299.646   -721.44909    137.10509    39.483465    35.581525    26.747347 
   20400    239.59217   -310.98204       229892   -22545.817    1703.3163   -24249.133   -708.13765    138.71833    39.482186    35.580733    26.747448 
   20600    232.04513   -310.54505       229892   -22633.807    1649.6626    -24283.47   -681.86416    139.47923    39.480684    35.578135    26.771939 
   20800    243.57176   -265.21928       229892   -22547.493    1731.6081   -24279.101   -508.25792    141.40046    39.482569    35.576655    26.761343 
   21000    232.16438   -336.48699       229892   -22583.417    1650.5104   -24233.927    -732.5947    144.29829    39.484894    35.573932     26.76751 
   21200    236.12096   -345.12123       229892   -22549.511    1678.6387    -24228.15   -854.86928    145.11922    39.486003    35.572472    26.773018 
   21400    233.26956   -415.46498       229892    -22556.01    1658.3674   -24214.378   -1094.2798      145.671    39.486486    35.575168    26.781379 
   21600    238.59421   -334.50716       229892   -22465.346    1696.2216   -24161.568   -779.14053    146.78503    39.487481     35.57681    26.801429 
   21800    234.45718   -328.71202       229892   -22577.529    1666.8105    -24244.34   -726.50354    147.28234    39.487489    35.576085    26.784143 
   22000    227.80314   -267.85491       229892   -22615.256    1619.5054   -24234.761   -496.26444    146.96161    39.487134    35.576496     26.77406 
   22200    227.02298   -348.16901       229892   -22628.344    1613.9591   -24242.303   -801.85597    149.72498    39.488499    35.574246    26.763913 
   22400    240.06227   -359.81898       229892   -22477.651    1706.6584   -24184.309   -853.20429    150.82944    39.487516    35.575342    26.788221 
   22600     235.3543   -339.75703       229892   -22553.061    1673.1883   -24226.249   -806.16905    151.63525    39.484606    35.575548    26.795265 
   22800    237.18247   -233.25116       229892   -22527.109    1686.1852   -24213.294   -386.63507    152.63769    39.484457    35.577052    26.806849 
   23000    230.24184   -510.10719       229892   -22615.122    1636.8427   -24251.964   -1424.1334    154.48347    39.484198    35.577846    26.806417 
   23200    238.90764   -387.54227       229892   -22561.601    1698.4498   -24260.051   -973.24055    155.61509    39.484815    35.578386    26.798751 
   23400    234.34611   -469.38553       229892   -22542.379    1666.0208     -24208.4   -1273.5644    157.36173    39.484271    35.579003    26.814988 
   23600    239.99057   -324.60042       229892   -22491.258    1706.1486   -24197.406   -696.07036    160.09394    39.484141    35.581352    26.800737 
   23800    233.45383   -373.64681       229892   -22528.104    1659.6774   -24187.781   -920.07024    161.11272    39.483997    35.584286    26.779873 
   24000    239.75962   -401.14476       229892   -22538.401    1704.5068   -24242.908   -1050.6225    162.08347     39.47932    35.586706    26.780923 
   24200    237.76197   -354.54446       229892   -22588.807     1690.305   -24279.112   -838.81283    164.03738    39.479582    35.587159    26.785362 
   24400    235.91791   -374.52181       229892   -22640.699    1677.1951   -24317.895   -909.33487    165.64155    39.480956     35.58722    26.792768 
   24600    237.33033   -327.54864       229892   -22707.497    1687.2363   -24394.734   -698.78266    165.50326    39.481076    35.587742    26.780943 
   24800    235.12098   -199.46764       229892   -22662.577    1671.5296   -24334.107   -221.74042    164.77627    39.481883    35.588261    26.772615 
   25000    239.66915   -95.540697       229892   -22660.841    1703.8636   -24364.704     194.4207    164.62387    39.480527    35.587057    26.774423 
   25200    224.94617   -330.18626       229892   -22777.524    1599.1945   -24376.718    -779.1845     166.5174    39.482952    35.586804     26.78915 
   25400      239.215   -363.48664       229892   -22646.044     1700.635   -24346.679   -866.48871    168.02639     39.48175    35.586391    26.810839 
   25600    241.59814   -440.96571       229892   -22487.367    1717.5772   -24204.945   -1168.1389    169.73254     39.48166    35.585123    26.819969 
   25800    230.97246   -362.56819       229892   -22495.595    1642.0368   -24137.632   -850.62537    170.46539    39.480246    35.585823     26.82458 
   26000    239.15544   -156.65638       229892   -22524.418    1700.2115   -24224.629   -23.738608    170.22786    39.478725    35.585212    26.827177 
   26200    237.18918   -406.49205       229892   -22523.367    1686.2329     -24209.6   -1024.3798    171.55444    39.477252    35.586007    26.822589 
   26400    233.24111   -444.38217       229892   -22568.389    1658.1652   -24226.555   -1165.1373    171.63123    39.474798    35.584993    26.798022 
   26600    232.19057   -325.67501       229892   -22509.164    1650.6967    -24159.86   -704.88842    173.48666     39.47452    35.582038    26.799814 
   26800    227.09686   -405.35902       229892   -22493.881    1614.4843   -24108.366   -1069.2969    172.94845    39.475036    35.576179    26.804259 
   27000    239.01945   -173.93209       229892   -22422.157    1699.2447   -24121.402   -127.18276    174.74867     39.47462    35.574092     26.79852 
   27200    239.97837   -386.60737       229892   -22472.887    1706.0619   -24178.949   -954.71606     176.0542    39.474018    35.571607     26.79293 
   27400    240.69987   -157.19752       229892   -22408.085    1711.1912   -24119.276   -91.434004    176.51597    39.474094    35.569482    26.778841 
   27600    228.06406   -290.31287       229892   -22588.264    1621.3603   -24209.624   -561.55374    177.73861    39.472163    35.568899    26.769979 
   27800    239.93685   -444.48375       229892   -22521.645    1705.7668   -24227.411    -1203.459     179.2367    39.471348    35.567773     26.78552 
   28000    233.33833   -217.65698       229892   -22599.357    1658.8563   -24258.214   -286.19585    180.75025    39.471234    35.566894    26.782682 
   28200    234.63235   -329.62036       229892   -22543.892    1668.0558   -24211.948   -731.13304    183.68472     39.47212    35.568757    26.792815 
   28400    243.69913   -319.43764       229892   -22551.633    1732.5136   -24284.147    -692.7732    184.52944    39.474854    35.570292    26.783628 
   28600    230.77272   -393.63405       229892   -22589.015    1640.6168   -24229.632   -987.76561    185.02658    39.472133    35.569509    26.781083 
   28800     232.9047     -397.203       229892   -22596.022    1655.7735   -24251.796   -1031.5214    185.80692    39.472269    35.569756    26.780715 
   29000    237.76136    -280.2737       229892   -22572.256    1690.3006   -24262.557   -579.56155    188.13008    39.473066    35.568028    26.776376 
   29200    233.94652   -418.55552       229892    -22519.82    1663.1801       -24183   -1130.7569    190.07545    39.474672     35.56739    26.773555 
   29400    238.06157   -310.93637       229892   -22530.723    1692.4349   -24223.158   -712.20989    190.22816     39.47358    35.567936    26.782601 
   29600    235.44335   -316.92837       229892   -22513.525    1673.8214   -24187.346   -686.18351    190.64597    39.472935    35.567091     26.76401 
   29800    235.23088   -361.80584       229892   -22601.627    1672.3109   -24273.938   -844.46028     191.3008    39.471885    35.566001    26.785497 
   30000     225.3563   -227.76094       229892   -22664.178    1602.1102   -24266.288   -374.86565    192.37613    39.469733    35.568374    26.806489 
   30200    236.86858   -448.41874       229892   -22574.843    1683.9537   -24258.797   -1191.2278    192.90615     39.47027    35.569588    26.794455 
   30400    230.15295   -276.23944       229892   -22588.529    1636.2107   -24224.739   -498.54891    194.68102    39.472488    35.569699    26.807528 
   30600    232.29011   -555.43064       229892   -22620.679    1651.4043   -24272.083   -1629.1044    196.20837    39.472821    35.570124     26.80621 
   30800    232.87122   -389.28864       229892   -22560.057    1655.5355   -24215.593   -989.45823    196.74553    39.473421    35.570931    26.794094 
   31000     235.6445   -226.51309       229892   -22548.013    1675.2514   -24223.265   -323.89986    195.96379    39.474843    35.569618    26.761045 
   31200    238.24856   -227.29803       229892    -22564.06    1693.7643   -24257.824     -329.682    196.83156    39.475083    35.570287    26.769057 
   31400    234.91912   -320.54316       229892   -22551.753    1670.0945   -24221.848   -705.91274    197.21008    39.474337     35.57145    26.779989 
   31600    234.71972   -430.90198       229892   -22544.807     1668.677   -24213.484   -1135.0349    198.26294    39.474959    35.569509     26.77807 
   31800    235.35856   -346.26789       229892   -22464.553    1673.2186   -24137.772   -795.91346    199.64539    39.473633    35.569333    26.804587 
   32000    231.66505   -357.33978       229892   -22565.335    1646.9606   -24212.296   -854.39624    201.36599    39.474941    35.568792    26.800182 
   32200    229.30536   -383.92631       229892    -22546.93     1630.185   -24177.115   -961.45849    203.09261    39.475974     35.56903    26.793203 
   32400    234.38006   -329.78114       229892   -22561.133    1666.2622   -24227.396   -733.20883     201.2924    39.476571    35.571167    26.813894 
   32600     239.0448   -336.87239       229892   -22530.535    1699.4249    -24229.96   -779.55382    202.77306    39.477258    35.572044    26.838986 
   32800    233.55522   -392.54486       229892   -22530.063    1660.3983   -24190.462   -1032.0098    204.54239    39.479126     35.57175    26.842302 
   33000    235.85094   -264.94428       229892   -22547.713    1676.7191   -24224.432   -526.42832    206.05272    39.477574    35.571674    26.845178 
   33200     235.1739   -340.65588       229892   -22544.422    1671.9058   -24216.327   -810.40107    209.06302    39.476185    35.570267    26.854034 
   33400    226.62474   -296.42416       229892   -22608.699    1611.1278   -24219.827   -585.52816    208.21106     39.47591    35.569422    26.847165 
   33600    237.41697   -393.81941       229892    -22589.04    1687.8523   -24276.892   -1012.2002    208.86866     39.47743    35.568754    26.865278 
   33800    238.29286   -320.74864       229892   -22470.686    1694.0792   -24164.765   -721.52653    211.10561    39.476302    35.569238    26.842056 
   34000     230.3159   -246.09634       229892   -22548.779    1637.3692   -24186.148   -435.59669    213.66842    39.474635    35.567993    26.848487 
   34200    237.22772    -348.9452       229892   -22530.944    1686.5069   -24217.451    -857.6243    214.92648    39.474699    35.565019    26.853735 
   34400    228.44316   -325.36524       229892   -22562.388    1624.0554   -24186.443   -716.20631    215.26438    39.476805    35.566454    26.869358 
   34600    241.29939   -502.14633       229892   -22440.618    1715.4533   -24156.071   -1429.7368    215.27757    39.475688    35.570147    26.860252 
   34800     233.1156   -358.25265       229892   -22529.516    1657.2729   -24186.789   -858.27714    216.96053    39.474021    35.571688    26.853949 
   35000    232.71288   -354.06746       229892   -22560.143    1654.4099   -24214.553    -834.6073    217.64451    39.475348     35.57319    26.858332 
   35200    238.11732   -351.72948       229892   -22457.546    1692.8312   -24150.377   -877.92425    218.63155    39.475333    35.575302    26.851758 
   35400    236.09821   -366.79098       229892   -22467.648     1678.477   -24146.125   -873.00309    219.25102    39.474065    35.574276     26.85361 
   35600    236.45561   -495.91728       229892   -22511.808    1681.0178   -24192.826   -1351.7222    222.56009    39.473614    35.573281    26.852501 
   35800    244.90006    -178.9133       229892   -22440.302    1741.0514   -24181.354   -185.16832    223.73214    39.473342     35.57461    26.841934 
   36000    233.70534   -348.16058       229892   -22572.978    1661.4655   -24234.444   -795.18593    224.02326    39.473373    35.575518    26.849007 
   36200    234.41727   -146.28164       229892   -22606.166    1666.5267   -24272.692   -19.709174    223.91748    39.470913    35.577974    26.853391 
   36400    237.55843   -256.95539       229892   -22571.179     1688.858   -24260.037   -495.36649    224.62401    39.470855    35.577218    26.881516 
   36600    227.95767   -519.73482       229892   -22521.365     1620.604   -24141.969   -1481.2366    226.78227     39.47134    35.575261     26.88601 
   36800    231.31868   -389.66308       229892   -22543.234    1644.4981   -24187.732   -1000.4646    227.85809    39.471178     35.57509     26.88194 
   37000    232.46991   -426.67907       229892   -22537.277    1652.6825   -24189.959   -1070.7422    230.11197    39.472202    35.574615    26.878322 
   37200    229.81553   -327.88013       229892   -22560.194    1633.8119   -24194.006    -724.8546    231.81816     39.47117    35.576657     26.88436 
   37400    231.63093    -289.7399       229892   -22567.702     1646.718    -24214.42   -621.30661    234.20046    39.467713    35.575966    26.883259 
   37600    230.29861   -386.46602       229892   -22573.472    1637.2462   -24210.718   -921.56586    235.66862    39.468866    35.575868     26.89116 
   37800     232.5082   -322.92108       229892   -22626.239    1652.9547   -24279.194   -695.13155    238.81845    39.466814    35.575637    26.903905 
   38000    238.67846    -449.0751       229892    -22539.26    1696.8205   -24236.081   -1213.0132     238.8223    39.465945    35.575538    26.896006 
   38200    235.38472   -334.71515       229892   -22592.497    1673.4046   -24265.902   -769.09726     241.0035    39.468748    35.572326    26.904606 
   38400    235.57813   -405.48117       229892   -22545.696    1674.7796   -24220.475   -1009.5294    239.81984    39.471004    35.573746    26.903488 
   38600    233.31539   -352.29887       229892   -22576.008    1658.6932   -24234.702   -824.59257    241.84455    39.471398    35.573601    26.911018 
   38800    238.39422   -499.51152       229892   -22567.791    1694.7998   -24262.591   -1393.2241    244.02749    39.471528     35.57458    26.921669 
   39000    239.34769   -416.53559       229892   -22546.301    1701.5782   -24247.879   -1098.0077    245.77347    39.469992    35.575701    26.932618 
   39200    231.89399   -378.48519       229892   -22645.753    1648.5882   -24294.342   -919.53607    246.02977    39.470226    35.578532    26.919299 
   39400    236.45608   -384.06087       229892   -22635.328    1681.0212   -24316.349   -923.45035    246.21772    39.472582    35.578749    26.930233 
   39600     234.2476   -321.61663       229892   -22576.136    1665.3205   -24241.456   -728.23547     248.3851    39.475691    35.577628    26.927273 
   39800    235.07635   -398.62347       229892   -22600.704    1671.2123   -24271.916   -1061.3592    248.71031    39.475523    35.578563    26.940556 
   40000    234.27482   -237.24662       229892   -22587.511     1665.514   -24253.025    -405.2087    248.81896    39.477413    35.580521    26.953991 
   40200    229.63688   -352.22068       229892   -22567.114    1632.5418   -24199.655    -815.3232    248.15524    39.476921    35.580589    26.946697 
   40400    229.88899   -372.47911       229892   -22584.706    1634.3341    -24219.04   -903.00579    249.83425    39.477679    35.580643    26.936679 
   40600    237.38098    -393.7609       229892   -22483.242    1687.5964   -24170.838   -1001.9502    250.84744    39.477414     35.58354    26.952142 
   40800    227.42813   -505.22342       229892   -22578.319    1616.8394   -24195.158   -1442.7274    252.85774    39.473875    35.584281    26.950138 
   41000     239.7806   -443.12578       229892   -22521.384    1704.6559    -24226.04   -1163.6166    253.99033    39.472534    35.584666    26.956675 
   41200    242.35475   -419.72618       229892   -22475.546    1722.9561   -24198.502   -1099.3271    256.24335    39.471893    35.582416    26.978616 
   41400    236.65081   -445.00748       229892   -22531.165    1682.4055    -24213.57   -1205.0331    257.47881    39.469714    35.581745     27.00809 
   41600    234.50772   -479.26464       229892   -22550.567    1667.1698   -24217.737   -1307.4313    259.28985    39.470308    35.581039    27.008434 
   41800    237.22606   -165.67319       229892   -22559.581    1686.4951   -24246.076   -80.168676    259.55882    39.470556    35.581718    27.016483 
   42000    232.51872   -321.18619       229892   -22573.489    1653.0295   -24226.518   -690.95162    261.43461    39.471361    35.583072    27.027988 
   42200    230.48286   -318.54232       229892   -22641.142    1638.5561   -24279.698   -670.52152    263.06364    39.468542     35.58083    27.026176 
   42400    235.67404   -385.67125       229892   -22616.068    1675.4614   -24291.529   -1047.9431    264.67606    39.468857    35.580963      27.0277 
   42600     233.2826   -324.54891       229892   -22685.834    1658.4601   -24344.294   -765.38923    264.59681    39.467321    35.580635    27.043592 
   42800    232.73688   -319.60184       229892   -22608.531    1654.5804   -24263.112   -672.19797     265.7182    39.465121    35.580911    27.035425 
   43000    230.11305   -505.23328       229892   -22588.173    1635.9271     -24224.1   -1438.7124    268.17492    39.465748    35.580399    27.019389 
   43200     231.9833   -330.37024       229892   -22592.283    1649.2231   -24241.506   -715.16288    269.10832    39.466111    35.580042       27.021 
   43400    235.02079   -388.98655       229892   -22545.067    1670.8173   -24215.884   -947.10859    269.88378     39.46376    35.579782    27.025343 
   43600    237.36148   -402.61235       229892   -22557.474    1687.4578   -24244.932   -1036.2167    271.35693      39.4639    35.577426    27.023684 
   43800    235.57293   -357.46524       229892   -22624.417    1674.7426   -24299.159   -816.85236    271.87369    39.465449      35.5773    27.006842 
   44000    229.54192   -343.73838       229892   -22652.811    1631.8668   -24284.678   -800.33938    273.00531    39.464151    35.575689     27.01306 
   44200    230.28231   -422.57207       229892   -22602.875    1637.1303   -24240.005   -1095.8058    274.56766    39.465367    35.573791    27.013304 
   44400     231.9274   -279.51345       229892     -22611.7    1648.8257   -24260.526   -519.73853    275.12699    39.466603    35.571076    27.017506 
   44600    232.97337   -374.61023       229892   -22621.563    1656.2617   -24277.824   -875.74815    275.80964    39.467889    35.571085    26.996185 
   44800    229.59648   -320.63808       229892   -22622.804    1632.2547   -24255.058   -698.76131    275.81483     39.46627    35.570207    26.984246 
   45000    233.76787   -297.51647       229892   -22609.347      1661.91   -24271.257   -614.37966    275.18542    39.462628    35.569633    26.987718 
   45200    236.04127   -254.59444       229892   -22544.984    1678.0721   -24223.056   -450.63644    277.30398    39.461191    35.572176    26.995141 
   45400    231.36759   -534.14334       229892    -22608.94    1644.8459   -24253.786   -1484.3314    277.40191    39.461731    35.572266    27.003866 
   45600    235.31072   -393.55428       229892    -22537.21    1672.8785   -24210.089   -997.42669     278.2969    39.461925    35.572222    26.995762 
   45800    235.33722   -251.78947       229892   -22601.767    1673.0669   -24274.834   -435.68436    279.51764    39.460908     35.57089    26.987392 
   46000    241.70656   -288.42369       229892   -22512.464     1718.348   -24230.812   -572.18233    280.29483    39.460247    35.570333    26.998696 
   46200    238.48214   -432.97902       229892   -22476.963    1695.4249   -24172.388   -1124.5778    282.02766    39.460269    35.570814    26.995376 
   46400    233.11657   -319.89991       229892   -22534.846    1657.2798   -24192.125   -678.37445    283.16999    39.461545    35.569802    26.995468 
   46600     239.2024   -335.49911       229892   -22532.241    1700.5454   -24232.787   -767.73486    282.88701    39.460583    35.568651    26.998975 
   46800    235.52097   -453.83978       229892   -22525.907    1674.3732    -24200.28   -1233.1839    284.05685    39.460413    35.569694    27.009357 
   47000    235.93781   -406.28577       229892   -22503.596    1677.3366   -24180.933   -1051.9803    283.74829    39.458105    35.569928    27.011292 
   47200    231.60512   -221.63238       229892   -22659.428    1646.5345   -24305.963    -299.2623    285.54806    39.456478    35.574059    26.996104 
   47400    232.12353   -306.68149       229892   -22594.236      1650.22   -24244.456    -632.2462     286.0944    39.454301    35.574664    27.019937 
   47600    239.99252   -431.43981       229892    -22603.48    1706.1625   -24309.643   -1117.5456    287.27936    39.451009     35.57438    27.030603 
   47800    232.18981    -467.7774       229892   -22609.633    1650.6912   -24260.324   -1273.0884    289.03928    39.450163    35.571237    27.039664 
   48000    230.66256   -329.62658       229892   -22612.625    1639.8337   -24252.458   -723.94667    289.14029    39.448974    35.572361    27.044595 
   48200    238.28786   -393.11395       229892   -22648.944    1694.0437   -24342.988   -983.63986      288.885     39.44743    35.572083    27.047924 
   48400    233.41965   -371.85952       229892   -22656.243    1659.4344   -24315.678   -895.72658    289.88411    39.449592     35.57173    27.066164 
   48600    235.63706    -468.7126       229892   -22745.264    1675.1985   -24420.462   -1254.0508    292.83337    39.449981    35.571727    27.066265 
   48800    235.90495   -336.07664       229892   -22714.592     1677.103   -24391.695   -742.63141    290.50473    39.452364    35.572965    27.069787 
   49000    232.83144    -362.1543       229892   -22684.929    1655.2527   -24340.182   -857.07567    292.12362     39.45469    35.574016    27.081082 
   49200    236.78689   -473.94157       229892   -22601.086     1683.373   -24284.459   -1356.8006    293.49887    39.453425    35.574627    27.101853 
   49400    233.74988   -313.38682       229892    -22652.86    1661.7821   -24314.642     -681.985    293.66548    39.453645    35.575136    27.095127 
   49600    233.95946   -284.96514       229892   -22668.804     1663.272   -24332.076   -557.10008    292.55852    39.453553    35.575141    27.096282 
   49800    232.65794     -452.609       229892   -22645.803    1654.0192   -24299.822   -1194.4977    292.43054    39.454148    35.573556    27.093377 
   50000    234.86922   -424.43737       229892   -22613.249    1669.7398   -24282.989   -1105.2024    292.42532     39.45382    35.572351    27.074315 
   50200    230.83521   -501.48872       229892   -22562.619    1641.0611    -24203.68   -1411.1068    294.43947    39.452635    35.573499    27.077985 
   50400    234.13334   -392.26521       229892   -22609.885    1664.5083   -24274.393   -993.01001    294.27664    39.451974    35.574924    27.087075 
   50600    240.15346   -238.86072       229892   -22508.494    1707.3066   -24215.801   -378.57011    294.81911    39.451997    35.573485    27.082541 
   50800    227.72166   -272.54028       229892   -22670.731    1618.9261   -24289.657   -497.00594    294.92095    39.452696    35.573077    27.106407 
   51000     231.3381   -436.39074       229892   -22636.073    1644.6362   -24280.709    -1155.143    295.98891    39.452773    35.570432    27.095452 
   51200    237.06742   -307.87296       229892   -22641.532    1685.3673   -24326.899   -675.31132    297.10088    39.450524    35.568024    27.088982 
   51400     236.2963   -385.02293       229892   -22607.377    1679.8852   -24287.262   -964.39011    298.69091    39.449358    35.563773     27.10441 
   51600    229.88317     -205.639       229892   -22639.773    1634.2928   -24274.066    -229.3403    299.26862    39.448471    35.562762    27.091513 
   51800    227.53417   -398.41097       229892   -22592.627    1617.5932    -24210.22   -988.73993    301.01418    39.448296    35.561477    27.068703 
   52000    230.22467   -473.83545       229892   -22673.158    1636.7206   -24309.879   -1266.3802    300.93121    39.449148    35.561477    27.062794 
   52200    226.46734   -279.73117       229892   -22660.332    1610.0089   -24270.341   -509.13469    301.56197    39.446385    35.563433    27.055948 
   52400    230.98489    -425.1802       229892   -22726.016    1642.1252   -24368.141   -1087.7329    303.25381    39.444111    35.563471    27.049264 
   52600    235.78063   -462.06993       229892   -22613.822    1676.2192   -24290.041   -1314.5566    304.30163    39.443275    35.563049    27.052022 
   52800    238.71262   -377.58132       229892    -22539.54    1697.0634   -24236.603   -926.64571    303.63948    39.442699    35.566287    27.056331 
   53000    243.91286    -453.2368       229892   -22515.413    1734.0331   -24249.446    -1218.351    304.49415    39.440693    35.565418    27.056453 
   53200    233.89356   -353.74702       229892   -22602.058    1662.8035   -24264.861   -849.63783    306.21608    39.439453    35.564078    27.041568 
   53400    237.61531   -383.38005       229892    -22584.22    1689.2624   -24273.482   -915.30865    308.13694    39.439033    35.565096    27.041816 
   53600    231.16089   -419.91265       229892    -22662.36    1643.3764   -24305.736   -1100.0827    308.94322     39.43844    35.568323    27.041377 
   53800    227.92837   -232.36101       229892   -22579.354    1620.3956    -24199.75   -362.94817     306.7006    39.438402    35.569488    27.059059 
   54000    232.04169   -431.11518       229892   -22555.663    1649.6382   -24205.301   -1115.8743    308.23881    39.442134    35.571289    27.069164 
   54200    241.20799   -298.77992       229892   -22507.609    1714.8035   -24222.413   -622.16656    309.79926    39.441704     35.57059      27.0923 
   54400    244.46919   -390.73778       229892   -22486.982    1737.9882    -24224.97   -982.87573    311.82167    39.440739    35.569272    27.071586 
   54600    244.22759   -262.87824       229892   -22537.545    1736.2706   -24273.816   -455.96242    313.21605    39.441874    35.569143    27.066299 
   54800    234.60936   -244.25068       229892   -22520.495    1667.8923   -24188.388   -398.20804    314.16515      39.4442    35.569037    27.065596 
   55000    239.29389   -247.68816       229892   -22519.955    1701.1958   -24221.151   -415.92487    314.81231    39.443514     35.56755    27.070899 
   55200    228.96101   -409.23036       229892   -22658.358    1627.7369   -24286.095   -1027.4107    316.78489    39.442694    35.567757    27.070294 
   55400    233.09202    -408.9926       229892   -22602.887    1657.1052   -24259.993   -1045.5438    316.17917    39.443848     35.56638    27.068497 
   55600    228.91211   -386.12544       229892   -22577.447    1627.3893   -24204.837   -988.31579    316.34554    39.445159    35.565472    27.058484 
   55800    240.87213    -400.1615       229892   -22441.892    1712.4159   -24154.308   -1013.6821    319.29926    39.446054    35.565412    27.049451 
   56000    240.27744   -226.00377       229892   -22484.291    1708.1881   -24192.479   -354.58067    320.18263      39.4456    35.564904    27.067536 
   56200    238.74447    -288.9873       229892   -22523.132    1697.2898   -24220.421   -600.97588    320.30953    39.445236    35.566119    27.075136 
   56400    234.22427   -354.15247       229892    -22610.26    1665.1547   -24275.414   -808.81069    323.10565    39.444779    35.565538    27.077779 
   56600    230.12562   -437.13221       229892   -22697.019    1636.0164   -24333.036    -1225.051    324.87472    39.445935    35.566393    27.066117 
   56800    230.88561   -472.48507       229892   -22629.477    1641.4194   -24270.897   -1295.5888      326.088    39.444247    35.565657    27.053764 
   57000       232.64   -365.70756       229892   -22688.128    1653.8918    -24342.02   -866.44644    324.81138    39.442844    35.565003    27.048686 
   57200    236.57134   -262.04126       229892   -22570.286    1681.8405   -24252.127   -445.40403    324.67921    39.441965     35.56423    27.056931 
   57400    236.63058   -328.52938       229892   -22624.428    1682.2617    -24306.69   -730.35654    325.00076    39.442474    35.561472    27.073269 
   57600    226.90175   -454.20261       229892   -22647.355    1613.0971   -24260.452    -1256.089    324.54997    39.441564    35.558296    27.065238 
   57800    230.82983   -497.92155       229892   -22562.311    1641.0228   -24203.334   -1374.6234    325.97118    39.439781    35.558543    27.057577 
   58000    234.90901   -252.29114       229892   -22571.816    1670.0226   -24241.839    -458.8182    326.73357    39.440029    35.561339    27.047505 
   58200    232.99405   -245.63909       229892   -22508.076    1656.4088   -24164.485   -409.75006    327.58818    39.441703     35.56151    27.062978 
   58400    236.44343   -335.84912       229892   -22546.676    1680.9312   -24227.607   -766.43217    328.90707    39.441237    35.560666    27.047151 
   58600    234.04065    -318.9106       229892    -22581.34    1663.8493   -24245.189   -687.57892    330.32008    39.439781    35.561753    27.042561 
   58800    229.71636   -358.13598       229892   -22595.793    1633.1069     -24228.9   -871.90772    330.68979    39.438562    35.562155    27.037972 
   59000    239.03708   -356.03295       229892   -22501.825    1699.3701   -24201.195   -822.06628     332.4597    39.436829    35.563588    27.051819 
   59200    233.22112    -350.7598       229892   -22535.991     1658.023   -24194.014   -807.81324    333.24516     39.43516    35.565445    27.069246 
   59400    233.58747   -225.15105       229892    -22555.47    1660.6275   -24216.097   -382.39811    335.11949    39.434509    35.562916    27.046992 
   59600    229.56962   -193.14597       229892   -22622.873    1632.0637   -24254.937   -223.84231     336.7749    39.433248    35.560388    27.012415 
   59800    239.61347   -289.33624       229892   -22577.935    1703.4678   -24281.403   -595.11163    339.03638    39.433618    35.560034    27.022312 
   60000    235.65161   -266.93967       229892    -22551.63     1675.302   -24226.932   -518.93779    338.88811    39.435162    35.560753    26.995293 
   60200    235.66139   -433.33371       229892    -22596.86    1675.3715   -24272.232   -1159.0339    338.00196    39.434146     35.56036    26.985665 
   60400    233.26206   -323.04998       229892   -22564.232    1658.3141   -24222.546   -674.59708    337.96144    39.434101    35.559596    26.975539 
   60600    236.33893    -379.6459       229892   -22588.015    1680.1883   -24268.203   -878.93307    340.22611    39.432541    35.558864    26.982641 
   60800    240.49022   -331.24244       229892   -22507.595    1709.7008   -24217.296   -715.94376    341.97662     39.43204    35.558607     26.98299 
   61000    238.34676   -239.99473       229892   -22619.787    1694.4624   -24314.249   -388.75785    343.07834    39.431462    35.559089    26.999353 
   61200    232.52041   -470.75495       229892   -22592.006    1653.0415   -24245.047   -1267.4647    344.23145    39.432946    35.557944    27.010159 
   61400    238.61934   -303.17297       229892   -22580.746    1696.4003   -24277.147   -642.67067    344.58105     39.43467    35.555684    27.034425 
   61600    234.91309   -429.97621       229892   -22596.261    1670.0516   -24266.313   -1102.9236    344.96865    39.434207    35.554983    27.049966 
   61800    236.13998   -358.32147       229892   -22626.744    1678.7739   -24305.517   -825.97346    346.08767    39.436015     35.55562    27.036181 
   62000    235.94222   -510.69622       229892   -22564.872     1677.368    -24242.24   -1454.6363    346.35141    39.437009    35.556467    27.030413 
   62200    233.75881   -523.53903       229892   -22549.009    1661.8456   -24210.855   -1525.2132    347.27745    39.436916    35.559459    27.030761 
   62400    231.89578   -432.02836       229892   -22552.587    1648.6009   -24201.188   -1140.3536    348.13008    39.436966    35.562905    27.037713 
   62600    232.90083   -261.20038       229892   -22581.734     1655.746    -24237.48   -462.70743    348.09845     39.43834    35.564047    27.050397 
   62800    230.82546   -366.90279       229892   -22631.089    1640.9918    -24272.08   -877.50866     349.3427    39.438477    35.563303    27.064427 
   63000    234.29591   -186.92587       229892   -22548.951    1665.6639   -24214.615   -215.01187    350.25843    39.438563    35.565439    27.046284 
   63200    236.18186   -391.24061       229892   -22609.071    1679.0716   -24288.143   -946.82728    349.37767     39.43792     35.56554    27.048381 
   63400     228.9195   -193.15166       229892   -22619.014    1627.4419   -24246.456   -196.92132    349.65996    39.438137    35.563844     27.03726 
   63600    230.34988   -257.59095       229892   -22632.131    1637.6107   -24269.742   -439.51446    351.23139     39.44034    35.563808    27.026845 
   63800    228.11668   -307.57272       229892   -22644.256    1621.7344   -24265.991   -640.79539    353.39106    39.443004    35.565365    27.007747 
   64000    234.92982   -407.36063       229892   -22568.607    1670.1706   -24238.777   -1085.6849    355.66539    39.446443    35.566827    27.004317 
   64200     235.8319    -419.5994       229892   -22582.792    1676.5837   -24259.376   -1083.2971    355.92575    39.445569     35.56698    26.979421 
   64400    232.70306   -294.43666       229892    -22615.37    1654.3401    -24269.71   -588.54028    355.53215     39.44717    35.567613    26.959216 
   64600     228.8211   -349.08424       229892   -22631.589    1626.7423   -24258.331   -815.13197     356.6344    39.450453    35.567849    26.948326 
   64800     235.9929   -323.34413       229892    -22653.97    1677.7283   -24331.699   -710.71451    357.30108    39.453151     35.56799    26.951467 
   65000    237.47867     -376.288       229892    -22558.67     1688.291   -24246.961   -903.84872    358.23036    39.454702    35.567978    26.956789 
   65200    231.40841   -201.56312       229892    -22593.64     1645.136   -24238.776   -222.34323    358.85906    39.453981    35.567766    26.963158 
   65400    235.69856   -94.857606       229892   -22622.204    1675.6357    -24297.84      169.613    360.28199    39.453515    35.567157    26.977117 
   65600    238.79243   -284.66816       229892   -22542.207    1697.6308   -24239.838   -552.62344    360.65578    39.454692    35.567447    26.963766 
   65800    232.32452   -337.23915       229892   -22571.413    1651.6489   -24223.062   -796.78243    362.28554    39.454566    35.569659    26.930579 
   66000     233.2797   -360.87467       229892   -22544.298    1658.4395   -24202.738   -894.17352    363.32211    39.452801    35.568907    26.908985 
   66200     237.9767   -189.04155       229892    -22591.49    1691.8316   -24283.321    -150.7577    362.19814    39.451826    35.568159    26.923277 
   66400    235.37701   -566.42824       229892   -22563.535    1673.3498   -24236.885   -1639.9211    363.70175    39.450431    35.568166    26.911767 
   66600    234.30446   -453.89142       229892   -22610.787    1665.7247   -24276.512   -1230.0246     364.2942    39.451245    35.567217    26.909145 
   66800    232.75578   -372.90301       229892    -22626.82    1654.7148   -24281.535   -947.90608    362.30482    39.451887    35.567449    26.917222 
   67000    229.11282   -208.65666       229892   -22695.819    1628.8162   -24324.636   -267.53986    361.99728    39.453485    35.567368    26.903136 
   67200    229.17402   -353.04306       229892   -22618.597    1629.2513   -24247.849   -838.31296    364.01858    39.454397    35.568212    26.908178 
   67400    231.78518   -154.47674       229892   -22570.332    1647.8146   -24218.147   -69.231391    363.36947    39.455611    35.568702    26.918506 
   67600    237.54621   -346.71109       229892    -22504.21    1688.7711   -24192.981   -808.82081    365.24638    39.457004    35.566597    26.922807 
   67800    240.28396   -412.75023       229892   -22543.183    1708.2344   -24251.417   -1039.5701    366.93985    39.456359    35.562838    26.926142 
   68000    229.51088    -386.4104       229892   -22622.722    1631.6461   -24254.368   -991.78439    367.70641    39.457615    35.564066    26.924809 
   68200    234.88819   -187.53704       229892   -22607.964    1669.8746   -24277.838    -191.1853    368.21603    39.457479    35.564394     26.94095 
   68400      235.611    -445.7819       229892   -22542.212    1675.0132   -24217.225    -1176.259     368.2611    39.457641    35.564169    26.959146 
   68600    234.55261   -391.13207       229892   -22590.224    1667.4889   -24257.713   -1025.1654    368.66001    39.461912    35.563844    26.947766 
   68800    239.47246   -162.96083       229892   -22546.452    1702.4652   -24248.917   -93.054346    369.66846    39.460676    35.566158    26.937111 
   69000    237.24159    -241.5743       229892   -22577.402    1686.6055   -24264.008   -403.27405    371.91571    39.460324     35.56519    26.930712 
   69200    233.51207   -403.75649       229892   -22632.922    1660.0915   -24293.013   -1042.9259    371.50327    39.460315    35.566336    26.922224 
   69400    237.75471   -386.27386       229892   -22690.805    1690.2534   -24381.059   -959.50732    372.31579    39.462454    35.567466    26.897973 
   69600    236.51638   -339.16351       229892   -22559.926    1681.4498   -24241.376   -812.85407    373.10945    39.462208    35.567814    26.900893 
   69800    235.12818   -500.33684       229892   -22618.556    1671.5808   -24290.137   -1402.8914    375.29281    39.464765    35.570295    26.863193 
   70000    237.62777    -167.4616       229892   -22655.977    1689.3509   -24345.328   -125.88177    375.45216    39.464608    35.571706    26.860375 
   70200    237.96516   -182.85976       229892   -22540.651    1691.7495     -24232.4   -173.78743    376.88324    39.464081    35.572155    26.851356 
   70400    242.76848   -340.99713       229892     -22568.5    1725.8974   -24294.397   -809.25052    376.51242    39.465925    35.569338    26.853464 
   70600     231.6478   -403.80639       229892   -22627.853     1646.838   -24274.691   -1076.7457    376.83578    39.465758    35.567036    26.838877 
   70800    233.41272   -439.17198       229892   -22610.642    1659.3851   -24270.027   -1209.0602    379.06904    39.463951    35.563437    26.837524 
   71000    233.13907   -255.36354       229892   -22623.408    1657.4397   -24280.848   -429.97242    379.72629    39.462698    35.561461    26.836283 
   71200    232.04107   -320.51138       229892   -22627.215    1649.6338   -24276.849   -706.39977    381.50029    39.460578    35.557783    26.834996 
   71400    237.93414   -363.57251       229892   -22652.784     1691.529   -24344.313    -878.0997     382.7996    39.458697    35.555411    26.873042 
   71600    242.12647   -154.43293       229892   -22568.704    1721.3332   -24290.037   -76.539575    383.67615    39.455924     35.55785    26.880809 
   71800    229.12206   -346.70406       229892   -22664.738    1628.8818   -24293.619   -855.13049     383.4634    39.456315    35.559823    26.878211 
   72000    234.95874   -355.66163       229892   -22713.968    1670.3762   -24384.345   -889.04604    383.15704    39.455689    35.562195    26.854887 
   72200    236.48797   -271.75984       229892   -22591.007    1681.2478   -24272.255   -499.89214    382.38465    39.456031    35.561046    26.845609 
   72400    229.19462   -277.39156       229892   -22657.666    1629.3977   -24287.064   -539.03062    382.61556    39.456694    35.564113    26.841442 
   72600    242.54411   -353.77236       229892   -22635.774    1724.3023   -24360.076   -856.28908    384.43302    39.454847    35.565235    26.873111 
   72800    235.35576   -337.56248       229892   -22632.355    1673.1987   -24305.554   -796.58839    384.92262    39.454895     35.56525    26.864876 
   73000     232.8425   -415.08921       229892   -22636.971    1655.3313   -24292.302   -1066.8485    384.75746    39.455318    35.564442    26.868693 
   73200    241.94493   -365.19769       229892   -22586.662    1720.0427   -24306.705   -851.47851    386.15911    39.455298    35.564257    26.853335 
   73400    238.51927   -306.17747       229892   -22561.876    1695.6888   -24257.565    -644.6344    385.28507    39.452844    35.563729    26.864869 
   73600    233.69158   -404.79588       229892    -22601.06    1661.3677   -24262.428   -1046.4394    384.91376    39.452836     35.56157    26.881804 
   73800    231.01075   -447.54964       229892   -22698.374     1642.309   -24340.683   -1230.9704    387.73488    39.453016    35.560457     26.89253 
   74000    230.68699   -227.20667       229892   -22703.477    1640.0073   -24343.485    -376.7498    386.56299    39.451924    35.560269    26.898059 
   74200    237.65291   -451.58188       229892   -22603.591    1689.5297    -24293.12   -1230.9563    386.09697    39.450443    35.559731    26.897149 
   74400    234.58551   -322.87131       229892   -22611.995    1667.7228   -24279.717   -751.12849    388.77802    39.451734     35.55752    26.905968 
   74600    233.91866   -227.67814       229892    -22608.59     1662.982   -24271.572   -344.41626    388.51962    39.453282    35.556755    26.916029 
   74800    230.58793   -393.62839       229892   -22615.584    1639.3031   -24254.887   -974.67404    389.75311    39.452408     35.55645      26.8863 
   75000    235.86753   -346.51352       229892   -22624.274     1676.837   -24301.111   -818.46799    389.63536    39.454359    35.556681     26.89739 
   75200    238.54665   -409.48589       229892   -22557.823    1695.8835   -24253.707   -1066.8108    388.37171    39.454964    35.555158    26.893001 
   75400    230.23353   -266.90074       229892   -22639.018    1636.7836   -24275.801   -504.75931    389.31732    39.456421    35.552284    26.884005 
   75600    233.08191   -378.89899       229892   -22600.095    1657.0333   -24257.128    -960.8509    390.51852    39.457475     35.55129    26.875487 
   75800    235.69051   -238.52109       229892   -22539.053    1675.5785   -24214.631   -393.26694     390.6828    39.457116    35.551676    26.881147 
   76000    235.15621   -487.11221       229892   -22522.721    1671.7801   -24194.501   -1370.6159    392.85073    39.457049    35.550304    26.877696 
   76200    230.60464    -390.6305       229892   -22646.873    1639.4219   -24286.295   -1008.8309    392.74746    39.455684    35.551608    26.883236 
   76400    234.43231   -418.85039       229892   -22619.588    1666.6336   -24286.221   -1120.9933    394.48008    39.454759    35.549527    26.875439 
   76600    228.56966   -472.70078       229892   -22609.701    1624.9547   -24234.656   -1287.2685    396.52928     39.45377    35.553043    26.890036 
   76800    235.15244   -412.97342       229892   -22625.547    1671.7532   -24297.301   -1051.9569    396.58869    39.453929    35.553754    26.879613 
   77000    230.96583   -451.88412       229892   -22605.947    1641.9897   -24247.937   -1204.3629    397.43838     39.45503    35.553421    26.871999 
   77200    236.77446    -432.1224       229892   -22606.774    1683.2846   -24290.059   -1174.5329    397.39413    39.454485    35.552737    26.858391 
   77400    235.00646   -474.38777       229892   -22631.431    1670.7155   -24302.147   -1291.3776    398.43013    39.453593    35.550175    26.869304 
   77600    234.80753   -365.64441       229892   -22651.432    1669.3012   -24320.733   -866.56849    399.90523    39.453958    35.548371     26.86259 
   77800    232.64738   -412.90035       229892   -22657.348    1653.9442   -24311.292   -1057.3456    401.28112    39.455417    35.547446    26.860016 
   78000    238.98593   -402.25624       229892   -22644.798    1699.0064   -24343.804   -1021.4038    401.45167    39.455023    35.546533    26.863486 
   78200    229.02345   -480.10831       229892   -22661.044    1628.1808   -24289.225   -1317.7472    403.31028    39.454953    35.547393    26.869432 
   78400    237.27991   -539.41491       229892   -22575.499    1686.8779   -24262.377   -1544.8386    405.32131    39.454393    35.548988    26.856481 
   78600    227.88821   -311.89413       229892   -22600.607    1620.1101   -24220.717   -683.89851    405.35755    39.454582    35.552784     26.86876 
   78800    234.38906   -427.71191       229892    -22577.65    1666.3262   -24243.976   -1132.1319    405.82095    39.457651    35.555191    26.877417 
   79000    229.10993   -363.02567       229892   -22586.979    1628.7956   -24215.775   -905.68284    403.92129    39.458678    35.556067    26.864826 
   79200    240.99719   -419.37428       229892   -22557.992    1713.3049   -24271.297   -1104.8127    404.82859    39.457281    35.554155    26.860345 
   79400    235.42001   -518.87237       229892   -22563.121    1673.6555   -24236.776    -1492.566    404.98959    39.456714    35.554492    26.860028 
   79600    233.06715   -338.32733       229892   -22633.179    1656.9284   -24290.107   -763.63773    405.45057     39.45416    35.552247    26.853637 
   79800    231.21052   -322.26271       229892   -22596.555    1643.7292   -24240.284   -678.12124    404.45001    39.454072    35.550945    26.838599 
   80000    227.91195   -339.30174       229892   -22615.098    1620.2789   -24235.377   -816.90362    406.67085    39.454746    35.550172    26.846773 
   80200     235.8702   -423.64627       229892   -22625.149     1676.856   -24302.005   -1089.2276    409.09178    39.455202    35.549471    26.844184 
   80400    231.71293    -491.7055       229892   -22660.255     1647.301   -24307.556     -1417.82    410.14712    39.453586    35.551057    26.833333 
   80600    232.13044   -412.01973       229892   -22645.932    1650.2691   -24296.201   -1055.1355    409.68465    39.451504    35.552001    26.835095 
   80800    231.45168   -404.30563       229892   -22620.391    1645.4437   -24265.835   -1038.7886    409.60053    39.451306    35.552031    26.828053 
   81000    230.12168   -304.37836       229892   -22623.797    1635.9884   -24259.786   -673.31734    410.80488    39.451134    35.550597    26.868284 
   81200    234.38167   -299.10457       229892   -22591.586    1666.2737    -24257.86   -611.91887    412.47659     39.44812    35.550554    26.867708 
   81400    234.85624   -549.00946       229892   -22576.148    1669.6475   -24245.795   -1623.1627    413.13184    39.441987    35.548297    26.853638 
   81600    230.19039   -493.42683       229892   -22651.048    1636.4768   -24287.525   -1363.7238    413.52539    39.437915    35.548763    26.838128 
   81800    227.44388   -379.35054       229892   -22695.581    1616.9513   -24312.532   -943.37836     414.0919    39.436365    35.548217    26.828801 
   82000     238.9568   -423.56086       229892   -22646.604    1698.7993   -24345.403   -1128.5665    413.81766     39.43731    35.550995    26.838539 
   82200    237.59507    -336.8498       229892   -22560.308    1689.1184   -24249.426   -778.85473    417.92644    39.438273    35.551675     26.85685 
   82400    237.15072   -507.28121       229892   -22606.763    1685.9595   -24292.722   -1520.4194    416.19455    39.437441     35.55521    26.865414 
   82600    237.28619   -202.52227       229892   -22531.494    1686.9226   -24218.416   -229.19636     418.1357    39.438396    35.555555    26.868582 
   82800    235.82922   -306.27497       229892   -22656.603    1676.5646   -24333.168   -626.88722    419.79498     39.44047    35.553705    26.880146 
   83000    244.47215   -344.70274       229892   -22584.424    1738.0092   -24322.433   -815.37487    419.10697    39.441077    35.556851    26.885915 
   83200    233.81803   -286.60964       229892   -22599.419    1662.2666   -24261.685   -567.73623    420.42057    39.446089    35.558304    26.888831 
   83400    235.68118   -382.02348       229892   -22599.693    1675.5122   -24275.205   -930.88673    420.77812    39.445046    35.558643    26.906186 
   83600    229.64551   -439.36218       229892   -22700.104    1632.6032   -24332.707   -1181.8714    420.71683    39.440733    35.558282    26.919809 
   83800    236.15036     -211.772       229892   -22642.056    1678.8477   -24320.903   -298.34213    419.67805    39.438661    35.557295     26.94368 
   84000    234.99337   -332.67224       229892   -22624.037    1670.6224   -24294.659   -751.98931    421.69133    39.437912    35.557474    26.941068 
   84200    236.36072   -437.16271       229892   -22588.951    1680.3432   -24269.295   -1152.3583    421.42638    39.435476    35.560132     26.90384 
   84400    229.04551   -368.21758       229892   -22600.711    1628.3376   -24229.049   -911.39696    421.38645    39.435821    35.560643    26.889211 
   84600    238.31758   -503.61981       229892   -22550.295     1694.255    -24244.55   -1424.0637    421.41825    39.436318    35.562176    26.862597 
   84800    236.42727   -426.22834       229892    -22608.74    1680.8163   -24289.556   -1125.5853    420.75308    39.437032    35.566236     26.86445 
   85000    237.89812    -304.3679       229892    -22571.05    1691.2729   -24262.323   -654.70568    422.04879    39.435479    35.565531    26.877641 
   85200    237.74462   -246.27676       229892   -22572.296    1690.1817   -24262.478   -403.26113    422.91137    39.433447    35.563325    26.880229 
   85400    230.59204   -296.83237       229892   -22669.093    1639.3323   -24308.425   -653.52848    424.46927    39.433351    35.564699    26.871155 
   85600    234.99008   -323.42542       229892   -22626.933     1670.599   -24297.532   -747.09938    426.44489    39.433876    35.564739    26.877013 
   85800    233.91453   -429.33503       229892   -22637.381    1662.9527   -24300.334   -1143.9762    426.28701    39.431949    35.563779     26.87057 
   86000     234.9853   -206.13794       229892   -22578.028     1670.565   -24248.593   -281.94052    425.79342     39.43316    35.559178     26.85985 
   86200     237.4578   -460.79485       229892   -22547.068    1688.1426   -24235.211   -1273.3028    428.59065    39.434346    35.556517    26.875287 
   86400    238.77096   -579.56124       229892   -22602.343    1697.4781   -24299.821   -1739.2329    429.41217    39.433867    35.551649    26.903365 
   86600    232.08991   -267.82949       229892   -22543.136     1649.981   -24193.117   -541.09106    428.73336    39.433288    35.547583    26.899851 
   86800     235.0347   -329.23362       229892   -22596.432    1670.9162   -24267.348   -791.05526     429.5145    39.431577    35.545367    26.904003 
   87000    239.62943   -282.57093       229892    -22541.63    1703.5812   -24245.212   -577.76493    429.45298    39.431584    35.544344    26.908923 
   87200    240.01141    -339.7831       229892   -22502.444    1706.2968   -24208.741   -842.33243    430.15931    39.430232    35.544336    26.917131 
   87400    234.11796    -318.1286       229892   -22596.454    1664.3989   -24260.853   -716.44107    431.09872    39.428812    35.544845    26.929203 
   87600    230.80675   -318.00426       229892   -22511.864    1640.8587   -24152.723   -720.95899     432.3714    39.423872    35.547667    26.919781 
   87800    229.45068   -400.53695       229892   -22598.408    1631.2181   -24229.626   -1057.0103    435.29761    39.424116    35.548518     26.90887 
   88000     240.6193   -244.14533       229892   -22606.501    1710.6184   -24317.119   -424.22091    434.83063     39.42272    35.548365    26.923675 
   88200    237.20388   -402.40282       229892   -22610.149    1686.3374   -24296.486   -1038.9981    435.69325    39.423673    35.547657    26.935567 
   88400    236.01047   -447.65097       229892   -22529.422    1677.8532   -24207.275   -1210.4177    437.58099    39.425185    35.547122    26.916324 
   88600    237.37414   -519.63961       229892   -22597.452    1687.5478       -24285    -1512.436    436.71636    39.423891    35.546366    26.892314 
   88800    229.04901   -418.63629       229892   -22621.905    1628.3625   -24250.268   -1104.9713    439.15019    39.424213    35.545136    26.888219 
   89000    234.18682   -319.72078       229892   -22604.432    1664.8884    -24269.32   -778.21768    440.18768    39.426555    35.541949    26.898207 
   89200    232.72152   -335.04772       229892   -22638.458    1654.4712    -24292.93   -765.51061    440.32321    39.428623    35.539985    26.916265 
   89400    231.56166    -315.3829       229892   -22593.126    1646.2256   -24239.351   -737.88777    439.95383    39.429821     35.54053    26.927614 
   89600    234.83651   -461.16304       229892   -22731.386    1669.5072   -24400.893    -1280.036    440.55475    39.430925     35.54174    26.923225 
   89800    223.55379   -250.05588       229892   -22591.499    1589.2958   -24180.795   -456.47293    441.44147    39.428622      35.5431    26.916069 
   90000    231.97607   -333.18643       229892   -22575.838    1649.1717    -24225.01   -756.74856    443.03349     39.43026    35.544272     26.89613 
   90200     225.7788   -472.48542       229892   -22616.298    1605.1138   -24221.412   -1330.6279    443.87393    39.431625    35.541444     26.88885 
   90400    244.86859   -406.76517       229892   -22584.397    1740.8276   -24325.225   -1051.0691    444.62646    39.430581    35.540442    26.879914 
   90600    230.67251   -261.80286       229892   -22585.036    1639.9044    -24224.94   -511.80338    445.16672    39.429144    35.540296    26.881085 
   90800    237.20487   -391.07195       229892   -22602.914    1686.3444   -24289.258   -1010.1443    445.38548    39.427309    35.540654    26.869868 
   91000    233.51392   -439.19961       229892   -22638.502    1660.1046   -24298.607   -1139.4383    446.91965    39.429248    35.540317    26.863966 
   91200    230.15438   -247.94339       229892   -22707.586    1636.2209   -24343.807   -434.23516     447.0881    39.430373    35.539478    26.843352 
   91400    240.60033   -303.77385       229892    -22620.79    1710.4836   -24331.274   -640.31811    448.78353    39.429077    35.538729    26.842221 
   91600    235.71177   -393.31397       229892   -22521.181    1675.7296    -24196.91   -1013.8329    449.68218    39.427786    35.539283     26.84448 
   91800    234.59061      -354.73       229892   -22545.306    1667.7591   -24213.065   -830.82629    449.33833    39.425938    35.538746    26.834739 
   92000    237.03514   -397.75817       229892    -22523.82    1685.1378   -24208.958   -1033.6621     449.2151    39.423649    35.538942    26.854025 
   92200    237.12623   -409.99732       229892   -22555.341    1685.7854   -24241.127   -1052.5506    449.89773    39.422187    35.540124     26.85109 
   92400    238.68568   -340.83576       229892   -22537.014    1696.8719   -24233.886   -744.05888    449.63022    39.420332    35.540032    26.841815 
   92600    237.39017    -483.2114       229892   -22505.253    1687.6618   -24192.914   -1345.0463    450.57252    39.418338    35.540228    26.851626 
   92800    232.67611   -268.22422       229892   -22600.647    1654.1484   -24254.795   -496.38065     449.1496    39.419797     35.54009    26.882038 
   93000    233.98841   -383.58856       229892   -22611.085    1663.4779   -24274.563   -959.06312    448.72679    39.416771    35.538928     26.86561 
   93200    230.45876   -402.28859       229892   -22604.053    1638.3848   -24242.438   -1028.0693    450.24405    39.414038    35.538956    26.884672 
   93400    230.74534   -446.76799       229892   -22654.461    1640.4221   -24294.884   -1195.3316    450.53415    39.414005    35.536881    26.892578 
   93600    229.72422   -449.92856       229892   -22612.353    1633.1628   -24245.516   -1202.6808    451.78185    39.416248    35.536793    26.892565 
   93800    232.84292   -244.45231       229892   -22645.305    1655.3343   -24300.639   -433.86316    451.94208    39.416223    35.536843    26.903361 
   94000    237.34681   -390.48852       229892   -22644.966    1687.3535   -24332.319   -976.54065    453.25334    39.413954    35.535259    26.893854 
   94200    234.93074   -319.88348       229892   -22531.791    1670.1771   -24201.968   -698.78591    452.60296    39.413344    35.535462    26.871799 
   94400    233.34945   -345.92514       229892   -22584.894    1658.9354    -24243.83   -777.99953    453.46655    39.414227     35.53411    26.865623 
   94600    232.71402   -261.72009       229892   -22586.669    1654.4179   -24241.087   -512.27198    454.09664     39.41464    35.535906    26.862346 
   94800    236.71905   -420.24817       229892   -22578.597    1682.8907   -24261.488   -1085.4052    456.53097    39.414644    35.535529    26.812134 
   95000    236.98131   -347.30707       229892   -22637.958    1684.7551   -24322.713   -842.82677    457.19977    39.416661    35.536544    26.805904 
   95200    233.66056   -246.24784       229892   -22628.729    1661.1471   -24289.876   -397.98637    457.58923    39.417652    35.535493    26.795711 
   95400    240.09881   -385.27188       229892   -22618.288    1706.9181   -24325.206    -977.4024    461.03391    39.416573    35.536082    26.802162 
   95600    230.69218   -375.62411       229892    -22615.59    1640.0442   -24255.635   -924.23278    459.94598      39.4166     35.53266    26.798606 
   95800    233.07771   -503.07588       229892   -22596.159    1657.0035   -24253.163   -1414.1152    462.08923    39.419509    35.530135    26.798071 
   96000    241.62197   -188.49885       229892   -22583.886    1717.7467   -24301.633   -212.49293    460.94737    39.421975    35.528991    26.792585 
   96200    247.80026   -527.90116       229892   -22537.065    1761.6695   -24298.734   -1541.4023     462.0134    39.422738    35.528055    26.778182 
   96400    232.87888   -328.42886       229892   -22622.177      1655.59   -24277.767     -708.251    461.57498    39.422982    35.524939    26.776671 
   96600    235.71202   -666.66743       229892   -22610.179    1675.7314    -24285.91   -2091.3104     463.8853    39.426626    35.524093    26.778081 
   96800    236.82984   -310.80436       229892   -22610.093    1683.6783   -24293.772   -674.52042    463.47325    39.426198    35.520604    26.784119 
   97000    233.43978   -389.87996       229892   -22637.699    1659.5776   -24297.276   -971.36356    463.78731    39.423961    35.518368     26.77209 
   97200    229.45994   -176.48616       229892    -22632.83     1631.284   -24264.114   -131.56092     463.1327    39.424317     35.51945    26.773778 
   97400    235.79845   -325.00689       229892    -22586.61    1676.3459   -24262.956   -753.78123    463.69273    39.424374     35.52358    26.755501 
   97600    234.61705   -409.66365       229892   -22529.227     1667.947   -24197.174   -1053.4516    465.01446    39.422806    35.526845    26.732569 
   97800    237.75816    -241.9274       229892   -22520.752    1690.2779   -24211.029   -376.15031     465.0701    39.423551    35.527985    26.726599 
   98000    237.57127   -312.34514       229892   -22564.576    1688.9492   -24253.525   -627.34863     467.5758    39.424512    35.525917    26.735883 
   98200    232.87008   -388.92067       229892   -22546.484    1655.5274   -24202.011   -989.65896    469.21028    39.425561    35.523742    26.737741 
   98400    237.97636   -450.60562       229892   -22492.455    1691.8292   -24184.285   -1256.2348    468.89113    39.425385    35.523948    26.729538 
   98600     237.2874   -299.31051       229892   -22556.574    1686.9312   -24243.505   -619.21867    471.07991    39.425343    35.523376    26.716281 
   98800    236.60135   -351.24835       229892   -22543.647    1682.0539     -24225.7   -812.78601    471.67236    39.427047     35.52364    26.716172 
   99000    230.98436   -411.68385       229892   -22578.904    1642.1214   -24221.025   -1044.7713    472.03854    39.427156    35.523941    26.715927 
   99200    237.18119    -350.5094       229892   -22575.433    1686.1761   -24261.609   -831.70187     473.3042    39.426705    35.525639    26.709978 
   99400    231.03632   -267.82238       229892   -22578.298    1642.4908   -24220.789   -520.79633    475.14311     39.42374    35.528023    26.695075 
   99600     235.5536   -411.95723       229892   -22571.695    1674.6052   -24246.301   -1036.0671    476.99776    39.423262    35.530012    26.685462 
   99800    237.01027   -413.20719       229892   -22567.334     1684.961   -24252.295   -1062.7934    478.63238    39.422442    35.531793    26.683894 
  100000    238.93896   -189.69632       229892   -22605.005    1698.6725   -24303.677   -199.28404    478.28196    39.422936    35.531222     26.67587 
  100200    231.15388    -380.5069       229892   -22670.967    1643.3266   -24314.293   -941.65921    479.27894    39.424685     35.52878    26.664501 
  100400    238.65694   -345.43022       229892   -22584.436    1696.6676   -24281.103   -797.49068    479.93276    39.426437    35.525481    26.662848 
  100600     230.8552   -390.49537       229892   -22588.125    1641.2032   -24229.328   -1012.7412    481.24095    39.426302    35.524065    26.655304 
  100800    232.59718   -358.61694       229892   -22620.818    1653.5873   -24274.405   -907.35849    482.03598    39.424681    35.525388    26.650207 
[...]
 3976000    222.04894   -245.61195       229892    -24620.81    1578.5974   -26199.408   -435.10855    5171.3193    39.969699    33.355269    26.276342 
 3976200    229.14811   -479.29038       229892   -24616.008     1629.067   -26245.075   -1332.5822    5171.0772    39.970674     33.35461    26.274602 
 3976400    218.61533   -426.55763       229892   -24645.335    1554.1871   -26199.522   -1144.7167    5170.0694    39.971776    33.354466    26.272282 
 3976600      221.927   -377.81805       229892   -24639.595    1577.7305   -26217.326   -969.87197    5170.3888    39.971549    33.354419    26.264087 
 3976800    226.59847   -272.40844       229892   -24573.541    1610.9411   -26184.482    -519.9811    5170.9432    39.973182    33.354042    26.277169 
 3977000    219.67946    -318.9354       229892   -24685.542    1561.7522   -26247.294   -715.11527    5171.5753    39.974188    33.354834    26.271581 
 3977200    226.94394     -429.314       229892   -24587.285    1613.3971   -26200.683   -1132.0446    5170.5048     39.97483    33.355464    26.276253 
 3977400    222.58746   -361.37914       229892   -24605.405    1582.4259   -26187.831    -930.6005    5169.8915    39.975711    33.354191    26.285156 
 3977600    223.74729   -269.55245       229892   -24621.841    1590.6714   -26212.513   -536.40629    5169.7179    39.975761    33.354629    26.275554 
 3977800    225.50803    -494.3119       229892   -24590.546    1603.1889   -26193.735   -1397.1845     5172.699    39.975912    33.354236    26.280782 
 3978000    221.14827   -543.19159       229892   -24639.263    1572.1943   -26211.457   -1583.0132    5170.6873    39.977105       33.353    26.280916 
 3978200    224.44791   -303.84491       229892    -24582.94    1595.6523   -26178.593   -656.21876    5169.9436    39.978481    33.351762    26.279227 
 3978400    224.91429   -323.31294       229892    -24639.17    1598.9679   -26238.138   -779.00844    5170.9977    39.978551    33.350211    26.283097 
 3978600    223.98252   -373.61912       229892   -24618.665    1592.3437   -26211.009   -933.29449    5170.8506    39.978997    33.348721    26.284223 
 3978800    229.03775   -477.15217       229892   -24575.859    1628.2825   -26204.141   -1345.9564     5169.331    39.979476    33.346114    26.282476 
 3979000    227.41704   -398.46793       229892   -24600.871    1616.7605   -26217.632   -1048.0919    5169.8652    39.981273    33.344581    26.287992 
 3979200    219.60754    -443.9889       229892   -24627.475     1561.241   -26188.716   -1192.6942    5170.9675    39.981834    33.342746      26.2772 
 3979400    223.75661   -343.54239       229892   -24595.176    1590.7376   -26185.914   -845.68959    5170.2027    39.981815    33.341207    26.282556 
 3979600    223.59921   -322.90204       229892   -24609.946    1589.6186   -26199.564   -746.60059    5170.3906    39.983025    33.340684    26.281392 
 3979800    226.49723   -357.73847       229892   -24597.676    1610.2213   -26207.897   -868.36994    5170.4349    39.983074    33.340611      26.2846 
 3980000    225.06475   -436.57029       229892   -24600.177    1600.0375   -26200.214   -1230.9271    5171.2165    39.982727    33.341099    26.275134 
 3980200    227.36306   -386.68816       229892   -24574.142    1616.3768   -26190.519   -983.92196    5169.6815    39.984266     33.34122    26.271114 
 3980400    222.24201   -427.24259       229892   -24590.157      1579.97   -26170.127   -1187.6437    5171.2139    39.984368    33.341011    26.260307 
 3980600    227.23742   -491.29698       229892   -24532.085    1615.4835   -26147.568   -1428.5133    5171.4577    39.986268    33.339946    26.263737 
 3980800    226.45576   -429.95629       229892   -24543.645    1609.9265   -26153.571   -1145.3619    5171.1096    39.987225    33.339056    26.256029 
 3981000    219.29084   -475.07718       229892   -24567.595    1558.9894   -26126.585   -1359.8343    5171.0835    39.988851    33.338387    26.263958 
 3981200    223.27754     -355.925       229892   -24549.009    1587.3318   -26136.341     -896.307    5171.8791    39.989643    33.339193    26.266964 
 3981400    224.33677   -296.70885       229892   -24543.623    1594.8621   -26138.485   -641.12107    5170.2574    39.990525    33.339368    26.253013 
 3981600    223.66326   -496.80423       229892   -24614.498     1590.074   -26204.572   -1458.5129    5172.9991    39.990587    33.338848    26.262357 
 3981800    224.14771    -478.4423       229892   -24589.672    1593.5181    -26183.19   -1351.5543    5170.5174    39.992562    33.336677    26.269862 
 3982000    222.74666   -257.42494       229892   -24625.761    1583.5577   -26209.318   -457.66223    5169.7123    39.992841    33.334994    26.270442 
 3982200    223.98829   -171.14662       229892    -24644.53    1592.3847   -26236.915   -172.56404    5170.3095    39.994628    33.333501    26.279001 
 3982400    228.51656   -344.59714       229892   -24581.226    1624.5772   -26205.803   -822.58722    5169.6834    39.995181    33.332197    26.280255 
 3982600    222.38126   -488.35268       229892   -24590.262    1580.9599   -26171.222   -1428.4427    5172.0915    39.997195    33.331505    26.290569 
 3982800    225.97109   -388.82908       229892   -24549.506    1606.4809   -26155.987   -983.65739    5171.0597    39.999147    33.330033    26.285723 
 3983000     228.3109   -303.67983       229892   -24529.411    1623.1151   -26152.526    -665.1127    5170.0008    40.001392    33.329854    26.270169 
 3983200    232.31118   -374.15674       229892    -24570.72    1651.5541   -26222.274   -957.25906    5167.8283    40.002015    33.328936    26.269213 
 3983400    222.96625   -423.01707       229892   -24527.244    1585.1188   -26112.363   -1163.6223     5171.151    40.004064     33.32777     26.27031 
 3983600    229.68235   -359.68857       229892   -24587.175    1632.8651    -26220.04   -884.75107    5169.3839    40.005215    33.327857    26.274823 
 3983800    225.80703   -371.50377       229892   -24574.895    1605.3146    -26180.21   -903.52013    5168.5872    40.006013    33.328604    26.275138 
 3984000    227.00671    -282.0321       229892   -24597.843    1613.8434   -26211.686   -583.61498    5168.6247    40.007069    33.329277    26.278729 
 3984200    222.69321   -327.76613       229892   -24564.304    1583.1777   -26147.482   -765.36732    5169.4982     40.00785    33.329612    26.269883 
 3984400    224.74596   -438.57198       229892   -24593.513    1597.7712   -26191.284   -1183.8149      5171.86    40.007162    33.329678    26.274724 
 3984600      225.963   -383.78052       229892     -24597.6    1606.4234   -26204.024   -959.54055    5169.6213    40.007849    33.330888    26.273949 
 3984800    223.16798   -430.42025       229892   -24575.481     1586.553   -26162.034   -1166.9899    5170.6702    40.007813    33.332102    26.279101 
 3985000    228.08856   -348.81127       229892   -24596.904    1621.5345   -26218.438    -818.7146     5169.255    40.007917    33.331909    26.276081 
 3985200    225.16747    -484.9387       229892   -24568.045    1600.7678   -26168.813   -1411.1615    5171.8517    40.008103    33.332023    26.265848 
 3985400    223.74044   -362.98357       229892   -24586.553    1590.6227   -26177.176   -893.86315    5170.6713    40.008838    33.332356    26.257749 
 3985600     229.4395    -384.8361       229892   -24548.077    1631.1387   -26179.215   -1005.1483    5171.5852    40.008513    33.332783    26.260377 
 3985800    224.49074   -445.38477       229892   -24588.396    1595.9567   -26184.353   -1242.0724    5171.4256    40.007957    33.332434    26.255353 
 3986000    231.61931   -327.03607       229892   -24481.408    1646.6354   -26128.044   -744.60253    5171.1571    40.007747    33.332867    26.260646 
 3986200    231.92838   -427.59891       229892   -24502.447    1648.8326   -26151.279   -1141.3205    5170.7716     40.00832    33.333224    26.255574 
 3986400    218.61691   -371.18874       229892   -24628.869    1554.1983   -26183.068   -935.33298    5171.2622    40.008651    33.334889    26.257614 
 3986600      223.781   -349.11079       229892    -24603.96    1590.9111   -26194.871   -864.93962    5171.6085    40.009947    33.335788    26.258272 
 3986800    224.01517   -470.69636       229892   -24576.544    1592.5758    -26169.12   -1279.5836    5172.7269    40.009894    33.335984    26.261607 
 3987000    231.61784   -307.30261       229892   -24540.947     1646.625   -26187.572   -681.16943    5171.9632     40.00995    33.335798    26.265311 
 3987200    216.31847   -222.19517       229892   -24639.433    1537.8582   -26177.291   -341.60579     5170.226    40.011434    33.334827    26.259239 
 3987400    227.91651   -393.21796       229892   -24584.511    1620.3113   -26204.823   -1026.3251    5173.4929    40.009982    33.334867    26.253427 
 3987600    227.97688   -309.85882       229892   -24525.386    1620.7405   -26146.127   -665.39987    5171.5112    40.010595    33.334775    26.267836 
 3987800    231.15284   -336.28667       229892   -24575.933    1643.3192   -26219.252   -841.62261    5171.2222    40.011596    33.335219    26.276302 
 3988000     223.3497   -476.98238       229892   -24539.562    1587.8449   -26127.406   -1319.3311    5171.9255    40.012586    33.336845    26.280059 
 3988200     224.0828   -388.33913       229892   -24556.285    1593.0566   -26149.341   -1014.6917    5172.6526    40.014594    33.336486    26.293947 
 3988400    225.30131    -331.4565       229892   -24559.816    1601.7193   -26161.535     -806.088     5171.744      40.0158    33.337548    26.292521 
 3988600    222.12949   -450.40848       229892   -24606.396    1579.1701   -26185.566   -1219.4907     5171.346    40.016258    33.337971    26.290637 
 3988800    228.40988   -316.09311       229892   -24597.988    1623.8188   -26221.807   -723.10431    5170.1211    40.016922    33.336945    26.285722 
 3989000    231.00943   -403.71641       229892   -24537.922    1642.2997   -26180.222   -1109.5933     5171.864    40.017915      33.3381    26.299421 
 3989200    220.80813   -333.06607       229892   -24597.473    1569.7762   -26167.249   -770.59493    5169.5488    40.018451    33.336814    26.291406 
 3989400    217.29933   -524.96663       229892   -24613.488    1544.8313   -26158.319   -1541.9957    5172.6326    40.020282     33.33843    26.289484 
 3989600    230.42124   -442.29936       229892   -24518.283     1638.118   -26156.401   -1201.6128    5172.1872    40.020916    33.339481    26.284285 
 3989800    229.28465   -446.94121       229892   -24557.171    1630.0377   -26187.208   -1242.6202    5171.2158    40.021817    33.339859    26.286127 
 3990000    223.24039    -363.7139       229892   -24594.115    1587.0677   -26181.182   -921.24802    5170.5318    40.021979    33.341436    26.301338 
 3990200    220.97637   -532.06137       229892   -24615.278    1570.9723    -26186.25   -1532.7517    5172.0425    40.023551    33.342023    26.306026 
 3990400    222.89192    -424.8278       229892   -24561.651    1584.5904   -26146.241   -1143.3237    5172.1066    40.023399    33.342407    26.303027 
 3990600    223.97535   -418.67055       229892   -24608.112    1592.2927   -26200.405   -1068.2716    5170.7139    40.024831    33.342064    26.302119 
 3990800     225.2565   -399.47204       229892   -24546.267    1601.4007   -26147.668   -1029.0995     5172.077    40.026709    33.342664    26.299264 
 3991000      222.187   -379.76306       229892   -24553.277    1579.5789   -26132.856   -937.00017    5171.3943    40.027034    33.344557    26.300283 
 3991200    227.83667   -313.83615       229892   -24519.621    1619.7437   -26139.364   -670.34478    5170.4821     40.02858    33.344823    26.301479 
 3991400    230.72129   -421.53059       229892   -24511.926    1640.2512   -26152.177    -1174.125    5170.2137    40.029866    33.346116    26.305651 
 3991600      223.779   -357.35451       229892   -24559.572    1590.8968   -26150.469   -913.59293    5171.3992    40.028879    33.346789    26.302599 
 3991800    222.51291   -301.39787       229892   -24637.051    1581.8959   -26218.947   -617.52286    5170.6732    40.028644    33.347252    26.289547 
 3992000     221.0027   -436.87926       229892   -24560.879    1571.1595   -26132.039   -1200.1655    5170.3946    40.028565    33.348303    26.288286 
 3992200    226.23399   -426.00517       229892   -24556.466    1608.3499   -26164.816   -1142.3705     5171.674    40.028852    33.350002    26.295507 
 3992400    223.28297   -397.11535       229892   -24576.619    1587.3704   -26163.989   -1034.3453    5170.9189    40.029133    33.350695    26.284907 
 3992600    221.75664   -364.10657       229892   -24568.479    1576.5194   -26144.999   -895.47326    5169.5358    40.029316    33.352596    26.279389 
 3992800    222.67134   -444.73437       229892    -24576.63    1583.0222   -26159.652   -1198.8797    5169.0753    40.029667    33.353868    26.279836 
 3993000    220.06181   -319.29924       229892   -24677.769    1564.4705    -26242.24   -692.50015    5168.9148     40.03066    33.357054     26.28395 
 3993200    229.26781   -404.18022       229892   -24566.398    1629.9181   -26196.316   -1104.5157    5170.6923    40.030931    33.358393    26.278053 
 3993400     233.7152   -273.50459       229892   -24538.582    1661.5355   -26200.118   -569.07933    5170.1549    40.031395    33.359918    26.283055 
 3993600    225.26742    -426.3729       229892    -24552.34    1601.4784   -26153.818   -1144.4613    5169.4595    40.031227    33.360831    26.280656 
 3993800    224.89236   -356.26168       229892   -24549.329     1598.812   -26148.141   -884.79025      5170.67    40.031773    33.361595    26.272384 
 3994000    222.38864   -378.11687       229892   -24560.424    1581.0124   -26141.436   -931.92904      5169.22    40.034328    33.362353    26.268271 
 3994200     216.1666   -453.69979       229892   -24596.871    1536.7785   -26133.649   -1269.5306    5170.4585    40.035878    33.362458    26.266483 
 3994400    224.01386   -341.60385       229892    -24550.59    1592.5665   -26143.157   -797.35348     5171.163    40.037333    33.362933    26.261766 
 3994600     221.8455   -340.47144       229892   -24604.614    1577.1511   -26181.765   -827.58095    5171.2451    40.038662    33.364376      26.2519 
 3994800    221.84848   -279.29843       229892   -24548.576    1577.1723   -26125.748   -584.05421    5169.7204    40.039153    33.364583    26.254083 
 3995000    226.59307   -411.86499       229892   -24509.658    1610.9027    -26120.56   -1087.6642    5171.2213    40.039009    33.364605    26.255559 
 3995200    223.23474   -339.53432       229892   -24611.572    1587.0276     -26198.6   -807.81655    5170.9829    40.039805    33.363836    26.262887 
 3995400    228.09072   -185.08859       229892    -24540.13    1621.5499    -26161.68   -240.17347    5169.0945    40.041868    33.363181    26.255535 
 3995600    231.41258   -336.70696       229892   -24485.453    1645.1657   -26130.619   -801.13382    5169.9651    40.041745    33.362428    26.256273 
 3995800    225.47221   -413.79512       229892   -24487.392    1602.9342   -26090.326   -1092.0133    5171.4114     40.04343    33.362452    26.257343 
 3996000    237.72229    -355.0145       229892   -24432.239    1690.0229   -26122.262   -856.24928    5171.7556    40.043937    33.361772     26.25576 
 3996200    234.83201   -409.77466       229892   -24508.548    1669.4753   -26178.023   -1053.6297    5168.8294    40.043751    33.362689    26.276174 
 3996400    225.29628   -394.56557       229892   -24583.476    1601.6835    -26185.16   -1049.4122    5168.9525    40.045511    33.361841    26.286741 
 3996600    221.88868   -436.96056       229892   -24548.934    1577.4581   -26126.392   -1206.6626    5169.3779    40.047268    33.362508    26.284554 
 3996800    224.70712   -420.47982       229892   -24605.769     1597.495   -26203.264   -1110.6888    5168.3174      40.0483    33.362359    26.278616 
 3997000    225.74961   -457.80522       229892   -24460.024    1604.9063    -26064.93   -1273.4656    5167.8495    40.049663    33.361229    26.280123 
 3997200    228.04508   -368.04663       229892   -24545.037    1621.2254   -26166.263   -898.66385    5167.0153    40.052264    33.361001    26.280389 
 3997400     217.5651   -358.54267       229892   -24602.173    1546.7208   -26148.894   -894.76239     5168.829    40.052698    33.360866    26.288082 
 3997600    227.42831   -356.95798       229892   -24561.528    1616.8406   -26178.369    -845.8629    5168.4761    40.052822    33.362675    26.274197 
 3997800    215.58964   -417.52562       229892   -24669.594    1532.6767    -26202.27   -1083.7712    5167.9465    40.052076    33.363288    26.286861 
 3998000    228.03664   -381.71055       229892   -24570.635    1621.1654   -26191.801    -958.8838    5169.6274    40.051909    33.364602    26.285397 
 3998200    227.88757   -455.60543       229892   -24582.336    1620.1056   -26202.442   -1303.7234    5168.2868    40.052304     33.36484    26.295747 
 3998400    226.93485   -403.04525       229892   -24476.698    1613.3325    -26090.03   -1051.3637    5167.8553    40.051803    33.365516    26.285817 
 3998600    224.98509   -386.01276       229892   -24589.768    1599.4712   -26189.239   -1032.7427    5169.5692     40.05157    33.365953    26.276701 
 3998800    224.67634   -329.77039       229892   -24539.513    1597.2762   -26136.789     -769.634    5167.5875    40.051938    33.367414    26.272357 
 3999000    229.83209   -456.07449       229892   -24498.809    1633.9297   -26132.739   -1255.5013    5167.9662    40.052641    33.367003    26.282492 
 3999200     223.0107   -421.83502       229892   -24568.479    1585.4348   -26153.914   -1127.1453    5169.4509    40.052903     33.36835    26.290412 
 3999400     219.8023    -413.3063       229892   -24599.064    1562.6256   -26161.689   -1076.1078    5169.0658    40.053071    33.369116    26.290463 
 3999600    223.57701   -419.52633       229892   -24603.606    1589.4608   -26193.067   -1134.6999    5167.7832     40.05308    33.370363    26.285157 
 3999800    226.47024   -413.89928       229892   -24517.077    1610.0295   -26127.107   -1050.8281    5168.1592    40.052643    33.370751    26.290465 
 4000000    229.63222   -494.86905       229892   -24483.624    1632.5087   -26116.133   -1406.4166    5169.4411    40.052071    33.371111    26.284051 
Loop time of 7205.66 on 64 procs for 4000000 steps with 9010 atoms

Performance: 479.623 ns/day, 0.050 hours/ns, 555.119 timesteps/s
99.1% CPU use with 64 MPI tasks x no OpenMP threads

MPI task timing breakdown:
Section |  min time  |  avg time  |  max time  |%varavg| %total
---------------------------------------------------------------
Pair    | 0.52709    | 1837       | 5228.4     |4657.0 | 25.49
Neigh   | 1.1354     | 218.07     | 766.26     |1818.7 |  3.03
Comm    | 455.17     | 2848.8     | 5423.5     |3060.7 | 39.54
Output  | 197.92     | 198.2      | 198.63     |   1.2 |  2.75
Modify  | 206.9      | 1984.2     | 6455.4     |4839.1 | 27.54
Other   |            | 119.4      |            |       |  1.66

Nlocal:        140.781 ave         426 max           0 min
Histogram: 24 1 23 0 0 0 0 0 0 16
Nghost:        812.344 ave        1163 max          50 min
Histogram: 8 0 0 8 0 0 0 24 0 24
Neighs:         0.00000 ave           0 max           0 min
Histogram: 64 0 0 0 0 0 0 0 0 0
FullNghs:      13867.1 ave       51897 max           0 min
Histogram: 39 9 0 0 0 0 0 0 3 13

Total # of neighbors = 887494
Ave neighs/atom = 98.500999
Neighbor list builds = 430520
Dangerous builds = 0
write_data 		${DIR}/data.${NAME}_run
write_data 		run_3/data.${NAME}_run
write_data 		run_3/data.ibeam_cooling_3_run
System init for write_data ...
Total wall time: 2:00:24
