LAMMPS data file via write_data, version 16 Mar 2018, timestep = 10000

8493 atoms
2 atom types

0.0000000000000000e+00 6.8908000000000001e+01 xlo xhi
0.0000000000000000e+00 8.5848301533779775e+01 ylo yhi
0.0000000000000000e+00 2.7975383993793386e+01 zlo zhi

Masses

1 12.01
2 18.015

Atoms # atomic

1 1 0.0000000000000000e+00 2.8417180249513345e+00 1.6770000000000000e+00 0 0 0
3 1 0.0000000000000000e+00 0.0000000000000000e+00 1.6770000000000000e+00 0 0 0
5 1 1.2304999999999999e+00 7.1042950623783474e-01 1.6770000000000000e+00 0 0 0
12 1 1.2304999999999999e+00 2.1312885187134998e+00 1.6770000000000000e+00 0 0 0
14 1 2.4609999999999999e+00 2.8417180249513345e+00 1.6770000000000000e+00 0 0 0
16 1 2.4609999999999999e+00 0.0000000000000000e+00 1.6770000000000000e+00 0 0 0
18 1 3.6915000000000000e+00 7.1042950623783474e-01 1.6770000000000000e+00 0 0 0
33 1 3.6914999999999996e+00 2.1312885187134998e+00 1.6770000000000000e+00 0 0 0
35 1 4.9219999999999997e+00 2.8417180249513341e+00 1.6770000000000000e+00 0 0 0
37 1 4.9219999999999997e+00 0.0000000000000000e+00 1.6770000000000000e+00 0 0 0
39 1 6.1524999999999999e+00 7.1042950623783430e-01 1.6770000000000000e+00 0 0 0
62 1 6.1524999999999999e+00 2.1312885187134993e+00 1.6770000000000000e+00 0 0 0
64 1 7.3829999999999991e+00 2.8417180249513345e+00 1.6770000000000000e+00 0 0 0
66 1 7.3829999999999991e+00 0.0000000000000000e+00 1.6770000000000000e+00 0 0 0
68 1 8.6134999999999984e+00 7.1042950623783430e-01 1.6770000000000000e+00 0 0 0
99 1 8.6134999999999984e+00 2.1312885187135002e+00 1.6770000000000000e+00 0 0 0
101 1 9.8439999999999994e+00 2.8417180249513336e+00 1.6770000000000000e+00 0 0 0
103 1 9.8439999999999994e+00 0.0000000000000000e+00 1.6770000000000000e+00 0 0 0
105 1 1.1074500000000000e+01 7.1042950623783341e-01 1.6770000000000000e+00 0 0 0
141 1 1.1074500000000000e+01 2.1312885187135002e+00 1.6770000000000000e+00 0 0 0
143 1 1.2305000000000000e+01 2.8417180249513336e+00 1.6770000000000000e+00 0 0 0
145 1 1.2305000000000000e+01 0.0000000000000000e+00 1.6770000000000000e+00 0 0 0
147 1 1.3535499999999999e+01 7.1042950623783518e-01 1.6770000000000000e+00 0 0 0
183 1 1.3535499999999999e+01 2.1312885187134984e+00 1.6770000000000000e+00 0 0 0
185 1 1.4765999999999998e+01 2.8417180249513354e+00 1.6770000000000000e+00 0 0 0
187 1 1.4765999999999998e+01 0.0000000000000000e+00 1.6770000000000000e+00 0 0 0
189 1 1.5996499999999999e+01 7.1042950623783518e-01 1.6770000000000000e+00 0 0 0
225 1 1.5996499999999999e+01 2.1312885187135002e+00 1.6770000000000000e+00 0 0 0
227 1 1.7226999999999997e+01 2.8417180249513336e+00 1.6770000000000000e+00 0 0 0
6 1 0.0000000000000000e+00 7.1042950623783341e+00 1.6770000000000000e+00 0 0 0
8 1 0.0000000000000000e+00 4.2625770374269996e+00 1.6770000000000000e+00 0 0 0
10 1 1.2305000000000001e+00 4.9730065436648339e+00 1.6770000000000000e+00 0 0 0
25 1 1.2304999999999999e+00 6.3938655561404989e+00 1.6770000000000000e+00 0 0 0
27 1 2.4609999999999999e+00 7.1042950623783341e+00 1.6770000000000000e+00 0 0 0
29 1 2.4609999999999999e+00 4.2625770374269996e+00 1.6770000000000000e+00 0 0 0
31 1 3.6914999999999996e+00 4.9730065436648339e+00 1.6770000000000000e+00 0 0 0
54 1 3.6914999999999996e+00 6.3938655561404989e+00 1.6770000000000000e+00 0 0 0
56 1 4.9219999999999997e+00 7.1042950623783341e+00 1.6770000000000000e+00 0 0 0
58 1 4.9219999999999997e+00 4.2625770374269987e+00 1.6770000000000000e+00 0 0 0
60 1 6.1524999999999999e+00 4.9730065436648339e+00 1.6770000000000000e+00 0 0 0
91 1 6.1524999999999999e+00 6.3938655561404989e+00 1.6770000000000000e+00 0 0 0
93 1 7.3830000000000000e+00 7.1042950623783341e+00 1.6770000000000000e+00 0 0 0
95 1 7.3829999999999991e+00 4.2625770374269996e+00 1.6770000000000000e+00 0 0 0
97 1 8.6135000000000002e+00 4.9730065436648339e+00 1.6770000000000000e+00 0 0 0
133 1 8.6135000000000002e+00 6.3938655561404998e+00 1.6770000000000000e+00 0 0 0
135 1 9.8439999999999994e+00 7.1042950623783341e+00 1.6770000000000000e+00 0 0 0
137 1 9.8439999999999994e+00 4.2625770374270004e+00 1.6770000000000000e+00 0 0 0
139 1 1.1074499999999999e+01 4.9730065436648339e+00 1.6770000000000000e+00 0 0 0
175 1 1.1074499999999999e+01 6.3938655561404989e+00 1.6770000000000000e+00 0 0 0
177 1 1.2305000000000000e+01 7.1042950623783341e+00 1.6770000000000000e+00 0 0 0
179 1 1.2305000000000000e+01 4.2625770374269987e+00 1.6770000000000000e+00 0 0 0
181 1 1.3535499999999999e+01 4.9730065436648339e+00 1.6770000000000000e+00 0 0 0
217 1 1.3535499999999999e+01 6.3938655561404989e+00 1.6770000000000000e+00 0 0 0
219 1 1.4765999999999998e+01 7.1042950623783323e+00 1.6770000000000000e+00 0 0 0
221 1 1.4766000000000000e+01 4.2625770374269987e+00 1.6770000000000000e+00 0 0 0
223 1 1.5996499999999997e+01 4.9730065436648339e+00 1.6770000000000000e+00 0 0 0
259 1 1.5996499999999999e+01 6.3938655561404989e+00 1.6770000000000000e+00 0 0 0
263 1 1.7226999999999997e+01 4.2625770374270004e+00 1.6770000000000000e+00 0 0 0
21 1 0.0000000000000000e+00 8.5251540748539991e+00 1.6770000000000000e+00 0 0 0
23 1 1.2304999999999997e+00 9.2355835810918343e+00 1.6770000000000000e+00 0 0 0
46 1 1.2304999999999997e+00 1.0656442593567498e+01 1.6770000000000000e+00 0 0 0
50 1 2.4609999999999994e+00 8.5251540748539991e+00 1.6770000000000000e+00 0 0 0
52 1 3.6915000000000000e+00 9.2355835810918343e+00 1.6770000000000000e+00 0 0 0
83 1 3.6914999999999996e+00 1.0656442593567499e+01 1.6770000000000000e+00 0 0 0
87 1 4.9219999999999997e+00 8.5251540748539991e+00 1.6770000000000000e+00 0 0 0
89 1 6.1524999999999999e+00 9.2355835810918343e+00 1.6770000000000000e+00 0 0 0
125 1 6.1524999999999999e+00 1.0656442593567499e+01 1.6770000000000000e+00 0 0 0
129 1 7.3830000000000000e+00 8.5251540748539991e+00 1.6770000000000000e+00 0 0 0
131 1 8.6134999999999984e+00 9.2355835810918343e+00 1.6770000000000000e+00 0 0 0
167 1 8.6134999999999984e+00 1.0656442593567498e+01 1.6770000000000000e+00 0 0 0
171 1 9.8439999999999994e+00 8.5251540748539973e+00 1.6770000000000000e+00 0 0 0
173 1 1.1074499999999999e+01 9.2355835810918343e+00 1.6770000000000000e+00 0 0 0
209 1 1.1074500000000000e+01 1.0656442593567498e+01 1.6770000000000000e+00 0 0 0
213 1 1.2305000000000000e+01 8.5251540748539991e+00 1.6770000000000000e+00 0 0 0
215 1 1.3535499999999999e+01 9.2355835810918325e+00 1.6770000000000000e+00 0 0 0
251 1 1.3535499999999999e+01 1.0656442593567499e+01 1.6770000000000000e+00 0 0 0
255 1 1.4765999999999998e+01 8.5251540748539991e+00 1.6770000000000000e+00 0 0 0
257 1 1.5996499999999999e+01 9.2355835810918361e+00 1.6770000000000000e+00 0 0 0
293 1 1.5996499999999997e+01 1.0656442593567499e+01 1.6770000000000000e+00 0 0 0
297 1 1.7226999999999997e+01 8.5251540748539991e+00 1.6770000000000000e+00 0 0 0
2 1 0.0000000000000000e+00 1.4208590124756650e+00 5.0310000000000006e+00 0 0 0
4 1 0.0000000000000000e+00 0.0000000000000000e+00 5.0310000000000006e+00 0 0 0
11 1 1.2304999999999999e+00 3.5521475311891648e+00 5.0310000000000006e+00 0 0 0
13 1 1.2304999999999999e+00 2.1312885187134998e+00 5.0310000000000006e+00 0 0 0
15 1 2.4609999999999999e+00 1.4208590124756650e+00 5.0310000000000006e+00 0 0 0
17 1 2.4609999999999999e+00 0.0000000000000000e+00 5.0310000000000006e+00 0 0 0
32 1 3.6914999999999996e+00 3.5521475311891648e+00 5.0310000000000006e+00 0 0 0
34 1 3.6914999999999996e+00 2.1312885187134998e+00 5.0310000000000006e+00 0 0 0
36 1 4.9219999999999997e+00 1.4208590124756650e+00 5.0310000000000006e+00 0 0 0
38 1 4.9219999999999997e+00 0.0000000000000000e+00 5.0310000000000006e+00 0 0 0
61 1 6.1524999999999999e+00 3.5521475311891653e+00 5.0310000000000006e+00 0 0 0
63 1 6.1524999999999999e+00 2.1312885187134993e+00 5.0310000000000006e+00 0 0 0
65 1 7.3829999999999991e+00 1.4208590124756659e+00 5.0310000000000006e+00 0 0 0
67 1 7.3829999999999991e+00 0.0000000000000000e+00 5.0310000000000006e+00 0 0 0
98 1 8.6134999999999984e+00 3.5521475311891662e+00 5.0310000000000006e+00 0 0 0
100 1 8.6134999999999984e+00 2.1312885187135002e+00 5.0310000000000006e+00 0 0 0
102 1 9.8439999999999994e+00 1.4208590124756659e+00 5.0310000000000006e+00 0 0 0
104 1 9.8439999999999994e+00 0.0000000000000000e+00 5.0310000000000006e+00 0 0 0
140 1 1.1074500000000000e+01 3.5521475311891644e+00 5.0310000000000006e+00 0 0 0
142 1 1.1074500000000000e+01 2.1312885187135002e+00 5.0310000000000006e+00 0 0 0
144 1 1.2305000000000000e+01 1.4208590124756650e+00 5.0310000000000006e+00 0 0 0
146 1 1.2305000000000000e+01 0.0000000000000000e+00 5.0310000000000006e+00 0 0 0
182 1 1.3535499999999999e+01 3.5521475311891653e+00 5.0310000000000006e+00 0 0 0
184 1 1.3535499999999999e+01 2.1312885187134984e+00 5.0310000000000006e+00 0 0 0
186 1 1.4765999999999998e+01 1.4208590124756650e+00 5.0310000000000006e+00 0 0 0
188 1 1.4765999999999998e+01 0.0000000000000000e+00 5.0310000000000006e+00 0 0 0
224 1 1.5996499999999997e+01 3.5521475311891653e+00 5.0310000000000006e+00 0 0 0
226 1 1.5996499999999999e+01 2.1312885187135002e+00 5.0310000000000006e+00 0 0 0
228 1 1.7226999999999997e+01 1.4208590124756650e+00 5.0310000000000006e+00 0 0 0
7 1 0.0000000000000000e+00 5.6834360499026646e+00 5.0310000000000006e+00 0 0 0
9 1 0.0000000000000000e+00 4.2625770374269996e+00 5.0310000000000006e+00 0 0 0
26 1 1.2304999999999999e+00 6.3938655561404989e+00 5.0310000000000006e+00 0 0 0
28 1 2.4609999999999999e+00 5.6834360499026646e+00 5.0310000000000006e+00 0 0 0
30 1 2.4609999999999999e+00 4.2625770374269996e+00 5.0310000000000006e+00 0 0 0
55 1 3.6914999999999996e+00 6.3938655561404989e+00 5.0310000000000006e+00 0 0 0
57 1 4.9219999999999997e+00 5.6834360499026655e+00 5.0310000000000006e+00 0 0 0
59 1 4.9219999999999997e+00 4.2625770374269987e+00 5.0310000000000006e+00 0 0 0
92 1 6.1524999999999999e+00 6.3938655561404989e+00 5.0310000000000006e+00 0 0 0
94 1 7.3829999999999991e+00 5.6834360499026655e+00 5.0310000000000006e+00 0 0 0
96 1 7.3829999999999991e+00 4.2625770374269996e+00 5.0310000000000006e+00 0 0 0
134 1 8.6135000000000002e+00 6.3938655561404998e+00 5.0310000000000006e+00 0 0 0
136 1 9.8439999999999994e+00 5.6834360499026646e+00 5.0310000000000006e+00 0 0 0
138 1 9.8439999999999994e+00 4.2625770374270004e+00 5.0310000000000006e+00 0 0 0
176 1 1.1074499999999999e+01 6.3938655561404989e+00 5.0310000000000006e+00 0 0 0
178 1 1.2305000000000000e+01 5.6834360499026646e+00 5.0310000000000006e+00 0 0 0
180 1 1.2305000000000000e+01 4.2625770374269987e+00 5.0310000000000006e+00 0 0 0
218 1 1.3535499999999999e+01 6.3938655561404989e+00 5.0310000000000006e+00 0 0 0
220 1 1.4765999999999998e+01 5.6834360499026655e+00 5.0310000000000006e+00 0 0 0
222 1 1.4766000000000000e+01 4.2625770374269987e+00 5.0310000000000006e+00 0 0 0
260 1 1.5996499999999999e+01 6.3938655561404989e+00 5.0310000000000006e+00 0 0 0
262 1 1.7226999999999997e+01 5.6834360499026619e+00 5.0310000000000006e+00 0 0 0
264 1 1.7226999999999997e+01 4.2625770374270004e+00 5.0310000000000006e+00 0 0 0
20 1 0.0000000000000000e+00 9.9460130873296642e+00 5.0310000000000006e+00 0 0 0
22 1 0.0000000000000000e+00 8.5251540748539991e+00 5.0310000000000006e+00 0 0 0
24 1 1.2304999999999997e+00 7.8147245686161639e+00 5.0310000000000006e+00 0 0 0
47 1 1.2304999999999997e+00 1.0656442593567498e+01 5.0310000000000006e+00 0 0 0
49 1 2.4609999999999994e+00 9.9460130873296642e+00 5.0310000000000006e+00 0 0 0
51 1 2.4609999999999994e+00 8.5251540748539991e+00 5.0310000000000006e+00 0 0 0
53 1 3.6914999999999996e+00 7.8147245686161648e+00 5.0310000000000006e+00 0 0 0
84 1 3.6914999999999996e+00 1.0656442593567499e+01 5.0310000000000006e+00 0 0 0
86 1 4.9219999999999997e+00 9.9460130873296659e+00 5.0310000000000006e+00 0 0 0
88 1 4.9219999999999997e+00 8.5251540748539991e+00 5.0310000000000006e+00 0 0 0
90 1 6.1524999999999999e+00 7.8147245686161657e+00 5.0310000000000006e+00 0 0 0
126 1 6.1524999999999999e+00 1.0656442593567499e+01 5.0310000000000006e+00 0 0 0
128 1 7.3830000000000000e+00 9.9460130873296642e+00 5.0310000000000006e+00 0 0 0
130 1 7.3830000000000000e+00 8.5251540748539991e+00 5.0310000000000006e+00 0 0 0
132 1 8.6135000000000002e+00 7.8147245686161639e+00 5.0310000000000006e+00 0 0 0
168 1 8.6134999999999984e+00 1.0656442593567498e+01 5.0310000000000006e+00 0 0 0
170 1 9.8439999999999994e+00 9.9460130873296642e+00 5.0310000000000006e+00 0 0 0
172 1 9.8439999999999994e+00 8.5251540748539973e+00 5.0310000000000006e+00 0 0 0
174 1 1.1074500000000000e+01 7.8147245686161648e+00 5.0310000000000006e+00 0 0 0
210 1 1.1074500000000000e+01 1.0656442593567498e+01 5.0310000000000006e+00 0 0 0
212 1 1.2305000000000000e+01 9.9460130873296642e+00 5.0310000000000006e+00 0 0 0
214 1 1.2305000000000000e+01 8.5251540748539991e+00 5.0310000000000006e+00 0 0 0
216 1 1.3535499999999999e+01 7.8147245686161648e+00 5.0310000000000006e+00 0 0 0
252 1 1.3535499999999999e+01 1.0656442593567499e+01 5.0310000000000006e+00 0 0 0
254 1 1.4765999999999998e+01 9.9460130873296606e+00 5.0310000000000006e+00 0 0 0
256 1 1.4765999999999998e+01 8.5251540748539991e+00 5.0310000000000006e+00 0 0 0
258 1 1.5996499999999997e+01 7.8147245686161622e+00 5.0310000000000006e+00 0 0 0
294 1 1.5996499999999997e+01 1.0656442593567499e+01 5.0310000000000006e+00 0 0 0
296 1 1.7226999999999997e+01 9.9460130873296624e+00 5.0310000000000006e+00 0 0 0
298 1 1.7226999999999997e+01 8.5251540748539991e+00 5.0310000000000006e+00 0 0 0
401 1 0.0000000000000000e+00 2.8417180249513345e+00 8.3849999999999998e+00 0 0 0
402 1 0.0000000000000000e+00 0.0000000000000000e+00 8.3849999999999998e+00 0 0 0
403 1 1.2304999999999999e+00 7.1042950623783474e-01 8.3849999999999998e+00 0 0 0
407 1 1.2304999999999999e+00 2.1312885187134998e+00 8.3849999999999998e+00 0 0 0
408 1 2.4609999999999999e+00 2.8417180249513345e+00 8.3849999999999998e+00 0 0 0
409 1 2.4609999999999999e+00 0.0000000000000000e+00 8.3849999999999998e+00 0 0 0
410 1 3.6915000000000000e+00 7.1042950623783474e-01 8.3849999999999998e+00 0 0 0
418 1 3.6914999999999996e+00 2.1312885187134998e+00 8.3849999999999998e+00 0 0 0
419 1 4.9219999999999997e+00 2.8417180249513341e+00 8.3849999999999998e+00 0 0 0
420 1 4.9219999999999997e+00 0.0000000000000000e+00 8.3849999999999998e+00 0 0 0
421 1 6.1524999999999999e+00 7.1042950623783430e-01 8.3849999999999998e+00 0 0 0
433 1 6.1524999999999999e+00 2.1312885187134993e+00 8.3849999999999998e+00 0 0 0
434 1 7.3829999999999991e+00 2.8417180249513345e+00 8.3849999999999998e+00 0 0 0
435 1 7.3829999999999991e+00 0.0000000000000000e+00 8.3849999999999998e+00 0 0 0
436 1 8.6134999999999984e+00 7.1042950623783430e-01 8.3849999999999998e+00 0 0 0
452 1 8.6134999999999984e+00 2.1312885187135002e+00 8.3849999999999998e+00 0 0 0
453 1 9.8439999999999994e+00 2.8417180249513336e+00 8.3849999999999998e+00 0 0 0
454 1 9.8439999999999994e+00 0.0000000000000000e+00 8.3849999999999998e+00 0 0 0
455 1 1.1074500000000000e+01 7.1042950623783341e-01 8.3849999999999998e+00 0 0 0
473 1 1.1074500000000000e+01 2.1312885187135002e+00 8.3849999999999998e+00 0 0 0
474 1 1.2305000000000000e+01 2.8417180249513336e+00 8.3849999999999998e+00 0 0 0
475 1 1.2305000000000000e+01 0.0000000000000000e+00 8.3849999999999998e+00 0 0 0
476 1 1.3535499999999999e+01 7.1042950623783518e-01 8.3849999999999998e+00 0 0 0
494 1 1.3535499999999999e+01 2.1312885187134984e+00 8.3849999999999998e+00 0 0 0
495 1 1.4765999999999998e+01 2.8417180249513354e+00 8.3849999999999998e+00 0 0 0
496 1 1.4765999999999998e+01 0.0000000000000000e+00 8.3849999999999998e+00 0 0 0
497 1 1.5996499999999999e+01 7.1042950623783518e-01 8.3849999999999998e+00 0 0 0
515 1 1.5996499999999999e+01 2.1312885187135002e+00 8.3849999999999998e+00 0 0 0
516 1 1.7226999999999997e+01 2.8417180249513336e+00 8.3849999999999998e+00 0 0 0
404 1 0.0000000000000000e+00 7.1042950623783341e+00 8.3849999999999998e+00 0 0 0
405 1 0.0000000000000000e+00 4.2625770374269996e+00 8.3849999999999998e+00 0 0 0
406 1 1.2305000000000001e+00 4.9730065436648339e+00 8.3849999999999998e+00 0 0 0
414 1 1.2304999999999999e+00 6.3938655561404989e+00 8.3849999999999998e+00 0 0 0
415 1 2.4609999999999999e+00 7.1042950623783341e+00 8.3849999999999998e+00 0 0 0
416 1 2.4609999999999999e+00 4.2625770374269996e+00 8.3849999999999998e+00 0 0 0
417 1 3.6914999999999996e+00 4.9730065436648339e+00 8.3849999999999998e+00 0 0 0
429 1 3.6914999999999996e+00 6.3938655561404989e+00 8.3849999999999998e+00 0 0 0
430 1 4.9219999999999997e+00 7.1042950623783341e+00 8.3849999999999998e+00 0 0 0
431 1 4.9219999999999997e+00 4.2625770374269987e+00 8.3849999999999998e+00 0 0 0
432 1 6.1524999999999999e+00 4.9730065436648339e+00 8.3849999999999998e+00 0 0 0
448 1 6.1524999999999999e+00 6.3938655561404989e+00 8.3849999999999998e+00 0 0 0
449 1 7.3830000000000000e+00 7.1042950623783341e+00 8.3849999999999998e+00 0 0 0
450 1 7.3829999999999991e+00 4.2625770374269996e+00 8.3849999999999998e+00 0 0 0
451 1 8.6135000000000002e+00 4.9730065436648339e+00 8.3849999999999998e+00 0 0 0
469 1 8.6135000000000002e+00 6.3938655561404998e+00 8.3849999999999998e+00 0 0 0
470 1 9.8439999999999994e+00 7.1042950623783341e+00 8.3849999999999998e+00 0 0 0
471 1 9.8439999999999994e+00 4.2625770374270004e+00 8.3849999999999998e+00 0 0 0
472 1 1.1074499999999999e+01 4.9730065436648339e+00 8.3849999999999998e+00 0 0 0
490 1 1.1074499999999999e+01 6.3938655561404989e+00 8.3849999999999998e+00 0 0 0
491 1 1.2305000000000000e+01 7.1042950623783341e+00 8.3849999999999998e+00 0 0 0
492 1 1.2305000000000000e+01 4.2625770374269987e+00 8.3849999999999998e+00 0 0 0
493 1 1.3535499999999999e+01 4.9730065436648339e+00 8.3849999999999998e+00 0 0 0
511 1 1.3535499999999999e+01 6.3938655561404989e+00 8.3849999999999998e+00 0 0 0
512 1 1.4765999999999998e+01 7.1042950623783323e+00 8.3849999999999998e+00 0 0 0
513 1 1.4766000000000000e+01 4.2625770374269987e+00 8.3849999999999998e+00 0 0 0
514 1 1.5996499999999997e+01 4.9730065436648339e+00 8.3849999999999998e+00 0 0 0
532 1 1.5996499999999999e+01 6.3938655561404989e+00 8.3849999999999998e+00 0 0 0
534 1 1.7226999999999997e+01 4.2625770374270004e+00 8.3849999999999998e+00 0 0 0
412 1 0.0000000000000000e+00 8.5251540748539991e+00 8.3849999999999998e+00 0 0 0
413 1 1.2304999999999997e+00 9.2355835810918343e+00 8.3849999999999998e+00 0 0 0
425 1 1.2304999999999997e+00 1.0656442593567498e+01 8.3849999999999998e+00 0 0 0
427 1 2.4609999999999994e+00 8.5251540748539991e+00 8.3849999999999998e+00 0 0 0
428 1 3.6915000000000000e+00 9.2355835810918343e+00 8.3849999999999998e+00 0 0 0
444 1 3.6914999999999996e+00 1.0656442593567499e+01 8.3849999999999998e+00 0 0 0
446 1 4.9219999999999997e+00 8.5251540748539991e+00 8.3849999999999998e+00 0 0 0
447 1 6.1524999999999999e+00 9.2355835810918343e+00 8.3849999999999998e+00 0 0 0
465 1 6.1524999999999999e+00 1.0656442593567499e+01 8.3849999999999998e+00 0 0 0
467 1 7.3830000000000000e+00 8.5251540748539991e+00 8.3849999999999998e+00 0 0 0
468 1 8.6134999999999984e+00 9.2355835810918343e+00 8.3849999999999998e+00 0 0 0
486 1 8.6134999999999984e+00 1.0656442593567498e+01 8.3849999999999998e+00 0 0 0
488 1 9.8439999999999994e+00 8.5251540748539973e+00 8.3849999999999998e+00 0 0 0
489 1 1.1074499999999999e+01 9.2355835810918343e+00 8.3849999999999998e+00 0 0 0
507 1 1.1074500000000000e+01 1.0656442593567498e+01 8.3849999999999998e+00 0 0 0
509 1 1.2305000000000000e+01 8.5251540748539991e+00 8.3849999999999998e+00 0 0 0
510 1 1.3535499999999999e+01 9.2355835810918325e+00 8.3849999999999998e+00 0 0 0
528 1 1.3535499999999999e+01 1.0656442593567499e+01 8.3849999999999998e+00 0 0 0
530 1 1.4765999999999998e+01 8.5251540748539991e+00 8.3849999999999998e+00 0 0 0
531 1 1.5996499999999999e+01 9.2355835810918361e+00 8.3849999999999998e+00 0 0 0
549 1 1.5996499999999997e+01 1.0656442593567499e+01 8.3849999999999998e+00 0 0 0
551 1 1.7226999999999997e+01 8.5251540748539991e+00 8.3849999999999998e+00 0 0 0
2542 2 1.6647509836911492e+01 6.3446944587156429e+00 1.0890375374891816e+01 0 1 0
5800 2 1.7203083520072031e+01 2.1964982895965901e-01 1.1081177470489822e+01 0 1 0
3218 2 1.5605713464675013e+01 2.2537016022966627e+00 2.4703389649249491e+01 0 0 0
633 2 1.7201103841674708e+01 4.5512114652578024e+00 2.4350127589730384e+01 0 0 -2
662 2 1.6720189520491946e+01 7.3312573622327148e+00 2.4032392394314211e+01 0 0 0
5935 2 1.6021334800972763e+01 2.2088752904684363e+00 2.7420446032163596e+01 0 1 -1
631 2 1.6852928374098887e+01 7.5986021300813853e+00 2.6720998772527601e+01 0 0 0
3450 2 1.7178976572344169e+01 4.8131060228675508e+00 2.7024323715408478e+01 0 0 -1
2573 2 1.6954163250386376e+01 8.7962691794375729e+00 1.5164563108750446e+01 0 0 0
19 1 0.0000000000000000e+00 1.1366872099805333e+01 1.6770000000000000e+00 0 0 0
42 1 0.0000000000000000e+00 1.2787731112280998e+01 1.6770000000000000e+00 0 0 0
44 1 1.2305000000000001e+00 1.3498160618518833e+01 1.6770000000000000e+00 0 0 0
48 1 2.4609999999999999e+00 1.1366872099805335e+01 1.6770000000000000e+00 0 0 0
79 1 2.4609999999999999e+00 1.2787731112280998e+01 1.6770000000000000e+00 0 0 0
81 1 3.6915000000000000e+00 1.3498160618518833e+01 1.6770000000000000e+00 0 0 0
85 1 4.9219999999999997e+00 1.1366872099805333e+01 1.6770000000000000e+00 0 0 0
121 1 4.9219999999999997e+00 1.2787731112281000e+01 1.6770000000000000e+00 0 0 0
123 1 6.1524999999999990e+00 1.3498160618518833e+01 1.6770000000000000e+00 0 0 0
127 1 7.3829999999999991e+00 1.1366872099805335e+01 1.6770000000000000e+00 0 0 0
163 1 7.3829999999999991e+00 1.2787731112280998e+01 1.6770000000000000e+00 0 0 0
165 1 8.6135000000000002e+00 1.3498160618518835e+01 1.6770000000000000e+00 0 0 0
169 1 9.8439999999999994e+00 1.1366872099805335e+01 1.6770000000000000e+00 0 0 0
205 1 9.8439999999999994e+00 1.2787731112280998e+01 1.6770000000000000e+00 0 0 0
207 1 1.1074499999999999e+01 1.3498160618518833e+01 1.6770000000000000e+00 0 0 0
211 1 1.2304999999999998e+01 1.1366872099805333e+01 1.6770000000000000e+00 0 0 0
247 1 1.2305000000000000e+01 1.2787731112280998e+01 1.6770000000000000e+00 0 0 0
249 1 1.3535499999999999e+01 1.3498160618518837e+01 1.6770000000000000e+00 0 0 0
253 1 1.4765999999999998e+01 1.1366872099805336e+01 1.6770000000000000e+00 0 0 0
289 1 1.4765999999999998e+01 1.2787731112281000e+01 1.6770000000000000e+00 0 0 0
291 1 1.5996500000000001e+01 1.3498160618518837e+01 1.6770000000000000e+00 0 0 0
40 1 0.0000000000000000e+00 1.5629449137232333e+01 1.6770000000000000e+00 0 0 0
71 1 0.0000000000000000e+00 1.7050308149707998e+01 1.6770000000000000e+00 0 0 0
73 1 1.2305000000000001e+00 1.7760737655945832e+01 1.6770000000000000e+00 0 0 0
75 1 1.2305000000000001e+00 1.4919019630994498e+01 1.6770000000000000e+00 0 0 0
77 1 2.4610000000000003e+00 1.5629449137232331e+01 1.6770000000000000e+00 0 0 0
113 1 2.4610000000000003e+00 1.7050308149707998e+01 1.6770000000000000e+00 0 0 0
115 1 3.6914999999999996e+00 1.7760737655945832e+01 1.6770000000000000e+00 0 0 0
117 1 3.6915000000000000e+00 1.4919019630994498e+01 1.6770000000000000e+00 0 0 0
119 1 4.9219999999999988e+00 1.5629449137232333e+01 1.6770000000000000e+00 0 0 0
155 1 4.9219999999999988e+00 1.7050308149707998e+01 1.6770000000000000e+00 0 0 0
157 1 6.1524999999999999e+00 1.7760737655945832e+01 1.6770000000000000e+00 0 0 0
159 1 6.1524999999999990e+00 1.4919019630994498e+01 1.6770000000000000e+00 0 0 0
161 1 7.3829999999999991e+00 1.5629449137232333e+01 1.6770000000000000e+00 0 0 0
197 1 7.3830000000000000e+00 1.7050308149707998e+01 1.6770000000000000e+00 0 0 0
199 1 8.6134999999999984e+00 1.7760737655945832e+01 1.6770000000000000e+00 0 0 0
201 1 8.6135000000000002e+00 1.4919019630994498e+01 1.6770000000000000e+00 0 0 0
203 1 9.8439999999999994e+00 1.5629449137232331e+01 1.6770000000000000e+00 0 0 0
239 1 9.8439999999999994e+00 1.7050308149707998e+01 1.6770000000000000e+00 0 0 0
241 1 1.1074500000000000e+01 1.7760737655945835e+01 1.6770000000000000e+00 0 0 0
243 1 1.1074499999999999e+01 1.4919019630994498e+01 1.6770000000000000e+00 0 0 0
245 1 1.2305000000000000e+01 1.5629449137232337e+01 1.6770000000000000e+00 0 0 0
281 1 1.2304999999999998e+01 1.7050308149707998e+01 1.6770000000000000e+00 0 0 0
283 1 1.3535500000000001e+01 1.7760737655945835e+01 1.6770000000000000e+00 0 0 0
285 1 1.3535499999999999e+01 1.4919019630994498e+01 1.6770000000000000e+00 0 0 0
287 1 1.4766000000000000e+01 1.5629449137232337e+01 1.6770000000000000e+00 0 0 0
322 1 1.4766000000000000e+01 1.7050308149707998e+01 1.6770000000000000e+00 0 0 0
324 1 1.5996499999999999e+01 1.7760737655945832e+01 1.6770000000000000e+00 0 0 0
326 1 1.5996499999999999e+01 1.4919019630994500e+01 1.6770000000000000e+00 0 0 0
355 1 1.7226999999999997e+01 1.7050308149708002e+01 1.6770000000000000e+00 0 0 0
69 1 0.0000000000000000e+00 1.9892026174659332e+01 1.6770000000000000e+00 0 0 0
106 1 0.0000000000000000e+00 2.1312885187134999e+01 1.6770000000000000e+00 0 0 0
109 1 1.2305000000000001e+00 1.9181596668421498e+01 1.6770000000000000e+00 0 0 0
111 1 2.4609999999999994e+00 1.9892026174659332e+01 1.6770000000000000e+00 0 0 0
148 1 2.4609999999999994e+00 2.1312885187134995e+01 1.6770000000000000e+00 0 0 0
151 1 3.6914999999999996e+00 1.9181596668421498e+01 1.6770000000000000e+00 0 0 0
153 1 4.9219999999999997e+00 1.9892026174659332e+01 1.6770000000000000e+00 0 0 0
190 1 4.9220000000000006e+00 2.1312885187134995e+01 1.6770000000000000e+00 0 0 0
193 1 6.1524999999999999e+00 1.9181596668421498e+01 1.6770000000000000e+00 0 0 0
195 1 7.3829999999999991e+00 1.9892026174659332e+01 1.6770000000000000e+00 0 0 0
232 1 7.3829999999999991e+00 2.1312885187134999e+01 1.6770000000000000e+00 0 0 0
235 1 8.6135000000000002e+00 1.9181596668421498e+01 1.6770000000000000e+00 0 0 0
237 1 9.8439999999999994e+00 1.9892026174659335e+01 1.6770000000000000e+00 0 0 0
274 1 9.8439999999999994e+00 2.1312885187134999e+01 1.6770000000000000e+00 0 0 0
277 1 1.1074499999999999e+01 1.9181596668421498e+01 1.6770000000000000e+00 0 0 0
279 1 1.2305000000000001e+01 1.9892026174659335e+01 1.6770000000000000e+00 0 0 0
315 1 1.2305000000000000e+01 2.1312885187134999e+01 1.6770000000000000e+00 0 0 0
318 1 1.3535499999999999e+01 1.9181596668421498e+01 1.6770000000000000e+00 0 0 0
320 1 1.4766000000000000e+01 1.9892026174659332e+01 1.6770000000000000e+00 0 0 0
348 1 1.4765999999999998e+01 2.1312885187134999e+01 1.6770000000000000e+00 0 0 0
351 1 1.5996499999999999e+01 1.9181596668421498e+01 1.6770000000000000e+00 0 0 0
373 1 1.7226999999999997e+01 2.1312885187134995e+01 1.6770000000000000e+00 0 0 0
41 1 0.0000000000000000e+00 1.4208590124756665e+01 5.0310000000000006e+00 0 0 0
43 1 0.0000000000000000e+00 1.2787731112280998e+01 5.0310000000000006e+00 0 0 0
45 1 1.2304999999999997e+00 1.2077301606043164e+01 5.0310000000000006e+00 0 0 0
78 1 2.4609999999999999e+00 1.4208590124756665e+01 5.0310000000000006e+00 0 0 0
80 1 2.4609999999999999e+00 1.2787731112280998e+01 5.0310000000000006e+00 0 0 0
82 1 3.6914999999999996e+00 1.2077301606043164e+01 5.0310000000000006e+00 0 0 0
120 1 4.9219999999999997e+00 1.4208590124756663e+01 5.0310000000000006e+00 0 0 0
122 1 4.9219999999999997e+00 1.2787731112281000e+01 5.0310000000000006e+00 0 0 0
124 1 6.1524999999999999e+00 1.2077301606043164e+01 5.0310000000000006e+00 0 0 0
162 1 7.3830000000000000e+00 1.4208590124756665e+01 5.0310000000000006e+00 0 0 0
164 1 7.3829999999999991e+00 1.2787731112280998e+01 5.0310000000000006e+00 0 0 0
166 1 8.6135000000000002e+00 1.2077301606043164e+01 5.0310000000000006e+00 0 0 0
204 1 9.8439999999999994e+00 1.4208590124756665e+01 5.0310000000000006e+00 0 0 0
206 1 9.8439999999999994e+00 1.2787731112280998e+01 5.0310000000000006e+00 0 0 0
208 1 1.1074499999999999e+01 1.2077301606043164e+01 5.0310000000000006e+00 0 0 0
246 1 1.2304999999999998e+01 1.4208590124756661e+01 5.0310000000000006e+00 0 0 0
248 1 1.2305000000000000e+01 1.2787731112280998e+01 5.0310000000000006e+00 0 0 0
250 1 1.3535499999999999e+01 1.2077301606043161e+01 5.0310000000000006e+00 0 0 0
288 1 1.4765999999999998e+01 1.4208590124756661e+01 5.0310000000000006e+00 0 0 0
290 1 1.4765999999999998e+01 1.2787731112281000e+01 5.0310000000000006e+00 0 0 0
292 1 1.5996499999999997e+01 1.2077301606043161e+01 5.0310000000000006e+00 0 0 0
329 1 1.7226999999999997e+01 1.4208590124756661e+01 5.0310000000000006e+00 0 0 0
72 1 0.0000000000000000e+00 1.7050308149707998e+01 5.0310000000000006e+00 0 0 0
74 1 1.2305000000000001e+00 1.6339878643470165e+01 5.0310000000000006e+00 0 0 0
76 1 1.2305000000000001e+00 1.4919019630994498e+01 5.0310000000000006e+00 0 0 0
114 1 2.4610000000000003e+00 1.7050308149707998e+01 5.0310000000000006e+00 0 0 0
116 1 3.6915000000000000e+00 1.6339878643470165e+01 5.0310000000000006e+00 0 0 0
118 1 3.6915000000000000e+00 1.4919019630994498e+01 5.0310000000000006e+00 0 0 0
156 1 4.9219999999999988e+00 1.7050308149707998e+01 5.0310000000000006e+00 0 0 0
158 1 6.1524999999999999e+00 1.6339878643470165e+01 5.0310000000000006e+00 0 0 0
160 1 6.1524999999999990e+00 1.4919019630994498e+01 5.0310000000000006e+00 0 0 0
198 1 7.3830000000000000e+00 1.7050308149707998e+01 5.0310000000000006e+00 0 0 0
200 1 8.6134999999999984e+00 1.6339878643470165e+01 5.0310000000000006e+00 0 0 0
202 1 8.6135000000000002e+00 1.4919019630994498e+01 5.0310000000000006e+00 0 0 0
240 1 9.8439999999999994e+00 1.7050308149707998e+01 5.0310000000000006e+00 0 0 0
242 1 1.1074499999999999e+01 1.6339878643470161e+01 5.0310000000000006e+00 0 0 0
244 1 1.1074499999999999e+01 1.4919019630994498e+01 5.0310000000000006e+00 0 0 0
282 1 1.2304999999999998e+01 1.7050308149707998e+01 5.0310000000000006e+00 0 0 0
284 1 1.3535499999999997e+01 1.6339878643470161e+01 5.0310000000000006e+00 0 0 0
286 1 1.3535499999999999e+01 1.4919019630994498e+01 5.0310000000000006e+00 0 0 0
323 1 1.4766000000000000e+01 1.7050308149707998e+01 5.0310000000000006e+00 0 0 0
325 1 1.5996499999999997e+01 1.6339878643470161e+01 5.0310000000000006e+00 0 0 0
327 1 1.5996499999999999e+01 1.4919019630994500e+01 5.0310000000000006e+00 0 0 0
356 1 1.7226999999999997e+01 1.7050308149708002e+01 5.0310000000000006e+00 0 0 0