
### Dimensions ###


### IMPORT ATOMS ###
read_data ../Box_Setup/data.Ibeam_240K
  orthogonal box = (0 0 0) to (68.908 85.8483 27.9754)
  4 by 8 by 2 MPI processor grid
  reading atoms ...
  8493 atoms
  reading velocities ...
  8493 velocities
group water type 2
1689 atoms in group water
group graphite type 1
6804 atoms in group graphite


# Define potential
#
pair_style          sw
pair_coeff * * MLC_e.sw C mW

# Add velocity/set timestep
#

fix		1 graphite setforce 0.0 0.0 0.0
velocity 	graphite set 0.0 0.0 0.0
velocity            water create ${START_TEMP} ${SEED} rot yes dist gaussian
velocity            water create 240 ${SEED} rot yes dist gaussian
velocity            water create 240 8103 rot yes dist gaussian
timestep            5.0

# Define output
#
compute 1 water msd
compute 2 water temp


thermo	            100
thermo_style custom step c_2 press vol etotal ke pe c_1[4] density

# Neighbor lists
#
neigh_modify        delay 0 every 1 check yes


# Set fixes
#
fix                 2 water momentum 10 linear 1 1 1 rescale
fix                 3 all nve
fix                 4 water temp/csvr ${START_TEMP} ${START_TEMP} 500.0 928347
fix                 4 water temp/csvr 240 ${START_TEMP} 500.0 928347
fix                 4 water temp/csvr 240 240 500.0 928347

# Run 0.05 ns equilibration
#
dump                1 all custom 100 ${DIR}/eq.${NAME}.dump id type x y z vx vy vz
dump                1 all custom 100 run_20/eq.${NAME}.dump id type x y z vx vy vz
dump                1 all custom 100 run_20/eq.ibeam_cooling_20.dump id type x y z vx vy vz
run                 10000
Neighbor list info ...
  update every 1 steps, delay 0 steps, check yes
  max neighbors/atom: 2000, page size: 100000
  master list distance cutoff = 6.67472
  ghost atom cutoff = 6.67472
  binsize = 3.33736, bins = 21 26 9
  1 neighbor lists, perpetual/occasional/extra = 1 0 0
  (1) pair sw, perpetual
      attributes: full, newton on
      pair build: full/bin/atomonly
      stencil: full/bin/3d
      bin: standard
Per MPI rank memory allocation (min/avg/max) = 3.384 | 4.425 | 4.753 Mbytes
Step c_2 Press Volume TotEng KinEng PotEng c_1[4] Density 
       0          240   -298.97748    165492.15   -16025.669    1207.5858   -17233.255            0    1.1252403 
     100    240.11927   -678.06012    165492.15   -16000.252    1208.1859   -17208.438   0.86234607    1.1252403 
     200    235.71454   -549.27581    165492.15    -16043.75     1186.023   -17229.773    1.2924629    1.1252403 
     300    246.42874   -227.70574    165492.15   -16023.545    1239.9327   -17263.477    1.7554123    1.1252403 
     400    243.17287   -492.36165    165492.15   -16039.427    1223.5504   -17262.977    2.1956124    1.1252403 
     500    233.32127   -446.23658    165492.15   -16046.148     1173.981   -17220.129    2.5138542    1.1252403 
     600    231.49582   -471.32177    165492.15   -16129.736    1164.7961   -17294.532     2.956819    1.1252403 
     700    244.23097   -550.24487    165492.15   -16107.177    1228.8744   -17336.052    3.4763275    1.1252403 
     800    235.43226   -466.34373    165492.15   -16143.315    1184.6027   -17327.918    4.0162538    1.1252403 
     900    239.50011   -544.95521    165492.15   -16113.924    1205.0705   -17318.994    4.4223375    1.1252403 
    1000    240.05427   -475.23743    165492.15   -16065.931    1207.8589    -17273.79    4.8922539    1.1252403 
    1100    234.55619   -489.91034    165492.15   -16078.016    1180.1946   -17258.211    5.2334364    1.1252403 
    1200     234.9519    -594.0636    165492.15   -16121.875    1182.1857   -17304.061    5.6227072    1.1252403 
    1300    236.90456   -380.23169    165492.15   -16084.875    1192.0107   -17276.886    5.7366984    1.1252403 
    1400     251.1798   -747.41079    165492.15   -16034.902    1263.8382    -17298.74     5.967104    1.1252403 
    1500    240.53097   -529.78858    165492.15   -16036.962    1210.2574    -17247.22    6.3372827    1.1252403 
    1600     241.9461   -426.57377    165492.15    -16026.67    1217.3778   -17244.048    6.6233543    1.1252403 
    1700    239.63118   -592.15464    165492.15   -16045.204      1205.73   -17250.934    7.0358573    1.1252403 
    1800    238.08786   -527.31183    165492.15   -16052.942    1197.9646   -17250.907    7.6467759    1.1252403 
    1900    246.48896   -448.01214    165492.15   -15971.408    1240.2356   -17211.644    8.4121529    1.1252403 
    2000    247.75167   -384.95673    165492.15   -15957.012    1246.5891   -17203.601    9.0345223    1.1252403 
    2100    243.21282   -462.92845    165492.15   -15973.032    1223.7514   -17196.784    9.6204143    1.1252403 
    2200    238.70788   -434.05065    165492.15   -15978.304    1201.0843   -17179.388    10.287394    1.1252403 
    2300    244.28797   -563.11033    165492.15   -16025.853    1229.1611   -17255.014    10.731199    1.1252403 
    2400    243.89731   -422.74413    165492.15    -16024.99    1227.1955   -17252.185    11.064225    1.1252403 
    2500    246.39753    -580.4644    165492.15   -16023.166    1239.7756   -17262.942    11.718119    1.1252403 
    2600    243.65144   -489.45787    165492.15   -16066.794    1225.9584   -17292.753    12.183705    1.1252403 
    2700     237.8459   -320.64243    165492.15   -16047.216    1196.7472   -17243.963    12.622647    1.1252403 
    2800    241.29958   -563.32732    165492.15   -16053.664    1214.1247   -17267.789    12.937557    1.1252403 
    2900     234.2174   -560.70899    165492.15   -16118.888      1178.49   -17297.378    13.104151    1.1252403 
    3000    230.15879   -474.79513    165492.15   -16145.124    1158.0687   -17303.193    13.403284    1.1252403 
    3100    228.90264   -343.24593    165492.15   -16139.174    1151.7482   -17290.922    13.628261    1.1252403 
    3200    228.98696   -349.51398    165492.15   -16144.806    1152.1725   -17296.978    14.347275    1.1252403 
    3300    234.65588   -438.86389    165492.15    -16101.94    1180.6963   -17282.636    14.904347    1.1252403 
    3400    235.63219   -420.70655    165492.15   -16101.133    1185.6086   -17286.742    15.197545    1.1252403 
    3500     235.9901   -299.72469    165492.15   -16094.607    1187.4095   -17282.016    15.771752    1.1252403 
    3600    237.88694   -572.66721    165492.15    -16070.52    1196.9537   -17267.474    16.101083    1.1252403 
    3700    237.62333   -418.21712    165492.15   -16101.977    1195.6273   -17297.604     16.28681    1.1252403 
    3800    237.59561   -405.20216    165492.15   -16090.553    1195.4878   -17286.041    16.809432    1.1252403 
    3900    236.48365   -797.71451    165492.15   -16095.852    1189.8929   -17285.745    17.125314    1.1252403 
    4000     238.6136   -448.08276    165492.15   -16118.614    1200.6099   -17319.224    17.365003    1.1252403 
    4100    244.93108   -343.07191    165492.15   -16087.868    1232.3971   -17320.265    17.645927    1.1252403 
    4200    240.63572   -418.73528    165492.15   -16064.548    1210.7845   -17275.333    18.164568    1.1252403 
    4300    251.67136   -618.71731    165492.15   -15987.124    1266.3115   -17253.435    18.435759    1.1252403 
    4400    248.60832   -307.40952    165492.15   -16003.613    1250.8995   -17254.513    18.406423    1.1252403 
    4500    240.06283   -409.21055    165492.15   -16048.491    1207.9019   -17256.393    18.451776    1.1252403 
    4600    244.05692   -495.10664    165492.15   -16077.759    1227.9986   -17305.757     18.83356    1.1252403 
    4700    240.60619   -239.78855    165492.15   -16098.021    1210.6359   -17308.657    19.408334    1.1252403 
    4800    241.67783   -566.78514    165492.15   -16065.672    1216.0279     -17281.7    19.958132    1.1252403 
    4900    236.96582    -435.5314    165492.15   -16059.003     1192.319   -17251.322    20.397684    1.1252403 
    5000    239.47132   -390.70022    165492.15   -16085.239    1204.9256   -17290.165    20.702071    1.1252403 
    5100     238.9259   -543.88291    165492.15   -16115.314    1202.1813   -17317.495    20.808842    1.1252403 
    5200    246.89732   -411.95766    165492.15   -16091.007    1242.2904   -17333.298    21.080985    1.1252403 
    5300    235.06022   -536.52376    165492.15   -16146.143    1182.7307   -17328.873    21.241441    1.1252403 
    5400    232.04336   -395.37301    165492.15   -16108.838    1167.5511   -17276.389    21.831952    1.1252403 
    5500    236.93785     -509.385    165492.15   -16139.295    1192.1782   -17331.473    22.123341    1.1252403 
    5600    236.82484   -588.70974    165492.15   -16150.116    1191.6096   -17341.726    21.780812    1.1252403 
    5700    246.91765   -518.79289    165492.15   -16107.132    1242.3927   -17349.525    21.985549    1.1252403 
    5800    244.20488   -414.72182    165492.15   -16031.217    1228.7431    -17259.96    21.947946    1.1252403 
    5900    237.19558   -308.66342    165492.15   -16071.659     1193.475   -17265.134    22.152647    1.1252403 
    6000    237.62669   -686.38498    165492.15   -16148.027    1195.6442   -17343.671    22.695875    1.1252403 
    6100    239.38407   -662.38457    165492.15   -16133.035    1204.4866   -17337.521    23.162094    1.1252403 
    6200    237.82071    -450.8581    165492.15   -16107.378    1196.6204   -17303.998    23.163844    1.1252403 
    6300    244.30216   -473.81369    165492.15   -16079.201    1229.2326   -17308.433    23.446929    1.1252403 
    6400    237.19514   -648.57429    165492.15   -16059.071    1193.4728   -17252.544    23.627894    1.1252403 
    6500    240.71663   -487.35082    165492.15   -16088.126    1211.1916   -17299.317    23.833534    1.1252403 
    6600    242.88855   -561.45335    165492.15   -16135.444    1222.1198   -17357.564    24.320786    1.1252403 
    6700    226.99063   -489.20089    165492.15   -16169.114    1142.1277   -17311.242    24.455167    1.1252403 
    6800    239.64843   -473.80463    165492.15   -16138.312    1205.8168   -17344.129    24.790712    1.1252403 
    6900    239.64941   -559.94306    165492.15    -16165.47    1205.8217   -17371.292    25.130567    1.1252403 
    7000     228.4597    -546.6896    165492.15   -16166.423    1149.5195   -17315.943    25.447746    1.1252403 
    7100    238.88977   -308.05763    165492.15   -16093.136    1201.9995   -17295.136    25.552425    1.1252403 
    7200    233.99763   -343.74194    165492.15   -16083.956    1177.3842   -17261.341    25.827728    1.1252403 
    7300    233.60101   -597.45202    165492.15   -16145.984    1175.3886   -17321.373    25.997176    1.1252403 
    7400    236.98825    -453.5216    165492.15   -16135.482    1192.4318   -17327.914    26.544916    1.1252403 
    7500    233.72046   -238.29915    165492.15   -16166.739    1175.9896   -17342.728    27.010646    1.1252403 
    7600    235.92692   -328.36509    165492.15   -16185.387    1187.0916   -17372.479    27.357089    1.1252403 
    7700     235.2077   -430.27645    165492.15   -16167.411    1183.4728   -17350.884    27.487893    1.1252403 
    7800    236.80559   -579.29814    165492.15   -16106.665    1191.5127   -17298.177    27.875655    1.1252403 
    7900    236.61653   -428.63782    165492.15    -16096.65    1190.5615   -17287.212     27.94613    1.1252403 
    8000    237.08311    -580.1922    165492.15   -16080.496    1192.9091   -17273.405    28.346851    1.1252403 
    8100    242.79643   -495.60502    165492.15    -16091.33    1221.6563   -17312.986    28.450553    1.1252403 
    8200    236.90272   -212.76502    165492.15   -16119.772    1192.0015   -17311.774    28.898967    1.1252403 
    8300    238.74515   -451.25776    165492.15   -16121.138    1201.2719    -17322.41    29.130576    1.1252403 
    8400    238.47829   -533.65409    165492.15   -16097.472    1199.9291   -17297.401    29.404552    1.1252403 
    8500    237.15363   -518.23327    165492.15   -16118.457     1193.264   -17311.721    29.308555    1.1252403 
    8600    239.51809   -442.34091    165492.15    -16069.51     1205.161   -17274.671    29.761539    1.1252403 
    8700    239.04726   -438.60913    165492.15   -16145.402     1202.792   -17348.194     29.78031    1.1252403 
    8800    241.34998   -213.06577    165492.15   -16091.172    1214.3783    -17305.55     29.86361    1.1252403 
    8900    235.27398   -480.27331    165492.15    -16117.75    1183.8063   -17301.556    29.853113    1.1252403 
    9000    242.70969   -286.47922    165492.15   -16069.874    1221.2199   -17291.094    29.923587    1.1252403 
    9100    243.27159   -310.82093    165492.15   -16051.518    1224.0471   -17275.565    30.307537    1.1252403 
    9200    240.58949    -533.5824    165492.15   -16099.562    1210.5518   -17310.113    30.480192    1.1252403 
    9300     238.6981    -492.4209    165492.15   -16119.857    1201.0351   -17320.892    30.844564    1.1252403 
    9400    239.67741   -537.46976    165492.15    -16153.84    1205.9626   -17359.803    30.911922    1.1252403 
    9500    238.87594   -329.76259    165492.15   -16114.112      1201.93   -17316.042    31.174829    1.1252403 
    9600    235.53012   -546.74516    165492.15   -16167.763    1185.0951   -17352.858    31.071487    1.1252403 
    9700    230.98587   -652.27553    165492.15   -16137.932    1162.2302   -17300.163    31.143764    1.1252403 
    9800    239.56082   -481.95762    165492.15   -16137.384     1205.376    -17342.76    31.268607    1.1252403 
    9900    246.19692   -442.03478    165492.15    -16109.12    1238.7662   -17347.886    31.977619    1.1252403 
   10000    248.22166   -410.64283    165492.15   -16030.264    1248.9539   -17279.218    32.137457    1.1252403 
Loop time of 10.3269 on 64 procs for 10000 steps with 8493 atoms

Performance: 418.323 ns/day, 0.057 hours/ns, 968.341 timesteps/s
99.9% CPU use with 64 MPI tasks x no OpenMP threads

MPI task timing breakdown:
Section |  min time  |  avg time  |  max time  |%varavg| %total
---------------------------------------------------------------
Pair    | 0.0016723  | 3.6294     | 8.1518     | 153.4 | 35.15
Neigh   | 0.0079376  | 0.23796    | 0.50069    |  36.8 |  2.30
Comm    | 1.08       | 4.3509     | 8.9769     | 113.8 | 42.13
Output  | 0.1531     | 0.15317    | 0.15398    |   0.0 |  1.48
Modify  | 0.30515    | 1.8413     | 7.6849     | 159.6 | 17.83
Other   |            | 0.1142     |            |       |  1.11

Nlocal:    132.703 ave 256 max 0 min
Histogram: 16 1 5 10 0 0 0 1 18 13
Nghost:    924.594 ave 1158 max 636 min
Histogram: 4 9 3 0 4 12 16 1 5 10
Neighs:    0 ave 0 max 0 min
Histogram: 64 0 0 0 0 0 0 0 0 0
FullNghs:  13909.9 ave 30018 max 0 min
Histogram: 17 15 0 0 0 0 0 7 15 10

Total # of neighbors = 890236
Ave neighs/atom = 104.82
Neighbor list builds = 564
Dangerous builds = 0
write_data 	    ${DIR}/data.${NAME}_eq
write_data 	    run_20/data.${NAME}_eq
write_data 	    run_20/data.ibeam_cooling_20_eq

undump              1
unfix               4



################################################
#######         Run Simulation         #########
################################################

reset_timestep      0
timestep	    10.0
log                 ${DIR}/log.run_${NAME}
log                 run_20/log.run_${NAME}
log                 run_20/log.run_ibeam_cooling_20
