
# Set production fixes - Nose/Hoover
#
fix                 4 water temp/csvr ${START_TEMP} ${END_TEMP} 500.0 928347
fix                 4 water temp/csvr 240 ${END_TEMP} 500.0 928347
fix                 4 water temp/csvr 240 227 500.0 928347


## divide "droplet" into core and surface
#region		core_reg cylinder z 135 135 44.6 20 INF units box
#region		surface_reg cylinder z 135 135 44.6 20 INF units box side out
#group		core dynamic all region core_reg
#group		surface dynamic all region surface_reg

## compute pressure core
#compute        peratom_core core stress/atom NULL
#compute        p_core core reduce sum c_peratom_core[1] c_peratom_core[2] c_peratom_core[3]
#variable       press_core equal -(c_p_core[1]+c_p_core[2]+c_p_core[3])/(3*1249982.5)


## compute pressure surface
#compute        peratom_surf surface stress/atom NULL
#compute        p_surf surface reduce sum c_peratom_surf[1] c_peratom_surf[2] #c_peratom_surf[3]
#variable       press_surf equal -(c_p_surf[1]+c_p_surf[2]+c_p_surf[3])/(3*42395)

## compute total pressure of drop
compute        peratom water stress/atom NULL
compute        p water reduce sum c_peratom[1] c_peratom[2] c_peratom[3]
variable       press equal -(c_p[1]+c_p[2]+c_p[3])/(3*50320)


# compute order parameter
compute        3 all orientorder/atom nnn NULL cutoff 3.5

# compute center of mass of bridge
compute 	4 water com

# Run simulation
thermo_style        custom step c_2 press vol etotal ke pe v_press c_1[4] c_4[*]
thermo              200
dump		     1 water custom 400 ${DIR}/prod.${NAME}.dump id type x y z vx vy vz c_3[*] c_peratom[*]
dump		     1 water custom 400 run_18/prod.${NAME}.dump id type x y z vx vy vz c_3[*] c_peratom[*]
dump		     1 water custom 400 run_18/prod.ibeam_cooling_18.dump id type x y z vx vy vz c_3[*] c_peratom[*]
run                 ${STEPS}
run                 5200000
Neighbor list info ...
  update every 1 steps, delay 0 steps, check yes
  max neighbors/atom: 2000, page size: 100000
  master list distance cutoff = 6.67472
  ghost atom cutoff = 6.67472
  binsize = 3.33736, bins = 48 13 11
  2 neighbor lists, perpetual/occasional/extra = 1 1 0
  (1) pair sw, perpetual
      attributes: full, newton on
      pair build: full/bin/atomonly
      stencil: full/bin/3d
      bin: standard
  (2) compute orientorder/atom, occasional, copy from (1)
      attributes: full, newton on
      pair build: copy
      stencil: none
      bin: none
Per MPI rank memory allocation (min/avg/max) = 0.8534 | 5.94 | 7.143 Mbytes
Step c_2 Press Volume TotEng KinEng PotEng v_press c_1[4] c_4[1] c_4[2] c_4[3] 
       0    243.85387   -209.08312    216009.12   -18663.533    1418.1469    -20081.68   -271.53523     31.78506    78.759523      22.6096    25.604053 
     200    233.45027    -371.4355    216009.12   -18681.358    1357.6441   -20039.002   -1023.9059    33.518044    78.758586    22.608584    25.590189 
     400    234.88985   -260.38001    216009.12     -18657.4    1366.0161   -20023.416   -562.22607    34.473462    78.756571    22.608366    25.574184 
     600    242.27462   -324.42243    216009.12   -18502.877    1408.9627    -19911.84   -806.79394    36.196878    78.757725    22.610305    25.600132 
     800    240.53629   -350.14377    216009.12   -18470.321    1398.8533   -19869.174   -966.40245    38.777113    78.756883    22.612075    25.579108 
    1000    230.90184   -252.77223    216009.12   -18611.603    1342.8236   -19954.427   -465.14845    39.784569    78.757413    22.612853    25.580724 
    1200    243.38752   -305.71176    216009.12     -18575.5    1415.4348   -19990.934   -730.42464    41.372745    78.758218    22.615108    25.599664 
    1400    236.75728   -165.46914    216009.12   -18581.788    1376.8762   -19958.664   -174.97055    44.120389    78.756006    22.614341     25.58998 
    1600    239.23612   -281.81091    216009.12   -18572.296    1391.2921   -19963.588   -645.16888    46.678254    78.755268    22.615168    25.588832 
    1800    239.90037   -244.73834    216009.12   -18523.032    1395.1551   -19918.188   -489.60123    48.973772    78.756432    22.615214    25.581619 
    2000    252.14153    -525.3642    216009.12   -18473.198    1466.3443   -19939.543   -1638.9914    50.676601    78.756265    22.613399    25.601614 
    2200    240.89082   -314.61501    216009.12   -18544.563    1400.9151   -19945.478   -733.58536    52.605012    78.755062    22.613955     25.59428 
    2400    241.01656    -313.7263    216009.12   -18516.671    1401.6464   -19918.317   -776.09256    54.507726    78.753162    22.616065    25.592652 
    2600    231.70998   -330.63594    216009.12   -18540.155    1347.5234   -19887.679   -819.67691    55.957762    78.754274    22.615836    25.582346 
    2800    241.53639   -224.74262    216009.12   -18487.786    1404.6695   -19892.456   -398.54364    57.992317    78.754123    22.617319    25.585668 
    3000    245.64488   -318.74719    216009.12   -18508.597    1428.5626    -19937.16   -734.49498    60.159375    78.753772    22.616336    25.576962 
    3200    237.43739   -263.84991    216009.12   -18566.107    1380.8315   -19946.938   -548.69818    62.154871    78.755149    22.616929     25.56259 
    3400    239.17852   -88.011007    216009.12   -18541.267    1390.9572   -19932.225    178.02041    63.561167    78.756233    22.615961    25.575673 
    3600    241.41585   -409.92517    216009.12   -18535.541    1403.9684    -19939.51   -1176.2748    64.094136    78.756909    22.617016    25.552568 
    3800    240.62347   -355.68478    216009.12   -18517.637    1399.3603   -19916.997   -931.19204    64.327458    78.758179    22.617397    25.531426 
    4000     244.3126   -122.77381    216009.12   -18581.201    1420.8147   -20002.016    42.922302    67.211971    78.761414    22.612436    25.529292 
    4200    240.18883   -326.03961    216009.12   -18539.765    1396.8327   -19936.598   -819.17022    70.270683    78.763955    22.614593    25.517405 
    4400    238.17603   -248.48133    216009.12   -18570.827    1385.1271   -19955.954    -461.4129    71.606432    78.763276    22.616733    25.502295 
    4600    230.71897   -315.90605    216009.12   -18658.093    1341.7601   -19999.853   -779.82639    74.063757    78.765153      22.6185    25.480637 
    4800    236.82596   -406.91431    216009.12   -18499.669    1377.2757   -19876.945   -1180.3693    76.426894    78.765827    22.620861    25.450066 
    5000    240.62874   -239.21374    216009.12    -18535.37     1399.391   -19934.761   -439.05827     79.91369    78.765786    22.623578    25.447567 
    5200    236.42797   -211.16004    216009.12   -18558.624    1374.9611   -19933.585   -367.05857    81.474007    78.766397    22.624354    25.417297 
    5400    238.36688   -286.03333    216009.12   -18584.888     1386.237   -19971.124   -662.46151     83.21281    78.766929     22.62428    25.438302 
    5600    237.86399   -252.21781    216009.12   -18622.548    1383.3124    -20005.86   -527.17622    84.955573    78.766127    22.626321    25.426968 
    5800    245.01822   -303.72847    216009.12   -18549.752    1424.9182   -19974.671   -682.36604    87.157904    78.763549    22.626361    25.425703 
    6000    237.43565   -390.84577    216009.12   -18566.341    1380.8213   -19947.162   -1061.0632    90.023109    78.763845    22.624715    25.420962 
    6200    239.92689   -410.00688    216009.12   -18595.734    1395.3093   -19991.043   -1176.4833    91.894449    78.763625     22.62707    25.407489 
    6400    239.58297    -371.5368    216009.12   -18616.618    1393.3092   -20009.928   -1003.2924    93.265738    78.765403    22.626524     25.40753 
    6600    239.85428   -214.08131    216009.12   -18655.726     1394.887   -20050.613   -294.43007    93.231504    78.763849    22.630076    25.404637 
    6800    241.73434    -342.4054    216009.12    -18637.75    1405.8207   -20043.571     -892.396     92.64289    78.762994    22.630583     25.39136 
    7000    243.24788   -432.09333    216009.12   -18564.808    1414.6228   -19979.431   -1285.2437    92.847731    78.765589    22.629371    25.398447 
    7200    234.08357   -347.64003    216009.12   -18615.742    1361.3272    -19977.07   -851.21402    94.497668    78.766658    22.629159    25.391137 
    7400    239.29095   -299.24991    216009.12   -18615.023     1391.611   -20006.633   -661.61154    95.306189    78.767767    22.630965    25.391187 
    7600     242.9127   -200.38192    216009.12   -18547.367    1412.6735    -19960.04    -262.5752    96.888564    78.769805    22.631863    25.425802 
    7800    238.38552   -244.59756    216009.12   -18646.924    1386.3454    -20033.27   -428.42101    97.650514    78.770199    22.631445    25.438416 
    8000    247.75341   -227.73781    216009.12   -18517.235    1440.8249    -19958.06   -421.47391    98.002552    78.771671    22.633412    25.430547 
    8200    238.48561   -280.58521    216009.12   -18534.727    1386.9275   -19921.654   -578.31621    99.276482    78.773888    22.632647    25.449803 
    8400    244.02469   -277.97656    216009.12   -18499.637    1419.1403   -19918.777   -615.25439    99.353502    78.775088    22.628527    25.429121 
    8600    238.38095   -445.25726    216009.12   -18580.037    1386.3188   -19966.356   -1298.6167     101.1246    78.773459    22.626995    25.446171 
    8800     238.3584   -265.58418    216009.12   -18585.374    1386.1877   -19971.561   -585.99539     101.5019    78.776416    22.627156    25.457418 
    9000    236.77953   -358.52956    216009.12   -18583.035    1377.0056   -19960.041   -978.06554    103.57806    78.774607    22.626549    25.439208 
    9200    239.43617   -319.95653    216009.12   -18536.768    1392.4555   -19929.223   -830.78342    104.83403    78.773206    22.627923    25.427537 
    9400     239.9675   -202.07457    216009.12    -18576.63    1395.5455   -19972.176   -301.41475    106.41986    78.771858    22.626324    25.420278 
    9600    240.26883   -191.34205    216009.12   -18630.302    1397.2979     -20027.6   -230.08658    107.78087     78.77125    22.627213    25.439886 
    9800    243.85986   -217.54346    216009.12   -18544.188    1418.1818    -19962.37   -363.90573    108.52189    78.768338    22.626103    25.451166 
   10000    238.47303   -222.95616    216009.12    -18592.54    1386.8543   -19979.394   -369.33781    110.49775    78.765427    22.626215      25.4629 
   10200    242.79729   -252.08171    216009.12   -18516.915    1412.0023   -19928.917   -471.21037    111.85475    78.766995     22.62668    25.442431 
   10400    247.46719   -168.98926    216009.12   -18511.152    1439.1604   -19950.312   -186.90066    114.23576    78.768225    22.626881    25.435284 
   10600    240.25375   -291.15566    216009.12   -18611.439    1397.2102   -20008.649   -680.75628       116.25    78.768425    22.627384    25.438945 
   10800       239.78    -298.8143    216009.12   -18622.056    1394.4551   -20016.511   -679.01473    117.83522    78.767745    22.626118    25.416388 
   11000    233.55552   -352.95095    216009.12   -18652.093    1358.2562   -20010.349   -956.17438    119.59963    78.770014    22.627237    25.386619 
   11200    234.02948   -373.24809    216009.12   -18620.235    1361.0126   -19981.248   -1020.2332    120.68474    78.770423    22.625862     25.41292 
   11400     240.4153   -296.02835    216009.12   -18600.699    1398.1497   -19998.848   -648.61113    122.34894    78.768458    22.625029    25.389454 
   11600    246.03227   -370.94856    216009.12   -18542.023    1430.8155   -19972.838    -996.6789    124.17137    78.768702    22.623325    25.379311 
   11800    239.31525   -331.11663    216009.12   -18554.882    1391.7523   -19946.635   -855.69308    126.03423    78.770669      22.6211    25.386367 
   12000    235.91166   -270.12939    216009.12   -18540.004    1371.9585   -19911.962   -539.71357    127.87157     78.76981    22.620477    25.392421 
   12200    243.36563   -163.69979    216009.12   -18571.787    1415.3075   -19987.095   -114.80114    128.84548    78.770691    22.620411     25.41105 
   12400    244.81082   -299.07695    216009.12   -18572.027    1423.7121   -19995.739   -650.32342    128.74708    78.770557    22.620345     25.43224 
   12600    241.81515   -281.50413    216009.12    -18498.14    1406.2906    -19904.43    -621.5795    128.96194    78.770643     22.62289    25.431361 
   12800    237.12474   -313.06426    216009.12   -18535.599    1379.0132   -19914.613   -723.99056    129.18215    78.769467    22.622765    25.451185 
   13000    243.77957   -91.614796    216009.12    -18592.46    1417.7148   -20010.175    176.04639    130.98645    78.769162    22.620624     25.44756 
   13200    237.76062   -263.44465    216009.12   -18592.761    1382.7112   -19975.472   -601.13147    132.48808    78.770285    22.620272     25.46641 
   13400    239.30161   -372.14609    216009.12   -18672.363     1391.673   -20064.036   -984.81661    134.31069    78.773124    22.620308    25.490768 
   13600    238.43156   -259.16248    216009.12   -18654.767    1386.6131    -20041.38   -519.01736    134.44736    78.776037    22.621718    25.475602 
   13800    239.56131   -323.04217    216009.12   -18603.674    1393.1833   -19996.857   -792.19264    135.70134    78.776175    22.623196    25.474614 
   14000     248.3937   -405.37857    216009.12   -18525.037    1444.5486   -19969.585   -1157.1016    136.55682    78.775648    22.623215     25.48599 
   14200    244.65455    -298.8766    216009.12   -18595.932    1422.8033   -20018.735   -698.74073    140.05027    78.774742    22.624398    25.458672 
   14400    236.59411   -332.41162    216009.12   -18592.031    1375.9273   -19967.959   -851.65346    141.58904     78.77645    22.623264    25.468637 
   14600    239.62949   -254.68063    216009.12    -18581.06    1393.5798    -19974.64   -541.70499    143.04903     78.77797    22.622855    25.482234 
   14800      238.855   -499.05396    216009.12   -18549.431    1389.0757   -19938.506    -1566.487    144.56742    78.778861    22.623495     25.47298 
   15000    236.52664   -112.20962    216009.12    -18549.94     1375.535   -19925.475    98.333866    145.79915    78.779345    22.625676    25.479357 
   15200    241.56259   -295.36135    216009.12   -18521.997    1404.8218   -19926.819   -695.25183     147.7888    78.779055    22.626741    25.478975 
   15400    233.66839   -406.39213    216009.12   -18586.887    1358.9126   -19945.799   -1140.3731    148.35109     78.77853    22.628015      25.4878 
   15600    248.93816   -458.49054    216009.12   -18429.616    1447.7149   -19877.331   -1354.7876    149.33548    78.780116    22.626498    25.494338 
   15800    245.77325    -168.0777    216009.12   -18480.385    1429.3092   -19909.695   -166.31991    151.01507    78.779311     22.62503    25.487236 
   16000    239.26909   -139.70471    216009.12   -18518.849    1391.4839   -19910.333   -15.013833    153.56013    78.779258    22.625359    25.487639 
   16200     241.8672   -282.07366    216009.12   -18517.458    1406.5933   -19924.051   -649.39623    154.70103    78.777755    22.625527    25.478882 
   16400    241.08026   -196.22236    216009.12   -18549.475    1402.0168   -19951.492   -252.65978    156.10675    78.776978    22.625615    25.506081 
   16600    243.22122    -247.6533    216009.12   -18497.133    1414.4677   -19911.601   -452.69844    157.21054    78.779407    22.626707    25.479509 
   16800    244.41572   -207.71631    216009.12   -18586.858    1421.4144   -20008.272   -296.04116    158.64793    78.782317     22.62699    25.455274 
   17000    241.10801   -191.41252    216009.12   -18628.225    1402.1782   -20030.403   -199.54232    161.62045    78.782293     22.62843    25.458523 
   17200    235.89728    -316.0182    216009.12   -18610.547    1371.8749   -19982.422   -771.43327    162.88118    78.785986    22.627736    25.456981 
   17400    235.75832   -165.58648    216009.12   -18650.425    1371.0667   -20021.492   -86.239058    164.29477    78.787134    22.626428    25.483491 
   17600    232.27547    -173.9561    216009.12   -18577.598     1350.812    -19928.41   -121.01822    167.15797    78.787686    22.622731    25.481834 
   17800    239.38289   -350.65554    216009.12   -18568.446    1392.1457   -19960.591   -962.84631    169.32224    78.787213    22.622987    25.469577 
   18000    239.10161   -368.64004    216009.12   -18550.648    1390.5099   -19941.158   -1027.7164    171.03582    78.789198    22.622997    25.452142 
   18200     235.7322    -338.7262    216009.12   -18571.607    1370.9148   -19942.522   -900.70051    172.65546      78.7894    22.622747    25.448077 
   18400    244.77572   -325.32156    216009.12   -18569.598     1423.508   -19993.106   -825.89539    172.71567    78.790799    22.622088    25.438769 
   18600    246.56146   -257.12523    216009.12   -18585.404     1433.893   -20019.297    -507.1296    173.69253    78.787766    22.623261    25.455434 
   18800    239.83101   -380.25404    216009.12   -18629.588    1394.7517   -20024.339   -1022.2735    173.65531     78.78659     22.62426    25.458619 
   19000    244.67597   -309.37651    216009.12   -18538.786    1422.9279   -19961.714   -766.52307    173.60847    78.788189    22.624548    25.447418 
   19200    242.04557   -366.62077    216009.12    -18586.27    1407.6307     -19993.9   -996.59235    176.36216    78.789349    22.624039    25.455832 
   19400    244.23935   -230.32281    216009.12   -18523.965    1420.3887   -19944.354   -420.05029    177.92267    78.787268    22.622343    25.462526 
   19600    241.29256   -323.03388    216009.12   -18532.564    1403.2515   -19935.815   -798.24441    179.68094    78.787804    22.621822    25.476917 
   19800     248.1901   -430.17714    216009.12   -18519.286    1443.3645   -19962.651   -1280.1055    181.46504    78.786991    22.621501     25.46366 
   20000    242.80656   -489.13102    216009.12   -18546.644    1412.0562     -19958.7   -1539.7444    182.42445    78.788633    22.621772     25.47964 
   20200    237.63482   -419.36783    216009.12   -18600.526    1381.9797   -19982.506   -1239.6585    182.38142    78.791015    22.623054    25.466884 
   20400    243.15938   -317.22307    216009.12   -18524.894    1414.1081   -19939.002   -798.52391    184.10709    78.788805    22.622116    25.474607 
   20600    241.99788   -431.12234    216009.12   -18600.645    1407.3533   -20007.998   -1278.4163    186.11898    78.790358    22.621804    25.467441 
   20800    238.26742   -396.31082    216009.12   -18498.173    1385.6586   -19883.832   -1087.0024    187.29317    78.789366     22.62329    25.465945 
   21000    239.10255   -303.43504    216009.12   -18534.886    1390.5153   -19925.401   -718.73599     187.8751    78.790265    22.624359    25.493382 
   21200     244.6004   -338.07888    216009.12   -18490.925    1422.4884   -19913.414   -858.82722    191.66604    78.791697    22.622151    25.485629 
   21400    246.01848   -181.40269    216009.12   -18525.364    1430.7353   -19956.099   -235.36827    191.27949    78.790917     22.62217     25.48666 
   21600    248.13658   -242.29513    216009.12    -18451.79    1443.0533   -19894.843   -453.12564    191.42861    78.792182    22.621486    25.493272 
   21800    240.18808   -306.87253    216009.12   -18566.087    1396.8283   -19962.915   -758.31827    192.64276     78.79291    22.621617    25.466213 
   22000     236.4507   -157.69934    216009.12    -18594.76    1375.0933   -19969.854   -100.74663    193.26597    78.790609    22.620674    25.468946 
   22200    229.26775    -351.3464    216009.12   -18635.487    1333.3204   -19968.807   -949.06662    194.27572    78.789633    22.623455    25.465805 
   22400    238.95696   -203.01659    216009.12   -18512.244    1389.6686   -19901.912   -313.39243    195.02249     78.78874    22.623293    25.486067 
   22600    245.35028   -338.86601    216009.12   -18536.715    1426.8494   -19963.564   -907.90247    196.15751    78.787944    22.623519    25.520719 
   22800    244.59447   -319.83298    216009.12   -18513.874    1422.4539   -19936.328   -782.49566    197.73886    78.788239    22.623919    25.540141 
   23000    240.50698   -218.04368    216009.12   -18602.347    1398.6829    -20001.03   -350.14625    199.51735    78.788952    22.625662    25.539066 
   23200    240.99553   -456.20718    216009.12   -18547.196    1401.5241   -19948.721   -1394.0557    200.06385    78.789081    22.624745    25.524263 
   23400    240.46665   -251.76639    216009.12    -18568.29    1398.4483   -19966.738   -523.53579    201.50333    78.789695    22.625372    25.505904 
   23600    243.07585   -330.14544    216009.12   -18525.092    1413.6223   -19938.714   -824.93913    203.62033    78.786869     22.62709    25.498895 
   23800    238.84716   -233.07326    216009.12   -18526.883    1389.0301   -19915.913    -402.3534     203.3096    78.786514    22.626458     25.48765 
   24000    245.12006   -412.78519    216009.12   -18542.756    1425.5105   -19968.266   -1145.2989    205.12513    78.789189    22.626372    25.474639 
   24200    240.22944   -440.54075    216009.12   -18543.056    1397.0688   -19940.125   -1282.3863    206.04736    78.789137    22.627273    25.485106 
   24400    242.22381   -215.19175    216009.12     -18608.2    1408.6672   -20016.868   -394.45324    207.21143    78.790054    22.629145    25.516281 
   24600    228.30544   -97.963907    216009.12   -18614.202    1327.7241   -19941.926    169.48502    207.62845    78.789276    22.629481    25.520218 
   24800    235.23462   -143.96928    216009.12   -18579.016    1368.0212   -19947.037   -21.613694    209.39824    78.787732    22.629307    25.491842 
   25000    234.14372   -88.560258    216009.12   -18587.794    1361.6769   -19949.471    136.95079    209.62858    78.786343    22.628782    25.497301 
   25200    230.88906   -378.32408    216009.12   -18666.731    1342.7493   -20009.481   -1078.7746    211.20012    78.788159    22.627362    25.481997 
   25400    242.01971   -164.12841    216009.12   -18579.817    1407.4802   -19987.298   -140.80785    212.80517    78.787138    22.628177     25.50863 
   25600    245.35289   -249.44192    216009.12    -18453.47    1426.8645   -19880.335   -496.87108    214.77312    78.787716    22.628489    25.522649 
   25800    240.92835   -301.42779    216009.12   -18510.783    1401.1333   -19911.916   -753.53447    216.74688    78.789681    22.630074    25.520199 
   26000    240.15333   -322.72263    216009.12   -18541.847    1396.6262   -19938.474   -794.66696    218.02153    78.792438    22.632659    25.549874 
   26200    241.33107   -309.68294    216009.12   -18564.749    1403.4754   -19968.224    -764.2926    219.47564    78.791813    22.632671    25.577399 
   26400    236.87374   -440.73159    216009.12   -18592.662    1377.5536   -19970.215   -1303.9636    221.12423    78.792835    22.632939    25.562843 
   26600    251.51015   -467.15466    216009.12   -18525.027    1462.6725     -19987.7    -1408.839    224.62388    78.793538    22.634082    25.552201 
   26800    240.80728   -347.70644    216009.12   -18596.684    1400.4293   -19997.113   -892.08798    225.37168    78.792764     22.63403    25.541193 
   27000    245.91048   -509.54944    216009.12   -18532.535    1430.1073   -19962.643   -1549.3954    226.09985    78.792676    22.634747    25.532962 
   27200    237.58648   -239.52494    216009.12   -18619.885    1381.6985   -20001.584   -443.85864    226.41138     78.79239    22.633563    25.524605 
   27400    238.23464   -435.34844    216009.12   -18551.136     1385.468   -19936.604   -1291.6634    228.50152    78.793431    22.633241    25.528489 
   27600     235.5402   -325.91812    216009.12   -18655.557    1369.7982   -20025.355   -796.40212    229.99202     78.79513    22.634219     25.54006 
   27800    241.00908   -428.14805    216009.12   -18543.993    1401.6029   -19945.596   -1244.8837    233.29847    78.795737    22.634774    25.535697 
   28000     236.7189   -230.93708    216009.12   -18639.488    1376.6531   -20016.141   -418.37209    232.32965    78.795332    22.633731      25.5338 
   28200    237.84832   -500.94731    216009.12   -18601.038    1383.2213   -19984.259   -1569.7344    233.82347    78.794013    22.634373    25.558576 
   28400    241.88367   -184.56034    216009.12   -18611.671    1406.6891    -20018.36   -218.67202     234.0877    78.794067    22.635357    25.553123 
   28600    239.63741    -402.1853    216009.12   -18591.949    1393.6258   -19985.575    -1171.569    236.58294     78.79228    22.635375    25.537433 
   28800    236.08923   -265.03249    216009.12    -18589.76    1372.9912   -19962.751   -594.85109    236.01326    78.790301    22.635501    25.533373 
   29000    246.40598   -404.18412    216009.12    -18547.77    1432.9888   -19980.759   -1114.5742    237.50035    78.791269    22.636047     25.54465 
   29200     246.1925    -344.7422    216009.12   -18547.182    1431.7474   -19978.929   -909.24396    239.08105    78.792335    22.634351    25.544598 
   29400    235.63045   -236.36373    216009.12   -18569.328    1370.3231   -19939.651   -442.45286     239.2798    78.794833    22.634139    25.550789 
   29600    241.87869   -361.47607    216009.12   -18592.597    1406.6601   -19999.257   -956.01676     238.8526    78.797229    22.632318    25.545339 
   29800    237.29929    -374.2282    216009.12   -18666.332    1380.0284    -20046.36   -1036.8308    239.37116     78.79829    22.629575    25.543978 
   30000    229.89476   -131.26825    216009.12   -18693.663    1336.9669    -20030.63   -3.7743801    241.41618    78.797954    22.628587    25.554576 
   30200    233.95703     -358.959    216009.12    -18661.11    1360.5913   -20021.702   -972.52176    243.05997    78.799507    22.627042      25.5262 
   30400    242.83663   -378.47557    216009.12   -18663.498    1412.2311   -20075.729    -1016.911    244.77955    78.799651    22.625568    25.490484 
   30600    238.65168   -344.40954    216009.12   -18677.771    1387.8933   -20065.665     -890.143    246.06087    78.799051    22.624653    25.475812 
   30800    239.75025   -290.36528    216009.12   -18649.053    1394.2821   -20043.335   -659.54104    247.35214    78.799578    22.624097    25.458339 
   31000     235.1605   -297.93043    216009.12   -18611.822    1367.5901   -19979.412   -689.89284    247.67523    78.800346    22.623986    25.476964 
   31200    245.68447   -346.46303    216009.12   -18587.176    1428.7929   -20015.969   -918.30504    248.96272    78.799653    22.625506    25.460434 
   31400    242.99302   -303.78613    216009.12   -18575.004    1413.1406   -19988.145   -719.41796    250.45643      78.7997    22.623829    25.427909 
   31600    236.19456   -393.87398    216009.12   -18591.195    1373.6037   -19964.799   -1137.7367    252.04901     78.79993    22.622376     25.42256 
   31800    243.68028   -157.72441    216009.12   -18548.546    1417.1374   -19965.684   -111.51524    251.69928    78.802536    22.623976    25.420209 
   32000    239.89637   -245.82762    216009.12   -18649.184    1395.1319   -20044.316   -458.97251    253.84673    78.803547     22.62495     25.44521 
   32200    235.29817   -299.30208    216009.12   -18645.071    1368.3907   -20013.462   -698.66857    254.46717      78.8017    22.624525    25.431544 
   32400    239.07451    -356.2226    216009.12   -18623.468    1390.3522    -20013.82   -934.66194    258.23588    78.802507    22.625898    25.431349 
   32600    243.88712   -312.44015    216009.12   -18551.683    1418.3403   -19970.024   -751.41548    257.82659    78.804289    22.624387    25.434911 
   32800    243.54802    -369.9405    216009.12   -18541.428    1416.3682   -19957.796    -959.6376    259.57166    78.805944    22.622093    25.441039 
   33000    249.03839   -241.23351    216009.12   -18512.912    1448.2978    -19961.21   -425.34647    260.79647    78.806107    22.621075    25.446883 
   33200    238.10339   -610.79933    216009.12   -18551.326    1384.7046    -19936.03   -2040.3705    262.44009    78.803373    22.622489    25.425402 
   33400    234.25198   -203.44326    216009.12    -18605.29    1362.3065   -19967.597   -260.50968    262.95171    78.802467    22.622835    25.438498 
   33600    233.80349   -274.13439    216009.12   -18608.004    1359.6983   -19967.702   -567.83394    264.99546    78.800604    22.620778    25.441335 
   33800    247.73231   -284.32131    216009.12   -18491.097    1440.7022   -19931.799   -649.60958    266.05746    78.804182    22.621915    25.437507 
   34000    239.66617   -171.73681    216009.12   -18573.342    1393.7931   -19967.135   -121.67676    266.51953    78.805548    22.621025    25.438544 
   34200    241.64344   -161.60093    216009.12   -18563.285     1405.292   -19968.577   -101.33207    267.49052    78.808109    22.622537    25.446789 
   34400    235.55287   -363.41706    216009.12   -18602.009     1369.872    -19971.88   -937.39143      268.358    78.808502     22.62434    25.472674 
   34600    248.04479   -363.24533    216009.12   -18462.611    1442.5194   -19905.131   -924.74486    268.77747    78.811521     22.62535    25.510913 
   34800    241.81577   -455.08437    216009.12   -18587.881    1406.2942   -19994.175   -1357.1568    270.80811    78.813462    22.626257     25.53032 
   35000    232.80226   -549.13679    216009.12   -18628.576    1353.8756   -19982.451   -1756.4035     271.6272    78.814594    22.625285    25.522281 
   35200    241.91818   -379.06131    216009.12   -18526.895    1406.8898   -19933.785   -998.01718    273.45488    78.814686    22.624623    25.539832 
   35400    245.61849   -376.09496    216009.12   -18560.909    1428.4091   -19989.318   -1027.4724    276.34142    78.815576    22.627576    25.524646 
   35600    245.18382   -287.46816    216009.12   -18561.198    1425.8813    -19987.08   -618.77373    276.93751    78.815751    22.626469    25.557006 
   35800    243.24509   -39.621839    216009.12   -18516.262    1414.6065   -19930.868    435.05149    277.06099    78.814177    22.625705    25.560572 
   36000    232.53404   -471.47012    216009.12   -18602.011    1352.3157   -19954.327   -1440.5197    278.23749     78.81261    22.625498    25.550359 
   36200    247.31247   -163.25526    216009.12   -18562.644    1438.2606   -20000.904   -77.058373    279.70367    78.812037    22.626172    25.575979 
   36400    243.83383   -210.90091    216009.12   -18551.609    1418.0303   -19969.639   -300.06794     281.6143    78.811328    22.630311    25.584737 
   36600    242.24892    -247.2951    216009.12   -18573.069    1408.8132   -19981.883   -430.60868    283.32186    78.810723    22.629541      25.5957 
   36800      233.195   -319.60432    216009.12   -18638.003    1356.1596   -19994.162   -755.57458    283.46389    78.810354    22.631462     25.58679 
   37000    242.31544    -202.7373    216009.12   -18582.146    1409.2001   -19991.346   -270.07589    284.06018    78.809934    22.632288    25.599429 
   37200    237.41282   -387.34358    216009.12   -18616.776    1380.6886   -19997.464   -1090.1239    286.36746    78.811263    22.627887    25.601273 
   37400    242.86613    -299.2198    216009.12   -18611.814    1412.4027   -20024.217   -712.19432     288.4561    78.809639    22.627026    25.597687 
   37600    241.10262   -305.64007    216009.12   -18640.019    1402.1469   -20042.166   -739.07541    288.73087    78.809308    22.627256    25.629461 
   37800    233.81031   -306.41876    216009.12   -18694.033     1359.738   -20053.771    -741.0234      289.586    78.809936    22.626145    25.622734 
   38000    243.86895    -471.9749    216009.12   -18602.403    1418.2346   -20020.637   -1439.5403    289.88418     78.80855    22.623498    25.623051 
   38200    240.20493   -219.58737    216009.12   -18567.269    1396.9263   -19964.195   -370.51466    290.88488    78.808486    22.623429    25.628515 
   38400     247.5288   -346.83815    216009.12   -18562.417    1439.5187   -20001.935     -864.325    295.56765    78.807374    22.621035    25.612784 
   38600    237.51754   -433.98268    216009.12   -18609.336    1381.2976   -19990.633   -1279.4158    297.95783    78.807346    22.621378    25.589813 
   38800    236.47524    -255.7759    216009.12   -18619.061     1375.236   -19994.297   -504.93217    298.37939    78.806157    22.621874    25.575986 
   39000    243.92343   -417.41222    216009.12   -18585.591    1418.5514   -20004.142   -1193.8277    299.55525    78.808129    22.620864    25.581159 
   39200    234.83875   -223.83839    216009.12   -18691.221     1365.719    -20056.94   -333.07594    300.34241    78.809549    22.622163    25.583393 
   39400    243.69842   -371.66869    216009.12   -18646.808    1417.2429   -20064.051   -1029.7347    302.31581    78.805554    22.621194    25.573021 
   39600    241.79904   -349.27401    216009.12   -18621.134    1406.1969   -20027.331   -927.60623    302.96084    78.802224    22.620515    25.574381 
   39800    241.23452   -366.97957    216009.12   -18676.333    1402.9139   -20079.247    -992.4873      302.175    78.802939    22.619261    25.576466 
   40000    243.87454   -318.11855    216009.12   -18627.236    1418.2671   -20045.503   -792.60603    303.42095     78.80259    22.618358    25.594194 
   40200    241.44773   -252.02799    216009.12   -18661.206    1404.1538    -20065.36   -505.98533    304.62419    78.802059     22.61847    25.602079 
   40400    236.24584   -213.95739    216009.12   -18687.254    1373.9019   -20061.156   -341.97475    303.66702    78.802846    22.618127    25.578449 
   40600    234.11822   -501.73967    216009.12    -18625.47    1361.5287   -19986.998   -1565.8145    305.65479    78.803329     22.62127    25.588756 
   40800    240.98371    -203.7861    216009.12   -18723.068    1401.4553   -20124.523   -315.27336    304.98282    78.804095     22.62204    25.581965 
   41000    242.26432   -266.23145    216009.12   -18668.373    1408.9028   -20077.275   -570.43633    305.79785    78.806114    22.622621    25.554209 
   41200    246.10833   -292.44556    216009.12   -18592.546    1431.2579   -20023.804    -650.6393    306.65636    78.806612    22.623802    25.541388 
   41400    240.92571   -376.50222    216009.12   -18638.764     1401.118   -20039.882   -992.30167    307.49511    78.805057    22.624102    25.549689 
   41600    240.09781   -327.16837    216009.12   -18617.248    1396.3033   -20013.551   -798.84782    307.13744    78.803472    22.621773    25.543315 
   41800    245.37773   -299.66647    216009.12   -18588.074     1427.009   -20015.083   -670.64255    306.98502    78.803218    22.621952    25.545843 
   42000    238.40743   -398.04662    216009.12   -18641.162    1386.4728   -20027.634   -1137.5605    307.40825    78.802487    22.623288    25.537707 
   42200    232.60307   -453.71153    216009.12   -18669.989    1352.7172   -20022.707   -1337.8738    308.78388    78.802582    22.624469    25.526151 
   42400    240.65651   -282.89891    216009.12   -18654.207    1399.5525   -20053.759   -615.15532    309.87552    78.802019    22.623308    25.507573 
   42600    238.09417   -329.96307    216009.12    -18689.63     1384.651   -20074.281   -812.50162    310.04879     78.79963    22.623004       25.497 
   42800    237.48646    -330.5089    216009.12   -18659.941    1381.1169   -20041.057   -845.87197    311.72346    78.800571    22.622248    25.529645 
   43000    239.10137   -464.23615    216009.12    -18628.67    1390.5084   -20019.178   -1431.2783    312.05235    78.802617    22.618633    25.541672 
   43200    239.17227   -453.19711    216009.12   -18588.593    1390.9208   -19979.514   -1322.3914    312.48108    78.802234    22.617327    25.548232 
   43400     239.2245   -243.52358    216009.12   -18599.707    1391.2245   -19990.931   -517.28449    312.45486    78.802232    22.621085    25.558311 
   43600    234.99677   -291.59795    216009.12   -18609.905    1366.6379   -19976.543   -686.75896    313.41838    78.801806    22.623622    25.542781 
   43800    229.85914   -311.74134    216009.12    -18641.47    1336.7597    -19978.23   -794.94276    314.11441     78.80354    22.626474    25.541366 
   44000    236.65565   -391.36215    216009.12   -18638.744    1376.2852    -20015.03   -1061.9163    314.20703    78.803983    22.626665    25.522775 
   44200    240.12727   -179.04148    216009.12   -18587.211    1396.4746   -19983.685   -167.85312    315.34129    78.803935    22.627296    25.489964 
   44400    241.09225   -402.63026    216009.12   -18600.228    1402.0865   -20002.314   -1127.4522    318.39753     78.80319    22.626196    25.480591 
   44600    231.74877   -384.41476    216009.12   -18611.618     1347.749   -19959.367   -1079.1767     318.6938    78.801809    22.627613    25.483644 
   44800     239.4548   -435.85135    216009.12   -18632.812    1392.5639   -20025.376   -1272.3237    319.78219     78.80086    22.627174    25.464778 
   45000     233.4365   -175.55992    216009.12   -18647.064    1357.5641   -20004.628   -133.11405    320.55537    78.798609    22.625814    25.453133 
   45200    246.19291    -192.8344    216009.12   -18588.029    1431.7497   -20019.779   -216.46672    320.85141    78.799033    22.625481    25.446814 
   45400    232.52296   -266.11711    216009.12   -18658.204    1352.2513   -20010.456   -550.67506    322.65582    78.798172    22.625416    25.468334 
   45600    243.00046   -281.53231    216009.12   -18548.594    1413.1839   -19961.777   -608.77508    324.59583    78.800396    22.624526    25.478392 
   45800     236.4543   -298.23153    216009.12   -18594.749    1375.1142   -19969.863   -644.44941    326.15495    78.801949    22.626358    25.491334 
   46000     243.0639   -263.24915    216009.12   -18523.679    1413.5528   -19937.232   -512.29347     326.7203    78.802447    22.624377     25.49743 
   46200    239.20457   -351.40574    216009.12   -18507.285    1391.1086   -19898.394   -922.09037     326.9028    78.801926    22.621856     25.51731 
   46400    237.00753   -162.26656    216009.12   -18568.817    1378.3316   -19947.149   -121.67304    326.84809    78.801518    22.623637    25.514371 
   46600    237.36567   -384.56886    216009.12   -18581.906    1380.4144    -19962.32   -1060.2661    328.16941    78.803918    22.626003    25.511799 
   46800    235.93712   -213.27635    216009.12   -18596.635    1372.1066   -19968.742   -335.47077    330.45782     78.80611    22.626725     25.50586 
   47000    239.37281   -172.37819    216009.12   -18583.156     1392.087   -19975.243   -214.17748    331.24427    78.806798    22.623082    25.481045 
   47200    230.92038    -301.0673    216009.12   -18681.306    1342.9314   -20024.237   -704.52418    333.16815    78.809732    22.621884    25.491281 
   47400    240.34795   -447.35026    216009.12   -18611.731     1397.758    -20009.49   -1337.0214    336.70444    78.809625    22.623916    25.497442 
   47600    244.73318   -212.41725    216009.12    -18630.43    1423.2606   -20053.691   -332.96912    336.28023    78.807817     22.62668    25.492574 
   47800    240.85975    -274.7375    216009.12   -18625.753    1400.7344   -20026.487   -566.68389    337.39535    78.809185    22.628804    25.496731 
   48000    242.14072   -136.52698    216009.12   -18638.474     1408.184   -20046.658    18.692437    337.39545    78.806966    22.631279      25.5122 
   48200    243.16097   -294.54168    216009.12   -18628.667    1414.1173   -20042.785   -665.34184     338.9966    78.809988    22.631748    25.500776 
   48400    238.88448   -264.29032    216009.12   -18603.439    1389.2471   -19992.686   -530.92336      339.809    78.811136    22.631194    25.491506 
   48600    234.75663   -368.39443    216009.12   -18651.644    1365.2414   -20016.885   -981.35747    339.87815    78.811368     22.63073    25.489044 
   48800    235.17213   -277.57605    216009.12   -18639.161    1367.6577   -20006.819   -588.31127    340.85687    78.809919     22.63003    25.491085 
   49000     237.4116   -238.17642    216009.12   -18583.279    1380.6815    -19963.96   -397.64795    341.69797    78.807264    22.631925    25.497209 
   49200    247.82781   -306.25803    216009.12   -18521.689    1441.2576   -19962.946   -785.96993    344.49286    78.805292    22.632271    25.494519 
   49400    239.57187   -129.98757    216009.12   -18591.975    1393.2447    -19985.22     27.49499    346.30294    78.804603    22.634736    25.501966 
   49600    237.72145   -272.89685    216009.12   -18593.656    1382.4835    -19976.14   -636.36951    348.70135    78.802867    22.636559    25.496479 
   49800    240.58495    -298.2698    216009.12   -18569.063    1399.1363   -19968.199   -698.39717    349.12862    78.804521    22.637407    25.491789 
   50000    237.16315   -299.75182    216009.12   -18568.943    1379.2366    -19948.18   -706.11039    349.97602     78.80576    22.635507    25.491812 
   50200    243.44901   -463.61715    216009.12   -18513.024    1415.7924   -19928.817   -1407.8951    351.44645    78.803228    22.635655    25.513954 
   50400    235.09461   -458.14945    216009.12   -18552.814    1367.2069   -19920.021   -1372.7023    353.09368    78.803697    22.636096    25.501308 
   50600    247.79276   -439.13864    216009.12   -18459.023    1441.0538   -19900.076    -1290.376    353.67067    78.802643    22.638731    25.519772 
   50800    242.36812   -311.83663    216009.12   -18621.928    1409.5064   -20031.435   -737.89774     354.7054    78.802246    22.640322    25.549386 
   51000    239.90357   -411.03024    216009.12   -18559.863    1395.1737   -19955.037   -1174.1377    357.38855    78.802373    22.639622    25.565339 
   51200    235.25032   -362.31297    216009.12   -18606.725    1368.1125   -19974.838   -977.44892     358.1217    78.803686    22.638276    25.582404 
   51400     236.4207   -270.96851    216009.12   -18560.337    1374.9189   -19935.255   -566.60685    360.58629    78.804344    22.638846    25.594359 
   51600     240.3084   -334.18784    216009.12   -18604.568     1397.528   -20002.096    -848.0718    361.20027    78.806699    22.638889    25.608494 
   51800    238.89873   -237.20537    216009.12   -18555.891      1389.33   -19945.221   -466.85803    361.09376    78.807272    22.639783     25.61202 
   52000    239.39014   -317.58452    216009.12   -18674.324    1392.1878   -20066.512   -772.49023     361.9228     78.80715    22.637535     25.59151 
   52200    235.57421   -319.60265    216009.12   -18689.231    1369.9961   -20059.227    -760.0512    361.93435     78.80703    22.639771    25.574683 
   52400    236.49325   -333.26099    216009.12   -18698.918    1375.3408   -20074.259   -842.14629    362.41689    78.806561    22.640974    25.575166 
   52600    230.96582   -159.22632    216009.12   -18597.198    1343.1957   -19940.394   -108.47665    364.75032    78.807353    22.642418    25.579826 
   52800    243.49495   -347.85098    216009.12   -18510.242    1416.0596   -19926.301   -871.03069    364.94593    78.805868    22.643355    25.591374 
   53000    252.74317   -215.81858    216009.12   -18521.828    1469.8432   -19991.672   -345.22972    365.40767     78.80599    22.644679    25.578814 
   53200    234.48959   -283.13116    216009.12    -18599.54    1363.6884   -19963.228   -605.17009    364.79041    78.807852    22.644305    25.583913 
   53400    236.18077   -363.85562    216009.12   -18552.733    1373.5235   -19926.256   -990.95621    366.59926    78.809178    22.643165    25.594556 
   53600    231.60501   -360.88381    216009.12   -18625.775     1346.913   -19972.688    -996.3682     369.0964    78.810165    22.640031    25.585645 
   53800    235.56993   -291.00587    216009.12   -18565.988    1369.9711    -19935.96    -680.4273     370.6497    78.808554    22.637411    25.556446 
   54000    242.91485   -251.25189    216009.12   -18533.173     1412.686   -19945.859   -546.52966    371.35764    78.807982      22.6394    25.552073 
   54200    241.87109   -444.33587    216009.12   -18531.119    1406.6159   -19937.734    -1320.371    373.76447    78.807745    22.638445    25.526561 
   54400    245.65982    -308.9506    216009.12   -18485.138    1428.6495   -19913.788    -733.3309    375.25098    78.807343    22.637509    25.490013 
   54600    246.22037   -348.02124    216009.12    -18516.32    1431.9094    -19948.23   -889.67303     377.3372    78.808824      22.6336    25.516272 
   54800    244.70505   -245.59415    216009.12   -18536.054     1423.097   -19959.151   -500.45883    380.09045    78.813292    22.634696    25.500718 
   55000    241.38577   -331.68907    216009.12   -18526.369    1403.7935   -19930.163   -805.01081    383.72977     78.81305    22.635533    25.503333 
   55200    236.70947    -286.2636    216009.12   -18667.013    1376.5982   -20043.612   -610.37757    384.99931     78.81164    22.636267    25.520244 
   55400    243.00918   -376.54341    216009.12    -18613.31    1413.2346   -20026.545   -1053.4385    385.15231    78.808775     22.63774    25.526682 
   55600     233.5844   -297.86523    216009.12   -18568.056    1358.4242    -19926.48   -701.52903     385.4157    78.809409    22.638456    25.540241 
   55800    246.92543   -329.33998    216009.12   -18446.395    1436.0098   -19882.405   -825.53576    387.02014    78.808059    22.639744    25.542377 
   56000    236.17511   -306.88053    216009.12    -18498.09    1373.4906    -19871.58   -731.91612    386.57021    78.810536    22.639547    25.551716 
   56200    239.75861   -138.47503    216009.12   -18525.496    1394.3307   -19919.826   -33.307476    387.23868    78.811977     22.64028    25.554074 
   56400    231.32171   -566.34713    216009.12   -18595.861    1345.2654   -19941.126   -1797.0196    388.13644    78.812721     22.63964    25.548186 
   56600    228.99627    -445.8921    216009.12   -18664.582    1331.7416   -19996.324   -1304.2891    387.69932    78.810682    22.638713    25.541241 
   56800     237.1166    -298.8278    216009.12   -18571.317    1378.9659   -19950.283   -650.06937    388.17183    78.811519    22.639375    25.524714 
   57000    239.51639   -310.42257    216009.12   -18627.491     1392.922   -20020.413   -740.96969    390.53356    78.814643     22.63974    25.521824 
   57200     245.0563   -267.42005    216009.12   -18556.606    1425.1397   -19981.746   -578.73964    392.59778     78.81642    22.639741    25.494982 
   57400    240.54256   -324.30067    216009.12   -18580.884    1398.8898   -19979.773   -817.37429    392.29742    78.817317    22.641403    25.504417 
   57600    230.48191   -311.17153    216009.12   -18601.454    1340.3815   -19941.836   -759.20444    394.30281    78.817171    22.641193    25.503281 
   57800    245.67719   -295.19727    216009.12   -18542.606    1428.7506   -19971.357   -724.48246    395.37831    78.818091    22.641824    25.518394 
   58000    238.77698   -433.33792    216009.12   -18563.546     1388.622   -19952.168   -1281.3007    397.42842    78.817515    22.644295    25.533557 
   58200    244.29116   -264.77267    216009.12   -18528.572      1420.69   -19949.262   -553.44746    398.31828    78.817428    22.646547    25.547121 
   58400    241.04851   -219.42154    216009.12   -18571.094    1401.8322   -19972.926   -345.93012    400.89675    78.819693    22.645043    25.540477 
   58600    234.27817   -439.37817    216009.12   -18582.265    1362.4588   -19944.724   -1270.5109    401.56465    78.821494    22.643225    25.517299 
   58800    238.25057   -302.80322    216009.12   -18598.464    1385.5606   -19984.025   -717.34449    402.76144    78.826367    22.639971    25.505763 
   59000    239.81088   -312.66069    216009.12   -18530.859    1394.6346   -19925.494   -761.42612    402.22718    78.829558    22.638881    25.481144 
   59200    237.46332   -390.74633    216009.12   -18593.852    1380.9823   -19974.835   -1075.6478    401.12244    78.829494    22.639861     25.50178 
   59400    242.75491   -334.83407    216009.12    -18607.59    1411.7559   -20019.346   -829.90684    402.39871    78.829028     22.63889    25.491039 
   59600     239.3906   -356.23655    216009.12   -18665.935    1392.1905   -20058.126   -929.83035    402.22605    78.829403    22.637907    25.492214 
   59800    237.55327   -461.81168    216009.12   -18597.806    1381.5054   -19979.311   -1377.4152    404.72227    78.829087    22.636443    25.494129 
   60000    239.94327   -254.39329    216009.12   -18551.627    1395.4046   -19947.032   -510.52307    404.67639    78.830157    22.635391    25.508789 
   60200    242.25061   -185.19606    216009.12   -18646.902    1408.8231   -20055.725   -191.15691    405.54253    78.832113    22.635166    25.490284 
   60400    241.27814   -348.53459    216009.12   -18597.804    1403.1676   -20000.972   -923.65586    407.62635    78.835573    22.633633     25.48998 
   60600    243.04937   -319.88982    216009.12   -18565.059    1413.4683   -19978.527   -754.65483     407.9927    78.837107    22.633246    25.499204 
   60800    246.19997   -291.45067    216009.12   -18538.617    1431.7908   -19970.408   -715.33457    409.50909    78.838608    22.634578    25.507048 
   61000    234.07165   -288.92242    216009.12   -18609.934    1361.2578   -19971.192   -678.24547    412.60949    78.840534      22.6351    25.529745 
   61200    241.59219   -299.99114    216009.12   -18530.075     1404.994   -19935.069   -688.10815    414.05859    78.842076    22.634409    25.504696 
   61400    239.10743   -277.32431    216009.12   -18536.679    1390.5437   -19927.223   -628.37366    413.57374    78.843879    22.635753    25.522714 
   61600    236.55278   -143.56469    216009.12   -18567.562     1375.687   -19943.249   -58.092115    415.25498     78.84406    22.635474    25.527065 
   61800    229.81835   -303.67066    216009.12   -18612.323    1336.5225   -19948.845   -741.91563    416.65963    78.843857    22.634283    25.509371 
   62000    239.17305   -394.84739    216009.12   -18586.114    1390.9253   -19977.039    -1094.871    417.25585     78.84285    22.631286    25.485092 
   62200    247.02211   -412.71811    216009.12   -18607.735     1436.572   -20044.307   -1153.4549    419.02924    78.843923    22.632428     25.47094 
   62400     245.8332     -210.216    216009.12   -18613.592    1429.6578   -20043.249   -372.46058    419.48726    78.846422    22.630206    25.434843 
   62600     242.6303   -439.95276    216009.12   -18622.014    1411.0312   -20033.045   -1283.1801    420.44598     78.84836    22.630122    25.445127 
   62800    233.56156   -279.77256    216009.12   -18687.877    1358.2914   -20046.168   -602.56741     420.1526     78.84582     22.63054    25.434893 
   63000    243.85743   -172.18964    216009.12    -18599.55    1418.1676   -20017.718   -158.13565    419.91865    78.845476    22.629437    25.453919 
   63200    237.47402   -256.30093    216009.12    -18649.76    1381.0445   -20030.805   -552.58474    421.23847     78.84457    22.627976    25.471415 
   63400      239.029   -162.22587    216009.12   -18698.261    1390.0876   -20088.348   -133.69386    421.60542    78.842568    22.626762    25.475939 
   63600    235.41501   -444.31393    216009.12   -18688.856    1369.0702   -20057.926   -1340.6424    423.09942    78.843337    22.625632    25.473836 
   63800    239.21407   -483.07584    216009.12   -18724.413    1391.1639   -20115.577   -1502.3127    423.61646    78.843635    22.628154    25.450301 
   64000    242.95986   -398.29077    216009.12   -18632.875    1412.9478   -20045.822    -1123.382    427.12956    78.845606    22.628372    25.419126 
   64200    244.11546   -281.83264    216009.12   -18664.103    1419.6682   -20083.771   -648.03315     426.9684    78.844742    22.627079    25.392658 
   64400     239.2779   -269.64148    216009.12   -18677.693    1391.5351   -20069.228   -543.90166    427.91172    78.846232    22.624999    25.386475 
   64600    236.58898     -396.653    216009.12   -18695.987    1375.8975   -20071.884   -1093.4782    426.89485    78.845509    22.624785    25.390358 
   64800    241.97166   -342.57113    216009.12   -18662.444    1407.2008   -20069.645   -924.16599    429.93226    78.845657    22.624111     25.39712 
   65000    241.99357   -401.72857    216009.12   -18572.372    1407.3282     -19979.7   -1150.5325    431.54334    78.847228    22.622839    25.432908 
   65200    236.75351    -126.2716    216009.12   -18616.539    1376.8543   -19993.393    20.545407    430.83513    78.847617    22.622521     25.42962 
   65400    237.35347   -465.18689    216009.12   -18625.571    1380.3434   -20005.914   -1395.1668    434.08959    78.850388    22.622433    25.401589 
   65600    246.82916   -231.08582    216009.12    -18577.42    1435.4499    -20012.87   -393.24751    432.81946    78.849694     22.62235    25.405839 
   65800    237.68018   -229.29756    216009.12   -18597.896    1382.2434   -19980.139   -386.81881    433.32872    78.849808    22.623989    25.403774 
   66000    245.44044   -407.32868    216009.12   -18571.926    1427.3737     -19999.3   -1143.3407    435.59721    78.850802    22.625348    25.394915 
   66200    236.92062   -255.34136    216009.12   -18640.697    1377.8262   -20018.523   -524.88512     435.2438    78.850566    22.624604    25.395674 
   66400    234.34787   -426.26763    216009.12   -18627.491    1362.8642   -19990.355    -1230.247    437.75064    78.851664    22.625035       25.384 
   66600      236.631   -173.00762    216009.12   -18612.173    1376.1418   -19988.315   -183.16352    437.02011    78.850395    22.624232    25.405308 
   66800    235.94059   -298.83631    216009.12   -18643.071    1372.1267   -20015.198   -711.02693    437.92142     78.84971    22.624981    25.405291 
   67000    232.55795   -337.24411    216009.12   -18702.622    1352.4548   -20055.077   -870.72512    438.06598    78.850258    22.625373    25.442934 
   67200    243.59678   -271.58839    216009.12   -18613.461    1416.6518   -20030.113    -590.0398    439.22887    78.848193    22.624829    25.447865 
   67400    234.67601   -201.37675    216009.12   -18595.076    1364.7725   -19959.849   -284.18032    438.87965    78.848404    22.626963    25.428084 
   67600    240.34732   -356.41251    216009.12   -18555.894    1397.7543   -19953.648   -965.21033    442.17023    78.848617    22.629152    25.417602 
   67800    238.33599   -372.05252    216009.12   -18584.441    1386.0574   -19970.499   -998.03614    444.71449     78.84812    22.629708    25.429788 
   68000    235.44203   -273.72284    216009.12   -18647.139    1369.2273   -20016.366   -605.62865    444.28513    78.849829    22.630937    25.443762 
   68200    241.11997   -268.62483    216009.12    -18646.34    1402.2477   -20048.587   -593.47206    444.25103    78.851614    22.631129     25.45741 
   68400    239.33213   -440.75291    216009.12   -18592.703    1391.8504   -19984.554   -1271.3867    445.49408    78.849079    22.630651    25.441281 
   68600    239.36334   -328.54659    216009.12   -18608.151     1392.032   -20000.183   -834.63634    447.08822    78.847612    22.632015     25.40518 
   68800    237.70644   -398.69042    216009.12   -18556.091    1382.3961   -19938.487   -1138.1994    447.73211    78.846861    22.634851    25.422564 
   69000    241.37411    -194.4139    216009.12   -18573.057    1403.7257   -19976.783   -289.88184    449.64773    78.847085    22.635962    25.420622 
   69200    239.50888   -271.52473    216009.12   -18636.429    1392.8784   -20029.308   -553.65354    450.60471    78.847591    22.636763    25.445655 
   69400    232.90385   -311.22035    216009.12   -18666.868    1354.4664   -20021.335   -741.01064    453.30448    78.847209    22.640085     25.44337 
   69600    246.18327   -388.84184    216009.12   -18516.369    1431.6937   -19948.062    -1071.906    455.86171    78.844941    22.642656    25.460551 
   69800    237.02871   -286.11962    216009.12   -18597.634    1378.4548   -19976.089   -642.75959    456.70233    78.843087     22.64312    25.472482 
   70000    242.26134   -266.22155    216009.12   -18579.645    1408.8855   -19988.531   -582.54499    458.61225    78.841366    22.644952    25.494033 
   70200     237.4842   -208.03009    216009.12     -18601.2    1381.1037   -19982.304   -329.78366    458.17358    78.839969    22.645959    25.509227 
   70400    248.24508   -408.61222    216009.12   -18561.627    1443.6842   -20005.311   -1208.4085    460.39535     78.83827    22.644911    25.490192 
   70600    239.60007   -365.34885    216009.12    -18633.51    1393.4087   -20026.919   -951.30076    461.27141    78.838918    22.648066    25.497078 
   70800    239.97616   -327.25143    216009.12   -18617.507    1395.5958   -20013.103   -794.51317    462.60586    78.836663    22.647974    25.492593 
   71000    235.64148   -388.31551    216009.12   -18663.367    1370.3873   -20033.754   -1051.7444    463.39762    78.836707    22.649104    25.504193 
   71200    238.88441   -266.77041    216009.12   -18627.951    1389.2467   -20017.197   -577.97027    462.37643    78.836311    22.648368    25.508834 
   71400    232.31004   -421.53372    216009.12   -18651.835    1351.0131   -20002.848   -1187.1605    465.05457    78.836234    22.647826    25.495291 
   71600    239.04513   -301.79702    216009.12   -18607.569    1390.1814    -19997.75   -712.46558    464.56049    78.836067    22.648973    25.469158 
   71800    236.72999   -336.71336    216009.12   -18671.987    1376.7176   -20048.705   -896.85695    466.61684    78.836321    22.646488    25.449546 
   72000    234.10295   -292.49309    216009.12   -18642.784    1361.4398   -20004.224   -638.39662    467.84215     78.83615    22.646237    25.484816 
   72200    244.43924   -279.63031    216009.12    -18512.29    1421.5511   -19933.841   -611.04877    471.73815     78.83632    22.642877    25.464257 
   72400    233.47227   -365.29361    216009.12   -18598.362    1357.7721   -19956.134   -977.26534    471.74332    78.838464    22.644191    25.462278 
   72600    239.74066   -310.10426    216009.12   -18572.615    1394.2263   -19966.842   -748.03255    473.15855    78.840037    22.642271    25.468248 
   72800    243.77612   -267.41506    216009.12   -18574.973    1417.6948   -19992.667    -575.2661    473.83744    78.841561    22.642968    25.444125 
   73000    239.30747   -264.48529    216009.12    -18616.61    1391.7071   -20008.317   -558.25878    474.10507    78.839258    22.640663    25.455487 
   73200    247.64693   -209.72252    216009.12   -18556.105    1440.2057   -19996.311   -351.12746    473.96317    78.837131    22.639935    25.450368 
   73400    247.64336   -356.29805    216009.12   -18545.349    1440.1849   -19985.534   -928.44684    477.59325    78.836555    22.639483    25.451763 
   73600    236.76469   -375.17663    216009.12   -18582.052    1376.9193   -19958.971   -1012.4517    480.13984    78.833246    22.642042    25.435503 
   73800    232.55841   -217.94127    216009.12   -18684.801    1352.4575   -20037.259   -348.57536    480.44152    78.835264    22.646131     25.42481 
   74000    232.64795   -317.48992    216009.12   -18674.166    1352.9782   -20027.144   -762.06744    482.38797    78.834807    22.648056     25.42807 
   74200    234.08048    -537.8529    216009.12   -18594.417    1361.3092   -19955.726   -1701.6091    482.02145    78.835443    22.648484    25.417904 
   74400    237.11458   -400.77701    216009.12   -18577.251    1378.9542   -19956.206   -1126.4397    483.41841    78.835506    22.648053     25.42152 
   74600    241.19386   -116.55017    216009.12   -18641.252    1402.6775   -20043.929    107.73424    482.07992    78.837602     22.64844    25.414715 
   74800    237.94083   -298.46434    216009.12   -18635.776    1383.7593   -20019.536   -716.26161    481.56408    78.837878    22.648269    25.390518 
   75000    238.45303   -385.19566    216009.12   -18642.257     1386.738   -20028.995   -1115.4057    481.32756    78.837534    22.647271    25.391746 
   75200    239.93444   -271.27421    216009.12   -18556.515    1395.3533   -19951.869   -590.49681    481.89927    78.833859    22.647126    25.389381 
   75400    243.49014   -480.27531    216009.12   -18587.462    1416.0316   -20003.494   -1505.0726     484.0386     78.83438    22.644874    25.371372 
   75600    244.60659    -227.1467    216009.12   -18554.889    1422.5244   -19977.414   -400.00434     483.8073     78.83313    22.642513    25.370653 
   75800    245.40453   -184.47632    216009.12   -18531.618    1427.1649   -19958.783   -205.83893    485.73218    78.833709    22.641967    25.373305 
   76000    244.04508   -289.96822    216009.12   -18524.688    1419.2589   -19943.947   -677.25786    486.84789     78.83532    22.642407    25.387529 
   76200    233.16312    -307.8315    216009.12   -18633.056    1355.9742   -19989.031   -751.20888    487.31406    78.837503    22.642296    25.382733 
   76400    240.55361   -345.48571    216009.12   -18597.999     1398.954   -19996.953   -841.95083    489.88691    78.839718    22.640857    25.371498 
   76600    242.33896   -353.40545    216009.12   -18592.586    1409.3368   -20001.923    -920.6262    493.26761    78.838914    22.641452    25.350326 
   76800    233.83519    -215.5991    216009.12   -18614.202    1359.8827   -19974.085    -367.2701    493.65711    78.839055    22.639869    25.360598 
   77000    242.85406     -327.274    216009.12   -18568.221    1412.3325   -19980.553   -812.30517    493.71497     78.83917    22.639775    25.350003 
   77200    234.17296   -325.73228    216009.12   -18552.736     1361.847   -19914.583   -840.79366     495.4701    78.837506    22.639669    25.336876 
   77400    239.03606   -307.56261    216009.12    -18554.05    1390.1287   -19944.178   -721.49262    497.59881    78.835791    22.641342    25.333816 
   77600    237.45123   -359.99784    216009.12   -18599.639     1380.912   -19980.551   -965.05039    499.80788    78.833613    22.641878    25.330626 
   77800    233.31152   -287.23331    216009.12   -18554.819    1356.8373   -19911.656    -654.5566    499.31971    78.832623    22.642546    25.312579 
   78000    240.67063   -102.09057    216009.12   -18600.329    1399.6346   -19999.964    107.32645    500.25765    78.832415    22.639918    25.299545 
   78200    239.02044   -208.53471    216009.12   -18604.166    1390.0378   -19994.204   -326.05435     502.4753    78.833271     22.63977    25.314108 
   78400    232.65112    -241.9898    216009.12   -18623.045    1352.9966   -19976.041   -485.60056     503.5498    78.834966    22.635505    25.301761 
   78600    239.34374   -238.33734    216009.12   -18620.005     1391.918   -20011.923   -405.94605    506.12082    78.834091    22.636792    25.299917 
   78800    239.37037   -350.46612    216009.12   -18637.406    1392.0728   -20029.479   -889.64529    505.86063    78.831385    22.633373    25.296972 
   79000    238.91977    -214.0014    216009.12    -18609.26    1389.4523   -19998.713   -356.29016    507.21861    78.831165    22.635155    25.304589 
   79200    237.03816   -318.36186    216009.12   -18563.607    1378.5097   -19942.116   -788.25124    507.45269    78.831098    22.632829    25.307785 
   79400    246.42059   -292.32639    216009.12    -18533.14    1433.0738   -19966.214    -644.4682    509.39671    78.829799    22.631897    25.320212 
   79600    236.19419    -435.9932    216009.12   -18630.897    1373.6016   -20004.499   -1260.1921     510.4253    78.830883    22.632926    25.345603 
   79800    231.82735   -289.93488    216009.12   -18588.925    1348.2059   -19937.131   -633.19316     511.5974    78.831177    22.631121    25.343306 
   80000    238.50978   -254.36659    216009.12   -18590.993     1387.068   -19978.061   -500.59747    512.86728    78.830899    22.630065    25.346271 
   80200    239.28621   -216.42703    216009.12   -18593.983    1391.5834   -19985.567   -366.03041    514.13726    78.828933    22.631231    25.330014 
   80400    235.57083   -250.06218    216009.12   -18634.866    1369.9764   -20004.843   -436.34458    515.36343     78.83028    22.628976    25.310863 
   80600    232.23052   -270.01788    216009.12   -18594.525    1350.5506   -19945.076   -598.31704    517.21424    78.828269    22.630117    25.294924 
   80800    245.39859   -100.98768    216009.12   -18565.665    1427.1303   -19992.795    128.61333    517.57038    78.827953    22.632393    25.284677 
   81000    243.04115    -276.9959    216009.12   -18544.765    1413.4205   -19958.186   -571.31894    519.40185    78.826337    22.631933     25.26895 
   81200    238.89683   -316.25933    216009.12   -18616.244    1389.3189   -20005.563   -789.32746    520.12517    78.827229     22.63225    25.281049 
   81400    236.79843   -387.48372    216009.12   -18629.383    1377.1156   -20006.499    -1116.291    520.81888    78.828829    22.633911    25.293852 
   81600    235.37202   -359.84823    216009.12   -18634.259    1368.8202   -20003.079    -946.9337    522.08205    78.829914    22.636038    25.304541 
   81800    229.80374   -391.74137    216009.12   -18723.855    1336.4375   -20060.292   -1102.5253    521.73369    78.830722    22.635946    25.324273 
   82000    241.27183   -206.49773    216009.12   -18643.584    1403.1309   -20046.715   -253.24307    524.77644    78.830811    22.635308    25.320107 
   82200    245.87212   -263.75644    216009.12   -18591.118    1429.8841   -20021.002   -600.32141    525.94548    78.830402    22.635148    25.330422 
   82400    238.85019    -475.0363    216009.12   -18598.002    1389.0477    -19987.05   -1453.1244    530.16946    78.831769    22.636732    25.313146 
   82600    245.86416   -356.92393    216009.12   -18507.665    1429.8379   -19937.503   -927.06052    531.92072     78.83066    22.638225     25.32396 
   82800    242.10107   -377.19595    216009.12   -18598.801    1407.9534   -20006.755   -1027.3254    534.47428    78.829957    22.636001    25.341962 
   83000    245.00349   -401.59985    216009.12    -18557.89    1424.8326   -19982.722   -1129.7801    533.81745    78.831682    22.633423    25.367518 
   83200    237.53511   -341.22414    216009.12   -18576.207    1381.3998   -19957.606    -852.1711    535.80262     78.83493     22.63353    25.370981 
   83400    238.03007   -251.68465    216009.12   -18614.995    1384.2783   -19999.274   -491.00191    535.09264    78.835009    22.631892    25.379872 
   83600    235.06516   -389.75114    216009.12   -18660.097    1367.0356   -20027.133   -1128.4396    536.12028    78.836299    22.630376    25.378639 
   83800    237.12322   -395.90906    216009.12    -18632.63    1379.0044   -20011.634   -1080.6118    536.90462    78.838367    22.628673    25.359289 
   84000    243.05006   -296.99402    216009.12   -18572.658    1413.4723    -19986.13   -693.71104    538.32806    78.840535    22.628978    25.356555 
   84200     239.6258     -238.509    216009.12    -18558.45    1393.5583   -19952.008   -477.19803    537.45266    78.841388     22.62971    25.371979 
   84400    237.85491   -309.43697    216009.12   -18595.708    1383.2596   -19978.967   -734.28574    540.12005    78.841179     22.63155    25.380299 
   84600    244.15849     -372.831    216009.12   -18557.493    1419.9184   -19977.411   -1004.3869    540.99245    78.842533    22.634136    25.407148 
   84800    238.51196   -223.76425    216009.12   -18599.819    1387.0807     -19986.9   -365.67434    543.54755    78.846803    22.634925    25.412235 
   85000    237.66608   -362.04866    216009.12   -18620.238    1382.1615     -20002.4    -950.7127    545.38482    78.847882    22.631482    25.411685 
   85200    237.23279   -215.92335    216009.12   -18634.599    1379.6416   -20014.241   -382.80812     547.0254    78.846572    22.630935     25.42654 
   85400    241.52812   -184.16946    216009.12   -18680.042    1404.6214   -20084.663   -184.71867    547.29855     78.84727    22.631866    25.433797 
   85600    237.07329   -312.29005    216009.12   -18667.873     1378.714   -20046.587   -763.25456    548.39589    78.849555    22.634907    25.443476 
   85800    244.80676   -199.93674    216009.12   -18583.139    1423.6885   -20006.827   -292.59499    546.91841    78.850248     22.63763    25.466542 
   86000    238.24295   -370.05314    216009.12   -18603.535    1385.5163   -19989.051    -1000.137    548.69951    78.849627    22.639029    25.459579 
   86200    239.95232   -361.86603    216009.12   -18586.781    1395.4572   -19982.238   -954.52081    553.64941    78.851352    22.638694    25.471732 
   86400    234.07439   -320.08406    216009.12   -18660.192    1361.2737   -20021.466   -823.34204    553.18504    78.853568     22.64224    25.474426 
   86600    244.06712   -278.71149    216009.12    -18575.96    1419.3871   -19995.347   -568.70931    556.19594    78.858293    22.641816    25.465606 
   86800    234.79065   -223.74756    216009.12    -18632.04    1365.4392   -19997.479   -392.95163    556.88758    78.860504    22.641507    25.440212 
   87000    240.08432   -196.92249    216009.12   -18642.392    1396.2249   -20038.617   -251.65013    559.18028    78.860581    22.642221    25.436679 
   87200    244.43035   -360.47124    216009.12   -18641.238    1421.4994   -20062.737    -934.7933    559.73274    78.859682    22.642454     25.42768 
   87400    243.06537   -233.28606    216009.12   -18636.813    1413.5613   -20050.374   -418.68575    559.04424    78.862811    22.643206    25.418508 
   87600    235.09756   -425.86534    216009.12    -18635.48    1367.2241   -20002.704   -1236.2084    561.11202     78.86045    22.644011    25.398072 
   87800    237.62077   -431.22764    216009.12   -18652.668    1381.8979   -20034.566   -1311.2081     558.7897    78.860104    22.643662    25.402675 
   88000    241.51774   -364.12496    216009.12   -18609.423     1404.561   -20013.984   -971.57437    560.69557    78.861906    22.642928    25.410104 
   88200    230.89549   -328.51559    216009.12   -18657.965    1342.7867   -20000.752   -859.32493    561.31795    78.862821     22.64135    25.397956 
   88400    239.99738   -378.61932    216009.12   -18571.273    1395.7193   -19966.992   -1006.1088    563.59131    78.861679    22.642001    25.385237 
   88600    239.11432   -275.59616    216009.12   -18597.698    1390.5837   -19988.281   -608.06111    567.25153    78.861243    22.642455    25.397996 
   88800    233.91464   -279.06171    216009.12   -18699.213    1360.3447   -20059.557    -599.6383     567.9242    78.859154    22.640582    25.394183 
   89000    240.55896   -301.05064    216009.12   -18619.404    1398.9852   -20018.389   -681.97445    568.03926    78.860637    22.641232    25.422167 
   89200    243.45684   -398.43049    216009.12   -18611.967     1415.838   -20027.805   -1072.4725    572.91927     78.86312    22.641668    25.419327 
   89400    236.56749   -216.31667    216009.12   -18610.268    1375.7725    -19986.04   -392.05969    574.30012    78.863227    22.642735    25.427198 
   89600    234.37538   -297.49269    216009.12   -18707.596    1363.0242    -20070.62    -699.4636    575.75426    78.865872    22.642559    25.426138 
   89800    239.74064   -206.82826    216009.12   -18581.856    1394.2262   -19976.082   -276.23022     575.4338    78.866097    22.642203    25.429923 
   90000     246.0202   -188.65617    216009.12   -18601.465    1430.7453    -20032.21   -205.61677    577.79599    78.866236    22.641643    25.438678 
   90200    235.95923   -328.87805    216009.12   -18640.885    1372.2351    -20013.12   -823.91667    582.99617     78.86781    22.642063     25.43954 
   90400    243.58449   -299.50201    216009.12    -18583.64    1416.5803   -20000.221   -670.19092    583.52728    78.868649    22.640686    25.446558 
   90600    243.06564   -415.05769    216009.12   -18616.714    1413.5629   -20030.277    -1173.384    583.86211    78.869297    22.641093    25.429409 
   90800    233.39181   -401.14715    216009.12   -18642.653    1357.3042   -19999.957   -1123.5896    585.37483    78.870888    22.640397    25.443333 
   91000    234.27578   -399.30071    216009.12   -18651.972    1362.4449   -20014.417   -1103.7862    587.37706    78.869489    22.642172     25.44598 
   91200    233.64556    -303.5756    216009.12   -18716.833    1358.7799   -20075.613   -741.72103    587.97043    78.868297    22.641022    25.432876 
   91400    234.43751   -297.86492    216009.12    -18639.69    1363.3855   -20003.075   -704.96188     590.0361    78.870114    22.640521    25.432627 
   91600    238.11701   -295.37374    216009.12   -18527.294    1384.7838   -19912.078    -736.6714    589.49288    78.871481    22.638969    25.416741 
   91800    249.84093   -261.59995    216009.12   -18544.107     1452.965   -19997.072   -547.27501    590.53877    78.873711    22.640984    25.429557 
   92000    235.09438   -302.77184    216009.12   -18557.994    1367.2056   -19925.199   -762.82037    590.69064    78.874457    22.641078    25.442135 
   92200    234.09288   -378.69139    216009.12   -18551.706    1361.3813   -19913.088   -1069.8393    591.76758    78.874127    22.641706    25.465056 
   92400    244.14557   -366.56588    216009.12   -18530.748    1419.8433   -19950.591   -983.20659    589.35671    78.874685    22.642655    25.475795 
   92600    241.96829   -335.08355    216009.12   -18489.936    1407.1812   -19897.117   -829.30105    590.09737    78.876016    22.643235    25.477895 
   92800     238.0182   -234.29958    216009.12   -18585.842    1384.2092   -19970.051    -405.5902    589.55749     78.87658    22.642902    25.462411 
   93000    238.11405   -365.69235    216009.12    -18634.73    1384.7666   -20019.497   -1028.8249    591.69867    78.876758    22.639755    25.492069 
   93200    239.13751   -158.98525    216009.12    -18629.71    1390.7187   -20020.429   -87.162729     593.5417     78.87453    22.638387    25.477694 
   93400    240.86981   -251.20927    216009.12   -18684.472    1400.7929   -20085.265   -492.83533    594.61363    78.875639    22.638263    25.467618 
   93600    237.38367   -142.73786    216009.12   -18675.846    1380.5191   -20056.365   -14.334487    595.83333    78.876748    22.638455    25.451676 
   93800    234.48337   -212.85265    216009.12   -18666.558    1363.6522    -20030.21   -346.69909    596.03463    78.880335    22.635263    25.445025 
   94000    240.48848   -434.28231    216009.12   -18668.757    1398.5753   -20067.333   -1293.1732     596.8396    78.882383    22.636163    25.437524 
   94200    240.08926   -292.91216    216009.12   -18585.193    1396.2536   -19981.447     -674.976    597.87231    78.883189    22.634356    25.435566 
   94400    233.16862   -345.13383    216009.12   -18641.055    1356.0062   -19997.061   -878.58579    600.24491    78.882957    22.633803    25.441271 
   94600    233.29891   -284.09467    216009.12   -18642.056    1356.7639    -19998.82   -621.37825    600.66248    78.883797    22.631514    25.463866 
   94800    237.86633   -415.77759    216009.12   -18625.936     1383.326   -20009.262   -1174.0769    600.08295    78.884259    22.629385    25.463446 
   95000    238.37228   -290.05671    216009.12   -18641.055    1386.2684   -20027.323   -653.30948    597.48264    78.884856    22.627876    25.462525 
   95200    237.07585   -297.99968    216009.12   -18608.113    1378.7289   -19986.842   -677.98374    595.87667    78.884357    22.627555    25.453835 
   95400    240.49235   -328.32049    216009.12     -18611.8    1398.5978   -20010.398    -872.7856    596.81401    78.881746    22.628816     25.42971 
   95600    240.40521   -274.37539    216009.12   -18626.931     1398.091   -20025.022   -571.87821    598.20041    78.880639    22.630945    25.409587 
   95800    241.90593   -345.49451    216009.12   -18589.263    1406.8185   -19996.082   -903.66897    598.39093    78.879274     22.63027     25.40904 
   96000    246.86682   -244.41192    216009.12    -18560.09    1435.6689   -19995.759   -459.00042    599.78384    78.878679    22.629002    25.400919 
   96200    239.81203   -242.60013    216009.12   -18552.622    1394.6414   -19947.263   -414.48345    599.80528     78.88115    22.631074     25.40698 
   96400    240.14799   -222.56569    216009.12    -18593.66    1396.5952   -19990.255   -364.32667    602.42518     78.88295    22.629204    25.406578 
   96600    232.68436   -377.14692    216009.12    -18641.08    1353.1899    -19994.27   -1061.9354    603.14625    78.881227     22.62874    25.416862 
   96800    237.41856    -313.4918    216009.12   -18623.021     1380.722   -20003.743   -791.48113    601.12007    78.880364    22.630296    25.414288 
   97000    232.39858   -223.56615    216009.12   -18651.314     1351.528   -20002.842   -387.95219    604.78598    78.880327    22.632046    25.410207 
   97200    239.76491   -457.14154    216009.12   -18628.384    1394.3673   -20022.751   -1399.9423    606.30923    78.880794    22.633244    25.405266 
   97400    240.00135   -380.94062    216009.12   -18576.747    1395.7423    -19972.49   -1051.1072    607.00161    78.878362    22.633562     25.40798 
   97600    249.87965   -381.29362    216009.12   -18522.561    1453.1902   -19975.751   -1019.6881    609.82232    78.879214    22.633086    25.403487 
   97800    243.93524   -144.20714    216009.12   -18549.106    1418.6201   -19967.726   -69.237017    608.53054    78.881298    22.629506     25.40004 
   98000    244.46454   -233.98075    216009.12   -18579.517    1421.6983   -20001.215   -425.62507     611.4008    78.882012    22.629772    25.380132 
   98200    237.30874   -314.04806    216009.12   -18598.565    1380.0833   -19978.648   -786.21696    614.41638    78.881617     22.63075    25.386403 
   98400    234.87352   -343.04322    216009.12   -18564.916    1365.9211   -19930.837   -889.61583    613.70725    78.882077    22.631669    25.368688 
   98600    242.70051   -230.98411    216009.12   -18590.491    1411.4395    -20001.93   -388.59663    611.20683    78.881605    22.631718    25.368879 
   98800     247.6433   -363.57222    216009.12   -18613.487    1440.1846   -20053.671   -957.78641    612.97574    78.882297    22.634643    25.387724 
   99000    235.55562   -317.47975    216009.12   -18651.869    1369.8879   -20021.757   -746.18283    614.48403    78.880982    22.635701    25.393532 
   99200    242.36238   -301.83993    216009.12   -18639.184     1409.473   -20048.657      -723.65     616.6993    78.880458    22.635873    25.389103 
   99400     235.7673   -325.60198    216009.12   -18651.872     1371.119   -20022.991   -807.31883    616.07026    78.877873    22.636281    25.374676 
   99600    238.88982    -302.4961    216009.12   -18593.615    1389.2782   -19982.893   -740.84582    616.38638    78.878877     22.63527    25.326201 
   99800     239.9749   -376.05998    216009.12   -18624.781    1395.5885    -20020.37   -983.05839    617.70808    78.881507    22.634103    25.340085 
  100000    242.09843   -456.90505    216009.12   -18589.903     1407.938   -19997.841   -1357.5843    619.18555    78.883268    22.634716      25.3469 
  100200    234.31751   -327.22932    216009.12   -18632.226    1362.6876   -19994.913   -834.72044    618.42217    78.883791    22.633947    25.372066 
  100400    243.90907   -344.21896    216009.12   -18572.248    1418.4679   -19990.716   -884.58062    620.04836    78.883023    22.632841    25.367172 
  100600    238.33177   -376.06886    216009.12    -18581.84    1386.0328   -19967.873   -982.29886    623.46572    78.882268    22.633365    25.356232 
  100800    235.09157   -344.13408    216009.12   -18652.334    1367.1892   -20019.523   -869.82146    624.58667    78.883733    22.633491    25.390147 
[...]
 5175800    223.47814   -618.81822    216009.12   -20622.749    1299.6506     -21922.4    -2005.274    8085.0295     78.26465    23.033618    25.543038 
 5176000    228.79734   -697.67067    216009.12   -20609.073    1330.5848   -21939.658   -2351.0448    8083.0226    78.264112    23.034272    25.541078 
 5176200    226.68794    -802.2687    216009.12   -20615.623    1318.3174    -21933.94   -2800.2397    8087.3881    78.263412    23.034161    25.539236 
 5176400    223.60225   -581.13075    216009.12   -20642.048    1300.3724    -21942.42   -1820.4576    8083.1167     78.26404    23.036468    25.543574 
 5176600    230.06943   -653.55222    216009.12   -20601.612    1337.9827   -21939.594   -2143.1646    8082.6329    78.264096    23.037515    25.541155 
 5176800     230.9121     -800.827    216009.12   -20566.902    1342.8832   -21909.785   -2776.0159    8089.6739    78.263851     23.03889    25.545017 
 5177000    226.70958   -607.08224    216009.12   -20571.902    1318.4433   -21890.345   -1932.1443     8085.988    78.264879    23.039502    25.543916 
 5177200     229.4804   -633.34576    216009.12   -20584.528    1334.5571   -21919.086   -2046.9879     8084.091    78.265361    23.040002    25.547534 
 5177400    229.32256    -745.2579    216009.12   -20612.606    1333.6392   -21946.245   -2512.3951    8087.8469    78.264478    23.040007    25.545038 
 5177600    228.75022   -649.65376    216009.12   -20562.907    1330.3107   -21893.218      -2167.2    8084.5379    78.266232    23.041339    25.540389 
 5177800    226.22707   -591.23654    216009.12   -20594.018    1315.6372   -21909.655   -1860.1577     8086.043    78.265809     23.04074    25.534985 
 5178000    229.73644   -769.59285    216009.12   -20619.509    1336.0462   -21955.555   -2614.0738    8089.7902    78.265907    23.042463    25.545762 
 5178200    224.07013   -609.17627    216009.12   -20619.585    1303.0934   -21922.678   -1972.0624    8084.2827    78.266983    23.043701    25.543547 
 5178400    225.40879   -655.65348    216009.12   -20632.731    1310.8784   -21943.609   -2172.7883    8085.4821    78.266628     23.04365    25.544725 
 5178600    224.65748   -746.25437    216009.12   -20626.522    1306.5092   -21933.031   -2540.4602     8087.629     78.26654    23.042477    25.541736 
 5178800    234.73556   -540.31599    216009.12   -20583.943    1365.1188   -21949.062   -1637.8351    8084.8691    78.266988    23.043167    25.549011 
 5179000    229.19888   -679.47768    216009.12   -20605.329    1332.9199   -21938.249   -2223.8021    8084.0213     78.26733    23.043334    25.542968 
 5179200    230.19347   -778.02518    216009.12   -20588.924    1338.7041   -21927.628   -2667.3067      8087.87     78.26738    23.043317    25.537902 
 5179400     219.8201   -560.29944    216009.12   -20645.369    1278.3771   -21923.746   -1763.8732    8084.0878    78.268444    23.043973    25.538062 
 5179600    230.97711   -628.13904    216009.12    -20543.64    1343.2613   -21886.902   -1978.4154    8083.7501    78.269412    23.043027    25.539385 
 5179800     229.6955   -702.56435    216009.12   -20600.957     1335.808   -21936.765   -2315.4785    8087.6456    78.270426    23.042292    25.537337 
 5180000    226.81795   -632.20773    216009.12   -20623.157    1319.0735    -21942.23   -2051.5161     8085.218    78.271414    23.042865    25.535169 
 5180200    224.12134   -652.95101    216009.12    -20685.74    1303.3912   -21989.131   -2169.7273    8083.1385    78.271757    23.043093    25.536477 
 5180400    221.93945   -739.92582    216009.12   -20660.489    1290.7023   -21951.191   -2496.0686    8087.8305    78.271086    23.042032    25.541942 
 5180600     225.2419   -586.57683    216009.12    -20598.62    1309.9079   -21908.528   -1890.4302    8082.9298    78.270526    23.042237    25.547669 
 5180800    226.90667   -671.81084    216009.12   -20568.379    1319.5894   -21887.968   -2198.8614    8086.9124    78.269958    23.041655     25.54397 
 5181000    225.21963   -658.90656    216009.12    -20617.75    1309.7783   -21927.528   -2172.3989    8084.0762    78.269902    23.040522    25.544214 
 5181200    221.68632    -650.9609    216009.12   -20619.509    1289.2302   -21908.739   -2137.3339    8084.8699    78.269644    23.039524    25.537044 
 5181400    227.16665   -661.20315    216009.12   -20662.435    1321.1014   -21983.536   -2199.0061    8085.1458    78.269609     23.03861     25.54014 
 5181600    232.74873   -743.93085    216009.12   -20598.291    1353.5643   -21951.855   -2538.6422    8085.4174    78.270004    23.037798     25.54181 
 5181800    222.21365   -633.21949    216009.12   -20672.284    1292.2969    -21964.58   -2079.8275      8084.64    78.269769    23.037098    25.542129 
 5182000    231.95427   -670.31703    216009.12   -20589.776    1348.9441    -21938.72   -2165.3066    8086.0707    78.270273    23.037252    25.544548 
 5182200     229.9832    -749.4709    216009.12   -20594.292    1337.4812   -21931.773   -2525.0301    8084.2549    78.270494    23.036765    25.537842 
 5182400    232.55149   -603.40379    216009.12   -20585.504    1352.4172   -21937.921   -1926.4406    8084.8233    78.271024    23.036538    25.534018 
 5182600    227.01057   -701.65072    216009.12   -20671.428    1320.1937   -21991.622   -2370.2447    8086.9461     78.27104     23.03597    25.532604 
 5182800    230.08629   -719.87069    216009.12   -20611.737    1338.0807   -21949.817   -2441.8934    8085.8298    78.270626    23.035025    25.538887 
 5183000    225.39426   -553.91772    216009.12   -20603.411    1310.7939   -21914.205   -1718.1433    8086.9714     78.27078    23.033846    25.538041 
 5183200    228.47609   -661.88848    216009.12   -20554.057    1328.7165   -21882.774   -2169.1802    8085.6368    78.271007    23.035659    25.532497 
 5183400    232.66955   -637.49854    216009.12   -20563.977    1353.1038   -21917.081   -2016.0844    8085.1043    78.271361    23.034621    25.538778 
 5183600    221.97893   -618.88901    216009.12   -20647.702    1290.9319   -21938.634   -1983.8565    8084.5492    78.271578    23.034597    25.537301 
 5183800    220.97937   -714.82798    216009.12   -20669.266    1285.1189   -21954.385    -2391.516    8085.6049    78.271889    23.034991    25.539364 
 5184000    220.66478   -673.29779    216009.12   -20671.645    1283.2894   -21954.935   -2257.0125     8084.813    78.271007    23.033912     25.53788 
 5184200    232.63672   -577.34754    216009.12   -20550.809    1352.9129   -21903.722   -1791.7522    8087.4548    78.270185    23.034599     25.54371 
 5184400    223.46355   -704.22463    216009.12   -20614.494    1299.5658   -21914.059   -2370.7205    8086.8855    78.270945    23.035143    25.535594 
 5184600    229.89465   -637.97327    216009.12    -20552.98    1336.9662   -21889.947   -2067.5553    8088.1387     78.27178     23.03541    25.537533 
 5184800     224.4486   -679.80257    216009.12   -20599.955    1305.2944   -21905.249   -2298.6033    8083.2484    78.272683    23.034241    25.541035 
 5185000    231.62333   -765.21492    216009.12   -20618.775    1347.0195   -21965.794   -2616.5005    8090.6224     78.27384     23.03385    25.532613 
 5185200    227.74057   -677.70288    216009.12   -20597.357     1324.439   -21921.796   -2244.4366    8085.0639    78.273154    23.035102    25.535581 
 5185400    223.41899   -594.06197    216009.12   -20645.444    1299.3066   -21944.751   -1867.4204    8083.4971    78.273972    23.035638    25.534857 
 5185600    226.44234   -782.52633    216009.12   -20601.793    1316.8891   -21918.682   -2687.9376    8092.1062    78.274681      23.0347    25.530055 
 5185800    223.13222    -708.3536    216009.12   -20620.219    1297.6389   -21917.858   -2344.3984    8084.6731    78.275034    23.036029     25.53651 
 5186000    228.15237   -626.08828    216009.12   -20575.498    1326.8339   -21902.332   -2070.9996    8086.0221     78.27389    23.035371    25.534862 
 5186200    229.54725   -764.23379    216009.12   -20584.611    1334.9459   -21919.557   -2640.6098     8090.047    78.274217    23.035905    25.537861 
 5186400    226.42239   -655.76091    216009.12   -20596.935    1316.7731   -21913.708   -2180.1635    8083.3737    78.273339    23.036914    25.534539 
 5186600    232.16057   -627.17813    216009.12   -20589.444    1350.1438   -21939.587   -2006.7095    8084.6729    78.273871    23.037433    25.531279 
 5186800    228.30559   -721.13896    216009.12   -20585.231    1327.7249   -21912.956    -2432.298    8089.4873    78.273808    23.037459    25.535831 
 5187000    230.64318   -548.97689    216009.12   -20609.125    1341.3193   -21950.444   -1668.2394    8081.7122    78.274728    23.038131    25.535408 
 5187200     226.8711   -687.01682    216009.12    -20565.63    1319.3826   -21885.013   -2346.8367    8084.8156     78.27462    23.037633    25.532507 
 5187400    227.82902   -736.98227    216009.12   -20580.372    1324.9534   -21905.326   -2442.3931    8089.0936    78.275058    23.038757    25.534194 
 5187600    221.23046   -579.52915    216009.12   -20623.357    1286.5791   -21909.937   -1810.9366    8084.4344     78.27642    23.039294    25.542782 
 5187800    223.33003   -752.49588    216009.12   -20582.208    1298.7893   -21880.997   -2572.0163    8085.5784     78.27631    23.040247    25.535594 
 5188000    229.35957    -701.0562    216009.12   -20610.102    1333.8544   -21943.957   -2348.5159    8087.9281     78.27692    23.040091    25.538745 
 5188200    228.24616   -555.87835    216009.12   -20555.278    1327.3793   -21882.658   -1746.8094    8085.3873    78.278069    23.041228    25.534824 
 5188400    230.28449   -681.86736    216009.12    -20581.87    1339.2333   -21921.103   -2258.2058    8086.8094    78.278301    23.041908     25.53314 
 5188600    229.15681   -668.45368    216009.12    -20588.95    1332.6753   -21921.625   -2200.1314    8088.2405    78.279232     23.04216     25.53374 
 5188800    223.22958   -614.45074    216009.12   -20643.361    1298.2051   -21941.566   -1990.6135    8084.3204    78.280449    23.043272    25.534252 
 5189000    223.53615   -715.91368    216009.12   -20636.027     1299.988   -21936.015   -2387.6455    8085.5815     78.28003    23.044843    25.532589 
 5189200    226.56314   -738.90889    216009.12   -20626.471    1317.5916   -21944.062   -2523.6594     8086.406    78.280163    23.045379    25.536049 
 5189400    224.49025   -589.82316    216009.12   -20683.845    1305.5366   -21989.381   -1871.8109    8082.7389    78.280744     23.04619    25.534464 
 5189600    221.91647   -810.01845    216009.12   -20624.083    1290.5687   -21914.651   -2827.7983    8085.8859    78.280293     23.04513    25.538666 
 5189800    229.85925   -664.83238    216009.12   -20576.007    1336.7604   -21912.767   -2163.1749    8087.1483    78.280424    23.044688    25.542786 
 5190000    223.00084   -626.55216    216009.12   -20613.425    1296.8749     -21910.3   -2001.4917    8086.2525    78.281036    23.044939    25.546718 
 5190200    231.71359    -758.3049    216009.12   -20589.452    1347.5444   -21936.997   -2575.9823    8088.6518    78.281432    23.044753      25.5394 
 5190400    224.40193   -637.98571    216009.12   -20604.348     1305.023   -21909.371   -2053.1396    8083.4255    78.281881    23.046195    25.542762 
 5190600    230.82015    -637.0819    216009.12   -20544.516    1342.3485   -21886.865   -2112.5599    8083.9195    78.281632     23.04751     25.54206 
 5190800    224.00648   -746.31122    216009.12   -20621.804    1302.7232   -21924.527   -2541.7624    8087.1154    78.282618    23.048228    25.539214 
 5191000    226.76716   -609.00804    216009.12    -20592.56    1318.7781   -21911.338   -1930.1846    8083.4328    78.282974    23.047891    25.541385 
 5191200    229.89885   -616.17964    216009.12   -20570.728    1336.9906   -21907.719   -1976.6705    8084.9023    78.282873    23.048873    25.540796 
 5191400    229.48718   -677.98541    216009.12   -20609.267    1334.5966   -21943.864   -2242.1075    8085.7033    78.284006     23.04987     25.53751 
 5191600    226.46435   -719.32955    216009.12    -20626.32    1317.0171   -21943.338   -2439.7212    8081.8715     78.28312    23.050073    25.539367 
 5191800    224.66091   -640.28339    216009.12   -20619.412    1306.5291   -21925.941   -2110.9568     8086.622    78.283669    23.051091    25.542331 
 5192000      235.864   -704.85791    216009.12    -20565.88    1371.6814   -21937.561   -2308.7057    8087.0164    78.282423    23.051284    25.543841 
 5192200     227.4448   -589.81145    216009.12   -20537.982     1322.719   -21860.701   -1875.3317    8085.1335    78.282248    23.050913    25.540713 
 5192400    225.68431   -619.29382    216009.12    -20608.14    1312.4807   -21920.621   -1979.7553     8085.074    78.282508    23.052429    25.534452 
 5192600    226.40546   -755.45114    216009.12   -20597.742    1316.6746   -21914.417    -2584.525     8086.592    78.282987    23.053345    25.535761 
 5192800    222.63598   -625.49826    216009.12   -20615.796     1294.753   -21910.549   -2021.8858    8083.5654    78.283464    23.053732    25.540336 
 5193000    233.42998   -643.77638    216009.12   -20576.726    1357.5261   -21934.252   -2098.5627    8084.3726    78.285029    23.053557    25.537321 
 5193200     225.4658   -660.83107    216009.12   -20656.489      1311.21   -21967.699   -2180.9349    8084.2176    78.285825    23.054423    25.544192 
 5193400    230.90337   -695.33817    216009.12   -20585.186    1342.8325   -21928.019   -2312.9242    8086.0109    78.286277    23.055242    25.546605 
 5193600    226.66523    -680.9127    216009.12   -20616.521    1318.1854   -21934.707   -2277.8192    8085.4223    78.285919    23.056132    25.543975 
 5193800    225.18357   -630.68393    216009.12   -20603.369    1309.5687   -21912.938   -2040.5262    8085.0827    78.286455    23.056941    25.541531 
 5194000    229.44158    -668.8502    216009.12   -20582.992    1334.3314   -21917.323   -2232.4495    8085.2032    78.287931    23.057327    25.549291 
 5194200    219.42787   -610.71423    216009.12   -20664.158     1276.096   -21940.254    -1980.251    8083.9931    78.288912     23.05774    25.543991 
 5194400    217.59226   -652.92129    216009.12   -20638.718    1265.4209   -21904.139   -2180.3616    8086.7801    78.289447    23.057706    25.544352 
 5194600    227.37445   -677.01935    216009.12   -20602.351    1322.3098   -21924.661   -2267.2212     8084.516    78.289759     23.05907    25.551781 
 5194800    236.30371   -609.85985    216009.12   -20562.244    1374.2385   -21936.483   -1990.3511    8085.4681    78.289002    23.059017    25.545989 
 5195000    222.87478   -693.60795    216009.12   -20631.929    1296.1417    -21928.07   -2291.5419    8087.6469    78.289251    23.059397    25.543349 
 5195200     228.4529   -660.57097    216009.12   -20554.257    1328.5816   -21882.838   -2180.6971    8085.5084    78.289641    23.058485    25.546293 
 5195400    223.30835   -629.56506    216009.12   -20616.722    1298.6632   -21915.385   -2047.8121     8083.699     78.28945    23.058485    25.546595 
 5195600    230.69601   -709.37702    216009.12   -20566.544    1341.6266   -21908.171   -2364.1561    8086.3692    78.291253    23.058261    25.544313 
 5195800    225.72357   -637.75689    216009.12   -20640.908    1312.7091   -21953.617   -2050.7699    8085.7019    78.292123    23.058766    25.544997 
 5196000    229.41814    -609.0263    216009.12   -20552.233     1334.195   -21886.428   -1938.6965     8085.148    78.291715     23.05853    25.546168 
 5196200    226.68528    -701.8097    216009.12   -20580.589    1318.3019   -21898.891   -2377.3275    8085.8629    78.292336     23.05724    25.552635 
 5196400    231.32705   -633.00434    216009.12   -20628.491    1345.2964   -21973.788   -2057.1862      8083.83    78.293179    23.057447    25.549314 
 5196600    226.26667   -630.15192    216009.12   -20589.158    1315.8675   -21905.026   -2040.7061    8083.8009    78.294278    23.057296    25.551988 
 5196800    231.81721   -721.83372    216009.12   -20599.231     1348.147   -21947.378   -2415.0154    8086.0039    78.294375    23.057413    25.548164 
 5197000    228.88014   -684.73372    216009.12   -20585.973    1331.0663   -21917.039   -2293.5758    8086.1131    78.295726    23.058308    25.549941 
 5197200    235.30854   -672.93068    216009.12   -20571.717     1368.451   -21940.168   -2250.2452    8084.2296    78.296227    23.058219    25.549912 
 5197400    224.76763   -694.30248    216009.12   -20638.492    1307.1497   -21945.642   -2302.3882    8086.6636    78.296569    23.057593    25.549309 
 5197600    229.54927   -605.29667    216009.12   -20637.896    1334.9577   -21972.854   -1986.2992    8085.1293    78.297529    23.057726    25.544923 
 5197800    225.68057   -643.81248    216009.12   -20644.001     1312.459    -21956.46   -2086.5339     8084.202    78.297575    23.057261    25.547999 
 5198000    218.26155   -690.30602    216009.12   -20685.927    1269.3132    -21955.24   -2296.3769    8086.9047    78.297934    23.058234    25.548325 
 5198200    228.96949   -583.28688    216009.12   -20591.544    1331.5859   -21923.129   -1857.2003    8086.1792    78.298313    23.058014    25.543131 
 5198400    231.68333   -664.54814    216009.12   -20583.344    1347.3684   -21930.712   -2201.0176    8084.6449    78.299073    23.057586    25.544077 
 5198600    229.49354   -637.87622    216009.12   -20594.798    1334.6335   -21929.432   -2049.6313    8085.5113    78.300659    23.056847    25.548365 
 5198800    220.68113   -611.18473    216009.12   -20667.455    1283.3844    -21950.84    -1980.685     8083.707    78.301825    23.056024    25.548302 
 5199000    222.79239    -657.0906    216009.12   -20631.072    1295.6626   -21926.735   -2164.1719    8086.1872    78.302669    23.055995    25.547904 
 5199200    227.79821   -624.81871    216009.12   -20540.933    1324.7742   -21865.707   -2035.2314    8085.7504    78.302575    23.056356    25.548284 
 5199400    225.34767   -547.61144    216009.12   -20660.308     1310.523   -21970.831   -1645.9673     8083.362    78.302127    23.056311    25.547682 
 5199600     223.9181   -681.62578    216009.12   -20645.051    1302.2092    -21947.26   -2278.6999    8087.0917    78.303001    23.057155    25.545651 
 5199800    226.59077   -633.09208    216009.12   -20603.852    1317.7523   -21921.604   -2058.7527    8086.6392    78.304359    23.055995    25.546621 
 5200000    224.96633   -567.09122    216009.12   -20619.923    1308.3053   -21928.228    -1800.692    8084.4406     78.30547    23.056738    25.544091 
Loop time of 7030.09 on 160 procs for 5200000 steps with 9248 atoms

Performance: 639.081 ns/day, 0.038 hours/ns, 739.678 timesteps/s
97.8% CPU use with 160 MPI tasks x no OpenMP threads

MPI task timing breakdown:
Section |  min time  |  avg time  |  max time  |%varavg| %total
---------------------------------------------------------------
Pair    | 0.25047    | 1428.6     | 5544.3     |5112.4 | 20.32
Neigh   | 0.31139    | 90.235     | 404.78     |1240.0 |  1.28
Comm    | 11.465     | 1788.2     | 5636.5     |4569.7 | 25.44
Output  | 89.95      | 90.023     | 91.904     |   1.6 |  1.28
Modify  | 227.68     | 3533.1     | 6836.3     |4756.2 | 50.26
Other   |            | 99.95      |            |       |  1.42

Nlocal:    57.8 ave 196 max 0 min
Histogram: 72 30 18 0 0 0 0 0 13 27
Nghost:    535.294 ave 910 max 0 min
Histogram: 18 6 0 8 8 32 34 14 24 16
Neighs:    0 ave 0 max 0 min
Histogram: 160 0 0 0 0 0 0 0 0 0
FullNghs:  5870.1 ave 23642 max 0 min
Histogram: 112 8 0 0 0 0 0 2 20 18

Total # of neighbors = 939216
Ave neighs/atom = 101.559
Neighbor list builds = 544699
Dangerous builds = 0
write_data 		${DIR}/data.${NAME}_run
write_data 		run_18/data.${NAME}_run
write_data 		run_18/data.ibeam_cooling_18_run
Total wall time: 1:57:25
