

### IMPORT ATOMS ###
read_data ../Box_Setup/data.Ibeam_240K
  orthogonal box = (0 0 0) to (157.504 40.4305 33.9212)
  10 by 4 by 4 MPI processor grid
  reading atoms ...
  9248 atoms
  reading velocities ...
  9248 velocities
group water type 2
1952 atoms in group water
group graphite type 1
7296 atoms in group graphite


# Define potential
#
pair_style          sw
pair_coeff * * MLC_e.sw C mW

# Add velocity/set timestep
#

fix		1 graphite setforce 0.0 0.0 0.0
velocity 	graphite set 0.0 0.0 0.0
velocity            water create ${START_TEMP} ${SEED} rot yes dist gaussian
velocity            water create 240 ${SEED} rot yes dist gaussian
velocity            water create 240 2739 rot yes dist gaussian
timestep            5.0

# Define output
#
compute 1 water msd
compute 2 water temp


thermo	            100
thermo_style custom step c_2 press vol etotal ke pe c_1[4] density

# Neighbor lists
#
neigh_modify        delay 0 every 1 check yes


# Set fixes
#
fix                 2 water momentum 10 linear 1 1 1 rescale
fix                 3 all nve
fix                 4 water temp/csvr ${START_TEMP} ${START_TEMP} 500.0 928347
fix                 4 water temp/csvr 240 ${START_TEMP} 500.0 928347
fix                 4 water temp/csvr 240 240 500.0 928347

# Run 0.05 ns equilibration
#
dump                1 all custom 100 ${DIR}/eq.${NAME}.dump id type x y z vx vy vz
dump                1 all custom 100 run_18/eq.${NAME}.dump id type x y z vx vy vz
dump                1 all custom 100 run_18/eq.ibeam_cooling_18.dump id type x y z vx vy vz
run                 10000
Neighbor list info ...
  update every 1 steps, delay 0 steps, check yes
  max neighbors/atom: 2000, page size: 100000
  master list distance cutoff = 6.67472
  ghost atom cutoff = 6.67472
  binsize = 3.33736, bins = 48 13 11
  1 neighbor lists, perpetual/occasional/extra = 1 0 0
  (1) pair sw, perpetual
      attributes: full, newton on
      pair build: full/bin/atomonly
      stencil: full/bin/3d
      bin: standard
Per MPI rank memory allocation (min/avg/max) = 0.4647 | 3.681 | 4.743 Mbytes
Step c_2 Press Volume TotEng KinEng PotEng c_1[4] Density 
       0          240   -299.33439    216009.12   -18704.344    1395.7345   -20100.079            0   0.94393226 
     100    238.28402   -195.77827    216009.12    -18717.02    1385.7551   -20102.776   0.84880225   0.94393226 
     200    231.81594   -80.110214    216009.12   -18757.148    1348.1396   -20105.288    1.2026317   0.94393226 
     300    233.35303   -323.29197    216009.12   -18717.851    1357.0786   -20074.929    1.5034528   0.94393226 
     400    233.13692    -289.0182    216009.12   -18725.176    1355.8219   -20080.998    1.8537042   0.94393226 
     500    236.81912   -374.30192    216009.12   -18700.176    1377.2359   -20077.412    2.1585455   0.94393226 
     600    242.11955    -240.2023    216009.12    -18614.61    1408.0609   -20022.671    2.5499668   0.94393226 
     700    247.73926   -270.63379    216009.12   -18617.034    1440.7426   -20057.777    2.8879293   0.94393226 
     800    246.31584   -460.52915    216009.12   -18597.522    1432.4647   -20029.986    3.3014311   0.94393226 
     900    241.40356   -315.42804    216009.12   -18631.644     1403.897   -20035.541     3.622926   0.94393226 
    1000    242.10921    -217.3692    216009.12   -18681.943    1408.0007   -20089.944    3.7622652   0.94393226 
    1100    241.42518   -199.37233    216009.12    -18646.84    1404.0227   -20050.863    4.1229629   0.94393226 
    1200    237.22785   -269.56623    216009.12   -18635.685    1379.6129   -20015.297    4.3511247   0.94393226 
    1300    242.66339   -312.98661    216009.12    -18600.36    1411.2236   -20011.583    4.6569625   0.94393226 
    1400    238.16546   -345.81237    216009.12    -18629.17    1385.0656   -20014.235    5.1548712   0.94393226 
    1500    240.97459   -363.75016    216009.12   -18641.316    1401.4023   -20042.719    5.6277579   0.94393226 
    1600    244.18513   -212.70777    216009.12   -18642.057    1420.0734   -20062.131    6.0857175   0.94393226 
    1700    242.34408   -254.89888    216009.12   -18662.363    1409.3666   -20071.729    6.5551214   0.94393226 
    1800    242.82496   -360.07673    216009.12   -18637.826    1412.1632    -20049.99    6.8528964   0.94393226 
    1900    242.18932      -358.35    216009.12   -18609.253    1408.4666    -20017.72    7.1643768   0.94393226 
    2000    247.47166    -373.1902    216009.12   -18586.444    1439.1864    -20025.63    7.3615603   0.94393226 
    2100    236.56947   -279.14755    216009.12   -18683.326    1375.7841   -20059.111    7.6775202   0.94393226 
    2200    235.90883   -285.49175    216009.12   -18647.278    1371.9421    -20019.22     7.925002   0.94393226 
    2300    248.07343   -247.11063    216009.12   -18624.937     1442.686   -20067.623    8.3132158   0.94393226 
    2400    244.36652   -369.65557    216009.12   -18624.462    1421.1282    -20045.59    8.9901933   0.94393226 
    2500    237.45182   -332.74305    216009.12   -18647.272    1380.9154   -20028.187    9.3425808   0.94393226 
    2600    241.55415   -321.77927    216009.12   -18647.547    1404.7728    -20052.32    9.7999146   0.94393226 
    2700    243.20254   -462.75233    216009.12   -18646.141    1414.3591     -20060.5    9.9595759   0.94393226 
    2800    244.42036   -446.79084    216009.12   -18600.506    1421.4414   -20021.947    10.422796   0.94393226 
    2900    247.04355   -365.37845    216009.12   -18593.103    1436.6967     -20029.8    10.850527   0.94393226 
    3000    244.89565   -247.72163    216009.12   -18590.533    1424.2055   -20014.738    11.362169   0.94393226 
    3100    243.81537   -479.21042    216009.12   -18581.137     1417.923    -19999.06    11.683572   0.94393226 
    3200    239.67405   -459.72261    216009.12   -18629.833    1393.8389   -20023.672    12.225274   0.94393226 
    3300    234.20426   -174.59018    216009.12   -18707.182     1362.029   -20069.211    12.857232   0.94393226 
    3400    243.97325   -183.95939    216009.12    -18664.41    1418.8412   -20083.252    13.058678   0.94393226 
    3500    245.10998   -231.42779    216009.12    -18672.56    1425.4519   -20098.012    13.531888   0.94393226 
    3600    239.12335    -524.7491    216009.12   -18652.756    1390.6363   -20043.393     13.75828   0.94393226 
    3700    235.67121   -385.62564    216009.12   -18633.593    1370.5601   -20004.153     14.02994   0.94393226 
    3800    240.16947   -208.17595    216009.12   -18605.562    1396.7201   -20002.282    14.089148   0.94393226 
    3900     239.2001   -207.12211    216009.12   -18611.149    1391.0826   -20002.232    14.627028   0.94393226 
    4000    238.61019   -372.57236    216009.12   -18648.842    1387.6519   -20036.494    14.910163   0.94393226 
    4100    239.91188   -195.80565    216009.12   -18645.347     1395.222   -20040.569    14.962551   0.94393226 
    4200    240.96306   -213.31077    216009.12   -18628.553    1401.3353   -20029.889    15.318942   0.94393226 
    4300    240.62689   -326.41511    216009.12   -18666.411    1399.3802   -20065.791    15.511735   0.94393226 
    4400    246.75309   -337.46095    216009.12   -18633.846    1435.0075   -20068.854    15.916087   0.94393226 
    4500    233.81484   -383.57831    216009.12   -18659.816    1359.7643    -20019.58    16.309875   0.94393226 
    4600    233.49782   -331.60902    216009.12   -18693.692    1357.9207   -20051.613    16.399141   0.94393226 
    4700    237.88975   -283.20072    216009.12   -18611.102    1383.4622   -19994.564    16.719854   0.94393226 
    4800    247.35082   -369.23895    216009.12   -18592.034    1438.4837   -20030.517     17.09487   0.94393226 
    4900    238.31346   -228.20011    216009.12   -18551.011    1385.9263   -19936.938    17.399404   0.94393226 
    5000    243.07762   -129.86355    216009.12   -18602.034    1413.6326   -20015.667    17.914164   0.94393226 
    5100    242.05202   -118.36074    216009.12   -18584.659    1407.6681   -19992.327    18.150059   0.94393226 
    5200    239.99721   -318.93308    216009.12   -18616.242    1395.7183    -20011.96    18.504024   0.94393226 
    5300    237.05566   -333.78484    216009.12   -18681.132    1378.6115   -20059.743    18.703586   0.94393226 
    5400     231.8334   -278.73299    216009.12   -18676.749    1348.2411    -20024.99    18.906557   0.94393226 
    5500    236.73968   -284.25719    216009.12   -18654.267    1376.7739   -20031.041    19.505055   0.94393226 
    5600    237.17037   -227.63591    216009.12   -18702.081    1379.2786    -20081.36    19.966508   0.94393226 
    5700     242.4382   -364.16677    216009.12   -18663.664     1409.914   -20073.578    20.466944   0.94393226 
    5800    244.84607    -384.4531    216009.12   -18654.991    1423.9171   -20078.908    20.582802   0.94393226 
    5900    237.93888   -435.75739    216009.12   -18694.738     1383.748   -20078.486    20.804899   0.94393226 
    6000    237.85809   -271.60445    216009.12   -18709.481    1383.2781   -20092.759    21.024624   0.94393226 
    6100    236.20987   -320.41415    216009.12   -18738.116    1373.6928   -20111.809      21.2855   0.94393226 
    6200    245.53889   -197.06042    216009.12    -18738.17    1427.9463   -20166.116    21.541375   0.94393226 
    6300    244.11106   -407.68426    216009.12   -18685.062    1419.6426   -20104.705    21.776721   0.94393226 
    6400    238.13634   -411.75588    216009.12   -18702.993    1384.8962   -20087.889    22.234876   0.94393226 
    6500    238.27378    -267.3646    216009.12   -18716.035    1385.6955    -20101.73    22.432212   0.94393226 
    6600    240.58441   -209.91647    216009.12   -18751.082    1399.1332   -20150.215    22.629807   0.94393226 
    6700    236.75551   -253.78987    216009.12   -18767.461    1376.8659   -20144.327    22.484918   0.94393226 
    6800    238.42773    -284.4487    216009.12   -18761.291    1386.5909   -20147.882    22.707533   0.94393226 
    6900    238.17771   -326.75283    216009.12    -18728.91    1385.1369   -20114.047    22.844577   0.94393226 
    7000    243.62026   -114.76218    216009.12   -18728.424    1416.7883   -20145.213    22.820637   0.94393226 
    7100    235.50804   -257.50704    216009.12    -18738.19    1369.6112   -20107.802    23.005048   0.94393226 
    7200    231.62785   -268.66296    216009.12   -18776.418    1347.0458   -20123.463    23.354194   0.94393226 
    7300    229.73224   -333.70014    216009.12   -18781.868    1336.0217    -20117.89    24.151837   0.94393226 
    7400    235.02971   -396.18525    216009.12    -18739.21    1366.8295   -20106.039    24.532165   0.94393226 
    7500    237.07527   -359.68674    216009.12   -18709.716    1378.7255   -20088.442     24.67852   0.94393226 
    7600    241.96178   -281.60333    216009.12   -18671.334    1407.1433   -20078.478    24.854502   0.94393226 
    7700    242.77136   -244.37686    216009.12   -18681.015    1411.8515   -20092.866    25.173222   0.94393226 
    7800    235.75395   -318.91512    216009.12   -18737.428    1371.0413    -20108.47    25.399424   0.94393226 
    7900    232.77089   -94.798171    216009.12    -18698.45    1353.6932   -20052.143    25.686662   0.94393226 
    8000    241.61017   -415.23874    216009.12   -18636.017    1405.0985   -20041.115    25.840641   0.94393226 
    8100    241.94503   -386.38527    216009.12   -18617.268    1407.0459   -20024.314    25.964146   0.94393226 
    8200    240.23449   -312.55881    216009.12   -18634.126    1397.0982   -20031.224    26.355522   0.94393226 
    8300    235.84736    -354.2229    216009.12   -18590.474    1371.5846   -19962.059    26.541092   0.94393226 
    8400    246.32171   -216.98092    216009.12   -18580.563    1432.4988   -20013.062    26.783451   0.94393226 
    8500    239.31479   -196.54816    216009.12   -18623.301    1391.7496    -20015.05    26.775841   0.94393226 
    8600    242.23753   -179.97272    216009.12   -18647.625     1408.747   -20056.372    27.538549   0.94393226 
    8700    240.17998   -374.11763    216009.12   -18653.164    1396.7812   -20049.945    27.914917   0.94393226 
    8800    235.74545   -280.47831    216009.12   -18647.747    1370.9919   -20018.739    28.081632   0.94393226 
    8900    235.20561   -355.20409    216009.12   -18665.678    1367.8524    -20033.53    28.626659   0.94393226 
    9000    233.49392   -509.71796    216009.12   -18634.831     1357.898   -19992.729    28.757966   0.94393226 
    9100    240.97127   -275.65849    216009.12   -18648.619     1401.383   -20050.002    29.074249   0.94393226 
    9200    248.11234   -253.33638    216009.12     -18610.6    1442.9123   -20053.512     29.41921   0.94393226 
    9300    236.65503   -288.85171    216009.12   -18677.409    1376.2816   -20053.691    29.713543   0.94393226 
    9400    243.35274   -278.34712    216009.12   -18647.425    1415.2326   -20062.658      30.1742   0.94393226 
    9500    236.82318   -412.88755    216009.12   -18683.936    1377.2595   -20061.196    30.582354   0.94393226 
    9600    242.52173   -353.58823    216009.12   -18711.218    1410.3998   -20121.618     30.95242   0.94393226 
    9700    233.74815   -374.74158    216009.12   -18674.935    1359.3765   -20034.311    30.978471   0.94393226 
    9800     243.2237   -467.70885    216009.12   -18625.422    1414.4821   -20039.904    31.288355   0.94393226 
    9900    244.61765   -288.29567    216009.12   -18656.829    1422.5887   -20079.418    31.583265   0.94393226 
   10000    243.85387   -209.08312    216009.12   -18663.533    1418.1469    -20081.68     31.78506   0.94393226 
Loop time of 14.788 on 160 procs for 10000 steps with 9248 atoms

Performance: 292.129 ns/day, 0.082 hours/ns, 676.225 timesteps/s
97.6% CPU use with 160 MPI tasks x no OpenMP threads

MPI task timing breakdown:
Section |  min time  |  avg time  |  max time  |%varavg| %total
---------------------------------------------------------------
Pair    | 0.00048757 | 2.9863     | 12.186     | 238.6 | 20.19
Neigh   | 0.00033879 | 0.094499   | 0.3733     |  39.2 |  0.64
Comm    | 0.014409   | 3.5649     | 11.992     | 223.4 | 24.11
Output  | 0.17603    | 0.17623    | 0.18306    |   0.1 |  1.19
Modify  | 0.38011    | 7.7687     | 14.415     | 222.4 | 52.53
Other   |            | 0.1973     |            |       |  1.33

Nlocal:    57.8 ave 196 max 0 min
Histogram: 72 21 27 0 0 0 0 0 13 27
Nghost:    535.138 ave 926 max 0 min
Histogram: 24 0 0 8 7 45 28 15 20 13
Neighs:    0 ave 0 max 0 min
Histogram: 160 0 0 0 0 0 0 0 0 0
FullNghs:  5903.91 ave 23589 max 0 min
Histogram: 104 16 0 0 0 0 0 1 20 19

Total # of neighbors = 944626
Ave neighs/atom = 102.144
Neighbor list builds = 566
Dangerous builds = 0
write_data 	    ${DIR}/data.${NAME}_eq
write_data 	    run_18/data.${NAME}_eq
write_data 	    run_18/data.ibeam_cooling_18_eq

undump              1
unfix               4



################################################
#######         Run Simulation         #########
################################################

reset_timestep      0
timestep	    10.0
log                 ${DIR}/log.run_${NAME}
log                 run_18/log.run_${NAME}
log                 run_18/log.run_ibeam_cooling_18
