

### IMPORT ATOMS ###
read_data ../Box_Setup/data.Ibeam_240K
  orthogonal box = (0 0 0) to (157.504 40.4305 33.9212)
  10 by 4 by 4 MPI processor grid
  reading atoms ...
  9248 atoms
  reading velocities ...
  9248 velocities
group water type 2
1952 atoms in group water
group graphite type 1
7296 atoms in group graphite


# Define potential
#
pair_style          sw
pair_coeff * * MLC_e.sw C mW

# Add velocity/set timestep
#

fix		1 graphite setforce 0.0 0.0 0.0
velocity 	graphite set 0.0 0.0 0.0
velocity            water create ${START_TEMP} ${SEED} rot yes dist gaussian
velocity            water create 240 ${SEED} rot yes dist gaussian
velocity            water create 240 27925 rot yes dist gaussian
timestep            5.0

# Define output
#
compute 1 water msd
compute 2 water temp


thermo	            100
thermo_style custom step c_2 press vol etotal ke pe c_1[4] density

# Neighbor lists
#
neigh_modify        delay 0 every 1 check yes


# Set fixes
#
fix                 2 water momentum 10 linear 1 1 1 rescale
fix                 3 all nve
fix                 4 water temp/csvr ${START_TEMP} ${START_TEMP} 500.0 928347
fix                 4 water temp/csvr 240 ${START_TEMP} 500.0 928347
fix                 4 water temp/csvr 240 240 500.0 928347

# Run 0.05 ns equilibration
#
dump                1 all custom 100 ${DIR}/eq.${NAME}.dump id type x y z vx vy vz
dump                1 all custom 100 run_8/eq.${NAME}.dump id type x y z vx vy vz
dump                1 all custom 100 run_8/eq.ibeam_cooling_8.dump id type x y z vx vy vz
run                 10000
Neighbor list info ...
  update every 1 steps, delay 0 steps, check yes
  max neighbors/atom: 2000, page size: 100000
  master list distance cutoff = 6.67472
  ghost atom cutoff = 6.67472
  binsize = 3.33736, bins = 48 13 11
  1 neighbor lists, perpetual/occasional/extra = 1 0 0
  (1) pair sw, perpetual
      attributes: full, newton on
      pair build: full/bin/atomonly
      stencil: full/bin/3d
      bin: standard
Per MPI rank memory allocation (min/avg/max) = 0.4647 | 3.681 | 4.743 Mbytes
Step c_2 Press Volume TotEng KinEng PotEng c_1[4] Density 
       0          240   -299.33439    216009.12   -18704.344    1395.7345   -20100.079            0   0.94393226 
     100    235.78326   -224.51042    216009.12   -18718.607    1371.2118   -20089.819    0.7580296   0.94393226 
     200    238.49273   -354.76562    216009.12   -18768.339    1386.9689   -20155.308    1.1513343   0.94393226 
     300    236.71307   -470.76736    216009.12   -18737.623    1376.6191   -20114.242    1.4090769   0.94393226 
     400    238.63206   -306.15153    216009.12   -18760.605    1387.7791   -20148.384     1.851538   0.94393226 
     500     242.0711   -302.32539    216009.12   -18738.539    1407.7791   -20146.318    2.1563143   0.94393226 
     600    244.24632   -179.43338    216009.12   -18664.937    1420.4292   -20085.366     2.510533   0.94393226 
     700    245.05715   -197.05652    216009.12   -18658.921    1425.1447   -20084.065    2.7498389   0.94393226 
     800    247.34826   -291.69511    216009.12   -18637.082    1438.4687   -20075.551    3.1369336   0.94393226 
     900    235.82174   -465.82982    216009.12   -18672.503    1371.4356   -20043.939     3.583825   0.94393226 
    1000    238.84775   -293.81358    216009.12    -18709.22    1389.0335   -20098.254    3.8998893   0.94393226 
    1100    245.68594   -353.38437    216009.12   -18683.892    1428.8015   -20112.693    4.0283222   0.94393226 
    1200    239.42049   -200.57193    216009.12   -18673.155    1392.3643   -20065.519    4.2912066   0.94393226 
    1300    246.21594   -306.02177    216009.12   -18646.595    1431.8837   -20078.478    4.5589485   0.94393226 
    1400    240.98194   -303.61431    216009.12   -18675.762     1401.445   -20077.207    4.8409538   0.94393226 
    1500    234.51798   -366.91192    216009.12    -18691.12    1363.8535   -20054.974    5.1511756   0.94393226 
    1600     241.3991   -306.52609    216009.12    -18667.36     1403.871   -20071.231    5.4215515   0.94393226 
    1700    237.81608   -312.14073    216009.12   -18669.248    1383.0338   -20052.282    5.6814966   0.94393226 
    1800     238.9761   -380.21779    216009.12   -18642.198    1389.7799   -20031.977    5.9182576   0.94393226 
    1900    245.95639   -361.81099    216009.12   -18608.762    1430.3742   -20039.137    6.2592438   0.94393226 
    2000    248.76934   -408.60574    216009.12   -18585.809    1446.7331   -20032.542    6.7826461   0.94393226 
    2100    239.48833   -164.78262    216009.12   -18675.687    1392.7588   -20068.446    7.3584572   0.94393226 
    2200    232.53919   -323.51349    216009.12   -18650.552    1352.3457   -20002.898    7.6166257   0.94393226 
    2300    244.06892   -388.44291    216009.12   -18620.874    1419.3975   -20040.271    8.0302331   0.94393226 
    2400    242.71302    -440.7883    216009.12   -18612.235    1411.5122   -20023.747     8.480741   0.94393226 
    2500    241.97813   -274.12656    216009.12   -18643.139    1407.2384   -20050.377    8.8184138   0.94393226 
    2600    234.98813   -230.36773    216009.12    -18628.47    1366.5877   -19995.058    9.4665792   0.94393226 
    2700    244.42779   -328.76233    216009.12   -18618.302    1421.4846   -20039.786    9.9178461   0.94393226 
    2800    242.83251   -268.40613    216009.12   -18571.242    1412.2071   -19983.449    10.370788   0.94393226 
    2900    241.54457   -353.13142    216009.12   -18577.936     1404.717   -19982.653    10.823986   0.94393226 
    3000    247.65297   -243.87743    216009.12   -18578.337    1440.2408   -20018.578    11.047826   0.94393226 
    3100    249.57367   -299.89773    216009.12   -18582.607    1451.4108   -20034.018     11.39684   0.94393226 
    3200    242.31118   -204.43147    216009.12   -18643.243    1409.1753   -20052.419    11.612656   0.94393226 
    3300    226.23058   -311.00374    216009.12   -18717.119    1315.6576   -20032.776    11.958309   0.94393226 
    3400    239.79952   -348.06447    216009.12   -18669.774    1394.5686   -20064.342    12.432192   0.94393226 
    3500    236.03875   -322.08515    216009.12   -18655.206    1372.6976   -20027.904    12.576694   0.94393226 
    3600    238.76114    -183.1729    216009.12   -18646.251    1388.5298   -20034.781    13.123492   0.94393226 
    3700    244.04509   -250.24102    216009.12   -18642.226     1419.259   -20061.485    13.679303   0.94393226 
    3800    245.30437   -273.37206    216009.12   -18631.881    1426.5824   -20058.463    13.800635   0.94393226 
    3900    237.64805   -335.62416    216009.12   -18631.927    1382.0566   -20013.983    13.962106   0.94393226 
    4000    237.27233   -307.55224    216009.12   -18666.951    1379.8716   -20046.823    14.025912   0.94393226 
    4100    236.71721   -443.78186    216009.12   -18649.595    1376.6433   -20026.239    14.260692   0.94393226 
    4200    242.98165   -188.47819    216009.12   -18628.087    1413.0744   -20041.161     14.63287   0.94393226 
    4300    235.54044   -312.52971    216009.12    -18680.21    1369.7997   -20050.009    15.320547   0.94393226 
    4400    235.00925   -412.49329    216009.12   -18652.363    1366.7105   -20019.073     15.97728   0.94393226 
    4500    237.00797   -279.29609    216009.12   -18688.108    1378.3341   -20066.442    16.358358   0.94393226 
    4600    230.35038   -406.48942    216009.12   -18738.396    1339.6166   -20078.013    16.795454   0.94393226 
    4700    242.80095   -361.26847    216009.12   -18653.006    1412.0236    -20065.03    17.312006   0.94393226 
    4800    241.23161   -345.33547    216009.12   -18617.755     1402.897   -20020.652    17.923942   0.94393226 
    4900    239.19736    -374.9447    216009.12   -18572.415    1391.0667   -19963.482    18.706747   0.94393226 
    5000     234.2577   -225.14042    216009.12   -18611.749    1362.3398   -19974.089    19.330915   0.94393226 
    5100    251.22384   -368.77921    216009.12     -18597.9    1461.0074   -20058.907    19.893574   0.94393226 
    5200    235.90893   -342.04977    216009.12   -18630.782    1371.9426   -20002.724    20.369787   0.94393226 
    5300    235.54924    -432.2069    216009.12   -18684.644    1369.8508   -20054.495    20.464035   0.94393226 
    5400    244.61007   -482.61901    216009.12    -18671.86    1422.5446   -20094.405     20.65199   0.94393226 
    5500     236.0108   -204.33563    216009.12   -18663.499     1372.535   -20036.034    20.822324   0.94393226 
    5600    232.94002   -171.67278    216009.12   -18694.986    1354.6767   -20049.663    20.807111   0.94393226 
    5700    244.42846   -288.82784    216009.12   -18656.164    1421.4885   -20077.652    20.787605   0.94393226 
    5800    240.48351   -301.93298    216009.12   -18646.167    1398.5464   -20044.713    20.931698   0.94393226 
    5900    235.57729   -299.99997    216009.12   -18671.566     1370.014    -20041.58     21.39398   0.94393226 
    6000    239.00774   -314.87933    216009.12   -18680.869    1389.9639   -20070.833    21.533174   0.94393226 
    6100    238.58903   -319.60567    216009.12   -18704.052    1387.5289   -20091.581    21.893679   0.94393226 
    6200    237.02113   -247.56621    216009.12   -18692.635    1378.4107   -20071.045    21.993706   0.94393226 
    6300     244.2436   -323.22129    216009.12   -18634.933    1420.4134   -20055.347    22.304201   0.94393226 
    6400     235.5599   -458.28963    216009.12   -18665.002    1369.9128   -20034.915    22.409601   0.94393226 
    6500    233.82402   -172.22535    216009.12   -18670.875    1359.8177   -20030.692    22.711634   0.94393226 
    6600    236.76891    -192.5611    216009.12    -18701.85    1376.9439   -20078.794    22.811453   0.94393226 
    6700    239.90487    -307.3808    216009.12   -18717.093    1395.1813   -20112.275    22.795399   0.94393226 
    6800    235.85106   -367.23071    216009.12   -18698.497    1371.6061   -20070.104    23.400038   0.94393226 
    6900    235.65485   -455.59025    216009.12   -18658.536     1370.465   -20029.001    23.803919   0.94393226 
    7000     239.0482   -323.24822    216009.12   -18645.474    1390.1993   -20035.673    24.364931   0.94393226 
    7100    238.84297   -199.61032    216009.12   -18657.387    1389.0057   -20046.393    25.099535   0.94393226 
    7200     235.6813   -158.43467    216009.12   -18710.707    1370.6188   -20081.325    25.525109   0.94393226 
    7300    235.18215   -157.33255    216009.12   -18725.886     1367.716   -20093.602    25.879302   0.94393226 
    7400    236.26521   -337.95738    216009.12   -18693.066    1374.0146   -20067.081    26.346282   0.94393226 
    7500    240.63247   -373.45801    216009.12   -18671.378    1399.4126   -20070.791    26.549361   0.94393226 
    7600    245.82626    -380.5328    216009.12   -18635.001    1429.6175   -20064.619    26.885029   0.94393226 
    7700    237.33385   -266.52588    216009.12   -18636.009    1380.2293   -20016.238    27.233119   0.94393226 
    7800    238.30953   -247.64997    216009.12   -18700.982    1385.9035   -20086.885    27.686772   0.94393226 
    7900     231.6385   -329.31889    216009.12   -18666.031    1347.1077   -20013.139    28.127112   0.94393226 
    8000     240.2746   -246.18593    216009.12   -18617.531    1397.3315   -20014.862    28.691798   0.94393226 
    8100    246.97742    -185.1649    216009.12   -18612.841    1436.3121   -20049.153     29.11064   0.94393226 
    8200    240.13218   -355.87344    216009.12   -18615.805    1396.5032   -20012.308    29.510095   0.94393226 
    8300    237.45518   -278.67636    216009.12   -18569.106    1380.9349   -19950.041    29.769027   0.94393226 
    8400    247.82245   -226.48693    216009.12   -18559.527    1441.2264   -20000.753    30.004549   0.94393226 
    8500    239.00932   -123.17909    216009.12   -18605.063    1389.9732   -19995.036    30.546088   0.94393226 
    8600    240.10802   -360.22181    216009.12   -18633.066    1396.3627   -20029.429    30.663298   0.94393226 
    8700    234.46432    -273.8981    216009.12   -18661.035    1363.5414   -20024.576    30.811552   0.94393226 
    8800    238.92532   -196.45763    216009.12   -18656.159    1389.4846   -20045.643     31.08301   0.94393226 
    8900    237.87293   -209.67976    216009.12   -18697.376    1383.3644   -20080.741    31.371291   0.94393226 
    9000    233.13838   -302.10112    216009.12   -18661.998    1355.8303   -20017.828    31.622909   0.94393226 
    9100    234.69039    -436.3436    216009.12   -18671.324    1364.8561    -20036.18    31.290894   0.94393226 
    9200    244.87418   -336.06523    216009.12   -18629.761    1424.0806   -20053.842    31.813614   0.94393226 
    9300    239.25619   -101.24346    216009.12   -18693.978    1391.4088   -20085.386    32.125816   0.94393226 
    9400    240.06113   -306.23129    216009.12   -18679.897      1396.09   -20075.987    32.494655   0.94393226 
    9500     237.1089   -476.29343    216009.12   -18702.981    1378.9211   -20081.902    32.923614   0.94393226 
    9600    237.28869   -392.37695    216009.12   -18715.563    1379.9667   -20095.529    33.357784   0.94393226 
    9700    237.14949   -360.52924    216009.12   -18687.034    1379.1572   -20066.192    33.345756   0.94393226 
    9800    244.20912   -352.72107    216009.12   -18633.948    1420.2129   -20054.161    33.667897   0.94393226 
    9900    236.75439   -322.12728    216009.12   -18648.556    1376.8595   -20025.416    34.055787   0.94393226 
   10000    239.61147   -281.63763    216009.12    -18652.11     1393.475   -20045.585    34.340605   0.94393226 
Loop time of 14.7283 on 160 procs for 10000 steps with 9248 atoms

Performance: 293.312 ns/day, 0.082 hours/ns, 678.964 timesteps/s
97.7% CPU use with 160 MPI tasks x no OpenMP threads

MPI task timing breakdown:
Section |  min time  |  avg time  |  max time  |%varavg| %total
---------------------------------------------------------------
Pair    | 0.00046134 | 2.9882     | 12.133     | 238.2 | 20.29
Neigh   | 0.00034547 | 0.094928   | 0.36036    |  39.2 |  0.64
Comm    | 0.014085   | 3.6073     | 11.793     | 221.3 | 24.49
Output  | 0.17631    | 0.1765     | 0.18345    |   0.1 |  1.20
Modify  | 0.33547    | 7.7146     | 14.403     | 222.8 | 52.38
Other   |            | 0.1468     |            |       |  1.00

Nlocal:    57.8 ave 196 max 0 min
Histogram: 72 20 28 0 0 0 0 0 13 27
Nghost:    535.7 ave 931 max 0 min
Histogram: 24 0 0 8 8 44 28 16 23 9
Neighs:    0 ave 0 max 0 min
Histogram: 160 0 0 0 0 0 0 0 0 0
FullNghs:  5914.77 ave 23654 max 0 min
Histogram: 102 18 0 0 0 0 0 2 19 19

Total # of neighbors = 946364
Ave neighs/atom = 102.332
Neighbor list builds = 568
Dangerous builds = 0
write_data 	    ${DIR}/data.${NAME}_eq
write_data 	    run_8/data.${NAME}_eq
write_data 	    run_8/data.ibeam_cooling_8_eq

undump              1
unfix               4



################################################
#######         Run Simulation         #########
################################################

reset_timestep      0
timestep	    10.0
log                 ${DIR}/log.run_${NAME}
log                 run_8/log.run_${NAME}
log                 run_8/log.run_ibeam_cooling_8
