
# Set production fixes - Nose/Hoover
#
fix                 4 water temp/csvr ${START_TEMP} ${END_TEMP} 500.0 928347
fix                 4 water temp/csvr 240 ${END_TEMP} 500.0 928347
fix                 4 water temp/csvr 240 227 500.0 928347


## divide "droplet" into core and surface
#region		core_reg cylinder z 135 135 44.6 20 INF units box
#region		surface_reg cylinder z 135 135 44.6 20 INF units box side out
#group		core dynamic all region core_reg
#group		surface dynamic all region surface_reg

## compute pressure core
#compute        peratom_core core stress/atom NULL
#compute        p_core core reduce sum c_peratom_core[1] c_peratom_core[2] c_peratom_core[3]
#variable       press_core equal -(c_p_core[1]+c_p_core[2]+c_p_core[3])/(3*1249982.5)


## compute pressure surface
#compute        peratom_surf surface stress/atom NULL
#compute        p_surf surface reduce sum c_peratom_surf[1] c_peratom_surf[2] #c_peratom_surf[3]
#variable       press_surf equal -(c_p_surf[1]+c_p_surf[2]+c_p_surf[3])/(3*42395)

## compute total pressure of drop
compute        peratom water stress/atom NULL
compute        p water reduce sum c_peratom[1] c_peratom[2] c_peratom[3]
variable       press equal -(c_p[1]+c_p[2]+c_p[3])/(3*50320)


# compute order parameter
compute        3 all orientorder/atom nnn NULL cutoff 3.5

# compute center of mass of bridge
compute 	4 water com

# Run simulation
thermo_style        custom step c_2 press vol etotal ke pe v_press c_1[4] c_4[*]
thermo              200
dump		     1 water custom 400 ${DIR}/prod.${NAME}.dump id type x y z vx vy vz c_3[*] c_peratom[*]
dump		     1 water custom 400 run_8/prod.${NAME}.dump id type x y z vx vy vz c_3[*] c_peratom[*]
dump		     1 water custom 400 run_8/prod.ibeam_cooling_8.dump id type x y z vx vy vz c_3[*] c_peratom[*]
run                 ${STEPS}
run                 5200000
Neighbor list info ...
  update every 1 steps, delay 0 steps, check yes
  max neighbors/atom: 2000, page size: 100000
  master list distance cutoff = 6.67472
  ghost atom cutoff = 6.67472
  binsize = 3.33736, bins = 48 13 11
  2 neighbor lists, perpetual/occasional/extra = 1 1 0
  (1) pair sw, perpetual
      attributes: full, newton on
      pair build: full/bin/atomonly
      stencil: full/bin/3d
      bin: standard
  (2) compute orientorder/atom, occasional, copy from (1)
      attributes: full, newton on
      pair build: copy
      stencil: none
      bin: none
Per MPI rank memory allocation (min/avg/max) = 0.8537 | 5.956 | 7.262 Mbytes
Step c_2 Press Volume TotEng KinEng PotEng v_press c_1[4] c_4[1] c_4[2] c_4[3] 
       0    239.61147   -281.63763    216009.12    -18652.11     1393.475   -20045.585   -601.82398    34.340605    78.747185    22.601807    25.534901 
     200    235.44988   -306.88129    216009.12   -18707.905     1369.273   -20077.178   -717.06588     36.03001    78.746973    22.603099     25.53431 
     400    231.94549   -200.41554    216009.12   -18661.237     1348.893    -20010.13   -211.49924    37.625581     78.74728    22.605231    25.543033 
     600    240.14312   -314.06219    216009.12   -18509.053    1396.5668   -19905.619   -717.70098    39.643864    78.748355    22.606337       25.518 
     800    239.36782    -398.6902    216009.12   -18514.261     1392.058   -19906.319   -1083.5169    41.197311    78.748168    22.607301    25.516919 
    1000     236.2923   -319.48857    216009.12   -18609.758    1374.1722    -19983.93   -779.76112    42.156323    78.748375    22.605921    25.510102 
    1200     243.7085    -324.4747    216009.12   -18595.464    1417.3015   -20012.766   -769.60847    43.730065    78.748796    22.604316    25.501121 
    1400    243.73913   -219.08474    216009.12   -18594.244    1417.4796   -20011.724   -329.49687    45.556878    78.750752    22.602472    25.503894 
    1600    238.99627   -133.58153    216009.12   -18583.201    1389.8972   -19973.099    35.552447    47.765098    78.750191    22.602576    25.501731 
    1800    244.07738    -298.0487    216009.12   -18554.909    1419.4467   -19974.356   -632.93111    48.582896    78.752121    22.604328    25.517327 
    2000    246.92071   -264.49634    216009.12   -18513.318    1435.9823     -19949.3   -535.86386    50.387699    78.752987    22.603205    25.503859 
    2200    233.64033   -248.89097    216009.12   -18566.977    1358.7495   -19925.727   -479.00619    51.315421    78.753152    22.603481    25.510754 
    2400    244.42237     -268.912    216009.12   -18550.325    1421.4531   -19971.778   -586.79668    53.398601    78.753079    22.602701     25.51916 
    2600    236.30834   -458.59917    216009.12   -18543.436    1374.2654   -19917.701   -1381.4848    55.311636    78.754483    22.601548    25.516469 
    2800    247.78313   -289.20947    216009.12   -18522.036    1440.9978   -19963.034   -652.61231    55.707032    78.756829    22.602106     25.52293 
    3000    242.90107   -222.49496    216009.12   -18535.931    1412.6059   -19948.536   -390.67649    56.736551    78.756798    22.602429    25.539998 
    3200    238.10819   -317.04366    216009.12   -18644.022    1384.7326   -20028.755   -771.41167    57.573793    78.757854    22.603586    25.558181 
    3400    239.03316   -116.11809    216009.12   -18654.107    1390.1118   -20044.219    98.378656    58.304806    78.758113    22.603995    25.555576 
    3600    244.34547   -234.92901    216009.12   -18626.505    1421.0059   -20047.511   -396.52074    59.191624    78.758932    22.606309    25.585095 
    3800    243.55289   -245.00219    216009.12   -18578.304    1416.3965     -19994.7   -461.48671    60.738187    78.759105    22.607376     25.56571 
    4000    237.68242   -266.19224    216009.12   -18647.557    1382.2565   -20029.814   -553.10073    61.718994    78.757817    22.610121     25.55731 
    4200    238.87618   -351.41426    216009.12   -18591.945    1389.1989   -19981.144   -952.67127    63.539008    78.756172      22.6088     25.55158 
    4400    237.71102   -401.43895    216009.12   -18606.385    1382.4228   -19988.808    -1163.939    63.956635    78.755165     22.60582    25.537886 
    4600     232.1022   -249.09375    216009.12   -18692.009    1349.8043   -20041.813   -476.64705    65.450466    78.756559    22.605706    25.512577 
    4800    240.38493   -357.92241    216009.12   -18567.254    1397.9731   -19965.227   -940.18463    67.076751    78.758117    22.607643    25.517759 
    5000    240.13208    -496.2785    216009.12   -18604.105    1396.5026   -20000.607    -1524.468    68.527181    78.755002    22.607879    25.513989 
    5200    234.71707   -386.35843    216009.12   -18581.277    1365.0113   -19946.288   -1072.6022    69.338087    78.754413     22.60649    25.510505 
    5400    240.04834   -136.73392    216009.12   -18591.538    1396.0156   -19987.554   -76.855347    70.978401    78.755109    22.605394    25.531497 
    5600    233.29485   -384.52806    216009.12   -18641.186    1356.7403   -19997.926   -1034.1869    71.799983    78.754293    22.606559    25.527549 
    5800    239.94582   -192.41379    216009.12   -18591.275    1395.4194   -19986.695   -270.92614    73.488038    78.755917      22.6048    25.539882 
    6000    237.67236   -287.19605    216009.12   -18622.459     1382.198   -20004.657   -602.91764    75.134736     78.75678    22.604653    25.553247 
    6200    234.47255   -273.98961    216009.12   -18614.532    1363.5893   -19978.121   -578.80093    76.943345    78.757688    22.606481    25.550975 
    6400    238.45813   -404.49596    216009.12   -18591.112    1386.7676    -19977.88   -1176.1105    78.013473    78.759986    22.603906    25.556162 
    6600    239.11594   -310.20347    216009.12    -18624.63    1390.5932   -20015.223   -745.74995    80.273421    78.761893    22.606494    25.557038 
    6800    236.79795    -353.0862    216009.12   -18618.839    1377.1128   -19995.952   -929.62672    81.148789    78.762976    22.606741    25.558063 
    7000    238.42681   -330.54259    216009.12   -18577.885    1386.5855   -19964.471   -854.89737    81.985718    78.764421    22.606107    25.545948 
    7200    234.76819   -398.80349    216009.12   -18673.609    1365.3086   -20038.917   -1122.1507    84.822973    78.766502    22.606047    25.547206 
    7400    238.22092    -203.5425    216009.12   -18624.336    1385.3881   -20009.724   -295.13922    86.523643    78.768522    22.606517    25.546989 
    7600    245.90782    -248.5316    216009.12    -18574.12    1430.0918   -20004.211   -495.39224    87.729109    78.768358    22.605905    25.536592 
    7800    236.37118    -400.5902    216009.12   -18676.341    1374.6309   -20050.972    -1119.256    89.022532    78.767544     22.60666    25.522286 
    8000    247.42789    -266.7072    216009.12   -18570.362    1438.9318   -20009.294   -531.84988    90.361406     78.76451    22.606995    25.509112 
    8200     238.1852   -266.66065    216009.12   -18616.499    1385.1804    -20001.68    -579.1735    91.571563    78.761743    22.606369    25.507054 
    8400    235.84308   -351.56159    216009.12   -18535.332    1371.5597   -19906.892   -913.04083    92.638705    78.760618    22.603808    25.486518 
    8600    244.32153   -315.53615    216009.12   -18584.306    1420.8666   -20005.173   -798.19228    94.320566    78.759307    22.602997    25.464423 
    8800    237.22043   -225.27993    216009.12   -18603.426    1379.5697   -19982.996   -360.51082    96.803175    78.757373    22.601702    25.472942 
    9000    241.77064   -363.49454    216009.12   -18593.369    1406.0318   -19999.401   -922.72155    99.618043    78.754127     22.60043    25.495145 
    9200    244.86337   -236.10471    216009.12   -18554.008    1424.0177   -19978.026   -462.33194    100.23913    78.751971     22.59852    25.508128 
    9400    241.37365   -135.54156    216009.12   -18594.296    1403.7231   -19998.019    18.912177    102.49289     78.75215    22.597111    25.507013 
    9600    238.20772   -415.25863    216009.12   -18644.157    1385.3114   -20029.468   -1202.8067    103.87835    78.749754     22.59747    25.529548 
    9800    240.48873   -364.56989    216009.12   -18552.663    1398.5767    -19951.24   -1033.6794    105.46828    78.749968    22.594087    25.521341 
   10000    236.04554   -222.10957    216009.12   -18614.589    1372.7371   -19987.326   -388.91605    106.85693    78.747532    22.594314    25.531146 
   10200    238.26342   -299.09147    216009.12   -18500.921    1385.6353   -19886.556   -726.56554    108.57748    78.744111    22.592851    25.520805 
   10400    243.89817   -402.49335    216009.12   -18513.257    1418.4046   -19931.662   -1169.9049    109.32246    78.745059       22.591    25.538407 
   10600    237.42209   -302.68088    216009.12   -18633.733    1380.7425   -20014.476   -765.90719    111.36223    78.747349    22.590261    25.556178 
   10800    235.66153   -286.12013    216009.12   -18673.899    1370.5039   -20044.403   -597.57767    111.77614     78.74627    22.590275    25.571928 
   11000    234.90683   -301.55771    216009.12   -18677.278    1366.1149   -20043.393   -772.93351     112.8335    78.746051    22.591219    25.559553 
   11200    239.29994   -400.32244    216009.12   -18644.823    1391.6633   -20036.487   -1095.4705    114.17499    78.746163    22.589837    25.532261 
   11400    238.63057   -302.46584    216009.12   -18612.431    1387.7705   -20000.201   -703.78755    114.50685    78.747173    22.587296    25.521306 
   11600    243.33224   -368.81722    216009.12   -18522.808    1415.1133   -19937.921   -980.51258    115.35369    78.749261    22.587638     25.50844 
   11800    241.81776   -293.98246    216009.12   -18510.205    1406.3058   -19916.511   -700.73774    116.37813    78.750044    22.590183    25.516831 
   12000    244.29398   -485.14873    216009.12   -18526.134    1420.7064   -19946.841   -1497.2818     116.5517    78.747182    22.589613    25.495221 
   12200    242.93975   -268.71735    216009.12   -18563.208    1412.8308   -19976.039   -578.92609    117.46307    78.745399    22.588682    25.499293 
   12400    241.19074    -316.4996    216009.12   -18590.283    1402.6593   -19992.942   -755.72795    118.41906    78.745523    22.587904    25.483453 
   12600    243.73574   -242.19207    216009.12   -18529.132    1417.4599   -19946.592   -495.08009    119.89447    78.744715    22.589437    25.486961 
   12800    236.61841   -276.96602    216009.12   -18532.304    1376.0687   -19908.373   -590.54288    121.67427    78.744666    22.588556    25.509885 
   13000    232.96639   -325.31241    216009.12   -18572.934    1354.8301   -19927.764   -798.42002    124.09103    78.743478    22.589289    25.500964 
   13200    241.42866   -342.90558    216009.12   -18576.939     1404.043   -19980.982   -932.14486    126.56782    78.741456    22.591042      25.5086 
   13400    235.65515   -453.43915    216009.12   -18633.951    1370.4668   -20004.418   -1381.9649    128.45722    78.740936    22.592524    25.502384 
   13600    234.08076   -431.97749    216009.12   -18581.978    1361.3108   -19943.289   -1261.3995    130.42586    78.742223    22.593809    25.494824 
   13800    243.02082    -216.8088    216009.12   -18522.701    1413.3023   -19936.003   -305.09416    131.64236    78.742087    22.593848    25.515434 
   14000    239.45784   -256.62081    216009.12   -18490.338    1392.5815    -19882.92   -585.36759    133.72339    78.743347    22.594388    25.516095 
   14200    240.62851   -346.89708    216009.12   -18554.013    1399.3897   -19953.403   -875.29589     135.2116    78.744065    22.592395    25.524405 
   14400    237.91896   -111.71293    216009.12   -18617.092    1383.6321   -20000.725      91.3397    136.01276     78.74113    22.592612    25.527211 
   14600    238.54985    -261.2203    216009.12   -18592.583     1387.301   -19979.884   -521.97688    137.81988    78.741534    22.592313    25.549042 
   14800     237.8491   -353.25386    216009.12   -18552.999    1383.2258   -19936.224   -927.86236    139.08561    78.741322    22.594079      25.5723 
   15000    238.54354   -433.76665    216009.12   -18587.144    1387.2643   -19974.408   -1254.0351    141.57812    78.742367    22.593844    25.572827 
   15200    244.95664   -472.08908    216009.12   -18525.798    1424.5601   -19950.358    -1483.496    142.66908    78.741404    22.593089     25.58275 
   15400     234.1144   -220.92646    216009.12   -18583.766    1361.5065   -19945.273   -411.12502    143.48123    78.741198    22.592001     25.60156 
   15600    246.22984   -387.48362    216009.12   -18440.708    1431.9645   -19872.673   -1075.3351    146.37886    78.741502    22.594602    25.603632 
   15800    240.90959   -281.05596    216009.12   -18481.875    1401.0243     -19882.9   -640.44628    146.79117    78.740537    22.599234    25.589386 
   16000    240.00663   -341.05289    216009.12   -18515.515    1395.7731   -19911.288   -883.84704    148.10877     78.74075    22.596309    25.582751 
   16200     240.8264   -374.74189    216009.12   -18514.427    1400.5405   -19914.967   -1032.2289       149.63    78.737369    22.597186    25.560422 
   16400    240.14617   -279.91971    216009.12   -18563.839    1396.5845   -19960.424   -619.98326    150.11361     78.73817    22.595936    25.543481 
   16600    245.16709   -313.53569    216009.12   -18508.963     1425.784   -19934.747   -738.76959     152.5199    78.736439    22.599478    25.562563 
   16800     248.2048   -357.12468    216009.12   -18528.088      1443.45   -19971.539   -916.18729    154.78064    78.737043    22.601544    25.561105 
   17000    231.73607   -371.86732    216009.12   -18580.808    1347.6751   -19928.484   -998.71544    156.32587    78.734554    22.603636    25.568754 
   17200    231.12231   -293.20757    216009.12   -18614.751    1344.1058   -19958.857   -645.43843    157.05511    78.737013    22.603974    25.576493 
   17400    234.91422      -293.77    216009.12   -18686.994    1366.1579   -20053.152   -666.99611    157.61394     78.73684    22.603147    25.593626 
   17600     236.4865    -267.7069    216009.12   -18634.206    1375.3015   -20009.507   -568.69376    159.04143    78.735382    22.602309    25.592437 
   17800     239.4735   -413.17563    216009.12   -18628.172    1392.6726   -20020.845   -1179.9908    159.83339    78.735621    22.601695    25.581783 
   18000     239.8299   -320.19037    216009.12   -18581.419    1394.7453   -19976.165   -843.53006    161.11789    78.736667    22.604648    25.575354 
   18200    238.21294   -362.52054    216009.12   -18617.636    1385.3418   -20002.977   -971.28306    162.57833    78.737712     22.60667    25.570206 
   18400    238.04521    -268.4453    216009.12   -18605.659    1384.3663   -19990.026   -571.75009    163.87147    78.736965    22.607129    25.561202 
   18600    239.06398   -413.79477    216009.12   -18586.689     1390.291   -19976.981   -1174.5631    164.84698    78.735818     22.60978    25.573289 
   18800     240.4078   -273.48092    216009.12   -18606.232    1398.1061   -20004.338   -602.84742    166.51878    78.735816    22.610789    25.578168 
   19000    242.00807   -366.23539    216009.12   -18537.033    1407.4126   -19944.445   -1035.7004    168.01085    78.735416    22.608741    25.577299 
   19200    244.42748   -299.89441    216009.12   -18541.516    1421.4828   -19962.999   -685.81481    168.40651    78.734902    22.607648    25.552719 
   19400    244.72363   -369.91393    216009.12   -18482.386    1423.2051   -19905.591   -997.37797    171.83707    78.735047    22.607131    25.553071 
   19600    246.56051   -379.09993    216009.12    -18540.37    1433.8875   -19974.257   -1026.2124    171.97345    78.734036    22.608301    25.552854 
   19800    244.23277   -395.03192    216009.12   -18559.979    1420.3504    -19980.33   -1099.6095    174.21148    78.734251    22.607694     25.55013 
   20000    240.88884   -180.19758    216009.12   -18589.208    1400.9036   -19990.112   -234.71453    175.03431    78.734317    22.610177    25.556464 
   20200    237.32165   -316.01233    216009.12   -18651.187    1380.1584   -20031.346    -758.3691     176.5365    78.735856    22.613027    25.557943 
   20400    250.93722   -243.06698    216009.12   -18575.036    1459.3406   -20034.377   -444.38879    178.12248    78.737756    22.616469    25.543149 
   20600    239.07711   -148.61941    216009.12    -18651.47    1390.3674   -20041.838   -73.633332    179.73156    78.738979    22.616945    25.518114 
   20800    243.42361   -398.73415    216009.12   -18587.376    1415.6447    -20003.02    -1096.553    182.08982    78.739851    22.618405    25.523621 
   21000    237.19004   -213.29674    216009.12    -18621.11     1379.393   -20000.503   -347.64106    183.94499    78.738488    22.618861    25.523574 
   21200    240.75241   -249.44707    216009.12   -18556.428    1400.1102   -19956.538   -481.50975    184.90766    78.738596    22.617314    25.538516 
   21400    238.77799   -334.63908    216009.12   -18583.448    1388.6278   -19972.076   -867.58541    187.19369    78.737535    22.617088    25.546694 
   21600    243.04994   -322.02323    216009.12   -18510.308    1413.4716    -19923.78   -754.79725    188.13446    78.737012    22.614288    25.533683 
   21800    240.88763   -119.28067    216009.12   -18632.396    1400.8966   -20033.293    63.545791    188.55366    78.738255    22.615683    25.541879 
   22000    239.80374   -213.42823    216009.12   -18666.408    1394.5931   -20061.001   -347.48175    189.61182    78.738073    22.614924    25.532587 
   22200    237.95933   -235.34909    216009.12    -18720.78    1383.8668   -20104.646   -419.78619    190.57714    78.736825    22.615579    25.538342 
   22400    242.33176   -288.56446    216009.12   -18587.399     1409.295   -19996.694    -654.6365    191.30263    78.737315    22.614836    25.524193 
   22600    248.04142   -343.13333    216009.12   -18589.756    1442.4998   -20032.256    -927.6902    190.99039    78.736935    22.615401    25.510976 
   22800    245.52184   -327.50145    216009.12   -18552.771    1427.8471   -19980.618    -825.0056    192.85567    78.738958    22.615857    25.516035 
   23000    232.39305   -323.13971    216009.12   -18621.359    1351.4958   -19972.854   -853.55685    195.12972    78.740298     22.61789    25.532025 
   23200    253.26793   -232.58837    216009.12   -18572.034     1472.895   -20044.929   -419.36079    195.28803    78.742755    22.619728    25.534634 
   23400    238.49777   -258.15356    216009.12   -18622.375    1386.9982   -20009.374   -496.04076    195.31707    78.744011    22.623316    25.532664 
   23600    240.22244   -332.74429    216009.12   -18549.569    1397.0281   -19946.597   -829.49486    196.77441    78.745129    22.623117    25.539088 
   23800    241.12702   -229.92324    216009.12   -18563.791    1402.2887    -19966.08   -400.78907       198.35    78.745405    22.623959    25.537259 
   24000    240.61874   -159.36023    216009.12   -18580.336    1399.3328   -19979.669   -75.581882    199.85492    78.745758    22.622764    25.525656 
   24200    238.38143   -157.29894    216009.12   -18586.954    1386.3216   -19973.276   -120.78189    200.48021    78.745216    22.623749    25.543613 
   24400    237.94162   -414.35946    216009.12     -18646.1    1383.7639   -20029.864   -1183.7808    202.60958    78.746069      22.6233    25.545492 
   24600    232.94524   -407.16791    216009.12   -18688.893    1354.7071     -20043.6   -1180.2568    203.53646    78.747543    22.622306    25.551498 
   24800     241.8827   -402.89775    216009.12   -18647.496    1406.6834   -20054.179   -1106.0612    204.52233    78.746852    22.622088    25.537683 
   25000    239.73806   -435.02195    216009.12   -18642.854    1394.2111   -20037.065   -1283.9402    206.92165    78.747348    22.622379    25.541382 
   25200    237.08571   -198.95038    216009.12    -18741.45    1378.7863   -20120.236   -306.85804    208.27749    78.748902    22.621854    25.507111 
   25400    239.50507     -434.612    216009.12   -18653.319    1392.8562   -20046.175   -1268.1686    208.55091    78.748466     22.62374     25.52412 
   25600    245.72295   -221.42521    216009.12   -18487.949    1429.0167   -19916.966    -361.9693    208.49114    78.747731    22.623068    25.543821 
   25800     243.5105   -313.98754    216009.12   -18534.995      1416.15   -19951.145   -819.15741    211.15549    78.746999    22.622568    25.553505 
   26000    234.71672    -414.4339    216009.12   -18532.896    1365.0093   -19897.906   -1192.5116    213.06067    78.746982    22.622088    25.576228 
   26200    237.29107   -304.11818    216009.12   -18555.349    1379.9806    -19935.33   -742.43041    213.34287    78.746783    22.623135    25.576707 
   26400    243.26599   -182.08443    216009.12    -18624.25    1414.7281   -20038.978    -200.5638    214.53381    78.747092    22.622459    25.594718 
   26600    240.64811   -214.68558    216009.12   -18516.419    1399.5036   -19915.923   -360.75784    216.40064    78.746079    22.619756    25.587442 
   26800    238.71973   -315.73138    216009.12   -18537.637     1388.289   -19925.927   -784.07352    217.33577    78.747169    22.620687    25.577391 
   27000    251.25747   -112.92505    216009.12    -18471.49     1461.203   -19932.693    124.12964    218.74198    78.750137    22.620301    25.568521 
   27200     244.3814   -189.85617    216009.12   -18553.122    1421.2148   -19974.336   -202.02766     219.7492    78.749621    22.620928     25.55919 
   27400    244.87014   -418.55107    216009.12   -18524.014    1424.0571   -19948.071   -1217.1106    221.12431    78.748039    22.622797    25.562309 
   27600    231.23798   -325.19278    216009.12   -18686.204    1344.7785   -20030.983   -798.90947    221.61175    78.746543    22.623809    25.553531 
   27800    246.02356   -237.14023    216009.12   -18568.193    1430.7649   -19998.958    -436.8229    224.00353     78.74628    22.623647    25.556106 
   28000    236.99091   -259.92791    216009.12   -18614.641    1378.2349   -19992.876    -513.7661     225.6467    78.746753    22.623552    25.571043 
   28200    243.79705   -346.30382    216009.12   -18570.524    1417.8165   -19988.341    -869.0913    224.89824    78.746812    22.621937    25.557305 
   28400    234.65725   -356.72312    216009.12    -18585.93    1364.6634   -19950.593   -938.17501     225.7704    78.746244    22.621961    25.553093 
   28600    241.74733   -171.02922    216009.12    -18557.81    1405.8962   -19963.706   -150.29499    226.29533    78.746672    22.623046     25.54657 
   28800    245.01393   -387.31321    216009.12   -18602.633    1424.8933   -20027.526   -1074.5846    228.02595    78.746605    22.621071    25.553643 
   29000    241.23446   -399.55134    216009.12   -18588.154    1402.9136   -19991.068   -1111.6669     228.8522    78.745835     22.61904    25.546333 
   29200    245.37314   -458.94494    216009.12   -18582.516    1426.9823   -20009.499   -1361.7908     230.3713    78.745701     22.62012     25.54118 
   29400    241.88757   -252.88727    216009.12   -18592.573    1406.7118   -19999.285   -503.24177    232.79014    78.745502    22.622076    25.536463 
   29600    236.95379   -357.08102    216009.12   -18589.153    1378.0191   -19967.172   -933.78662    234.44261    78.746234    22.622194    25.532742 
   29800    236.23646    -337.3918    216009.12   -18673.357    1373.8474   -20047.205   -850.62468    234.59004    78.745498    22.622805    25.517046 
   30000    234.43771   -313.99374    216009.12   -18685.771    1363.3867   -20049.157    -775.6567    237.59692    78.745185    22.623103    25.525525 
   30200    234.02039   -317.70175    216009.12   -18632.378    1360.9597   -19993.338   -802.78995    237.41413    78.746687    22.623257    25.525689 
   30400    236.22781   -278.21904    216009.12   -18634.552    1373.7971   -20008.349   -587.52003    238.47792    78.748833     22.62428    25.512913 
   30600    234.74448   -397.99571    216009.12   -18652.764    1365.1707   -20017.935   -1133.8273    240.80673     78.74871    22.626202    25.500083 
   30800    241.00637   -218.66517    216009.12   -18622.236    1401.5871   -20023.823   -383.70107    240.76168    78.746625    22.628782    25.481481 
   31000    241.71776   -447.83768    216009.12   -18619.915    1405.7242   -20025.639   -1320.4131    245.12227     78.74596     22.62891    25.463458 
   31200    239.08444   -341.45571    216009.12   -18624.101      1390.41   -20014.511   -902.83906    246.49989    78.741176    22.629732    25.470754 
   31400    242.32057   -357.25992    216009.12   -18628.874    1409.2299   -20038.104    -1003.978    248.34314    78.741426      22.6291     25.48741 
   31600    237.63056    -409.2959    216009.12   -18677.408    1381.9549   -20059.363   -1144.5813    248.59172    78.742715    22.625396    25.501361 
   31800    242.49752   -343.47884    216009.12    -18630.44     1410.259   -20040.699   -908.77024    248.39931    78.740721    22.626563    25.480618 
   32000    229.46358   -297.76775    216009.12   -18737.244    1334.4593   -20071.704   -720.89062    248.24945    78.741506    22.627215    25.504949 
   32200    241.91873   -232.54441    216009.12   -18695.257     1406.893    -20102.15   -430.55062    250.93399    78.741205    22.628368    25.513384 
   32400    241.09308   -315.32024    216009.12   -18688.231    1402.0914   -20090.323   -771.88821    251.86067    78.741133    22.627153    25.504884 
   32600    241.80681   -465.84711    216009.12    -18621.21    1406.2421   -20027.452   -1477.3331    254.63467    78.738517     22.62828    25.493441 
   32800    244.32525   -309.74367    216009.12   -18611.826    1420.8883   -20032.714   -727.16039    254.49937    78.740272    22.629124    25.512354 
   33000    241.89776   -293.47854    216009.12   -18578.026    1406.7711   -19984.797   -691.79891    254.75819    78.742417    22.627318    25.520133 
   33200     244.7601   -214.58703    216009.12   -18603.653    1423.4172    -20027.07   -359.44621     256.2862    78.738562    22.624916    25.495187 
   33400    237.23984   -329.99761    216009.12   -18674.692    1379.6826   -20054.374   -776.07538      257.478     78.74019    22.625205    25.496587 
   33600    237.13679   -266.73035    216009.12   -18713.944    1379.0833   -20093.027   -592.65188    259.04441    78.738964    22.623908    25.510945 
   33800     247.6348    -345.8622    216009.12   -18576.257    1440.1351   -20016.392   -895.57518    260.30064     78.73573    22.624562    25.515259 
   34000    235.61316   -364.60888    216009.12   -18660.062    1370.2226   -20030.284   -993.87547    260.90559    78.734699    22.623471    25.496038 
   34200    234.47568    -259.1626    216009.12   -18637.816    1363.6075   -20001.423   -522.65816    263.32683    78.736403    22.622863     25.50265 
   34400    243.64088   -316.11565    216009.12    -18682.08    1416.9083   -20098.988   -770.28346    264.78288    78.740234    22.621681    25.484475 
   34600    244.49684   -301.89837    216009.12   -18597.048    1421.8861   -20018.934   -724.95829    267.50052    78.740038    22.622124    25.481584 
   34800    231.36242   -499.08077    216009.12   -18653.567    1345.5021   -19999.069   -1550.1392    269.08189    78.740015    22.621874    25.498567 
   35000    239.74281   -366.18928    216009.12    -18639.14    1394.2388   -20033.379   -971.53322    270.92812    78.740737    22.621834    25.473939 
   35200    244.58059   -265.07686    216009.12   -18568.987    1422.3732    -19991.36   -589.31946    273.72624    78.740873    22.620761    25.486612 
   35400    241.94579   -406.44093    216009.12   -18620.996    1407.0503   -20028.047   -1176.4342    274.90664    78.737957    22.621271    25.500572 
   35600    244.26705   -259.09527    216009.12   -18658.431    1420.5498   -20078.981   -510.06524    274.72837    78.735238    22.622102    25.479698 
   35800    244.97723   -323.00016    216009.12   -18585.274    1424.6799   -20009.954   -803.54446    277.13142    78.736362    22.621615    25.479234 
   36000    233.42673   -477.95154    216009.12   -18647.279    1357.5072   -20004.786   -1472.4999    276.26435    78.737651    22.621418    25.462105 
   36200    240.14883   -277.25616    216009.12   -18634.874       1396.6   -20031.474   -612.98872    277.98961    78.735102    22.619889    25.454852 
   36400    245.21768   -392.25337    216009.12   -18598.435    1426.0782   -20024.513   -1134.7899    277.93982    78.731945    22.622977    25.461071 
   36600    234.20578   -312.38982    216009.12   -18575.112    1362.0379    -19937.15   -741.94635    281.60615    78.730338    22.622181    25.472282 
   36800    235.19923   -97.713675    216009.12   -18665.993    1367.8153   -20033.809    165.75744    283.38812    78.729108    22.624262    25.495187 
   37000    233.58551   -343.47252    216009.12    -18625.93    1358.4307    -19984.36   -925.24695    286.86707    78.732064    22.625255    25.483758 
   37200    236.06988   -229.48411    216009.12   -18657.192    1372.8787   -20030.071   -408.76175     287.5456    78.733908    22.625058    25.462118 
   37400    240.98451   -410.00657    216009.12   -18638.198      1401.46   -20039.658   -1203.5961    288.99887    78.732997    22.623252    25.452327 
   37600    246.14782   -445.20048    216009.12   -18657.093    1431.4875   -20088.581   -1322.5677    291.02522    78.733133    22.621968    25.459244 
   37800    235.88999     -396.534    216009.12   -18708.721    1371.8325   -20080.553   -1121.5804    292.14597    78.732902       22.621    25.456579 
   38000    239.31125   -373.22097    216009.12    -18601.82     1391.729    -19993.55   -1059.6411     291.9142    78.733244    22.619245    25.464145 
   38200    235.61919   -290.04198    216009.12   -18586.645    1370.2576   -19956.902   -631.84252     294.5631    78.732742    22.621014    25.473731 
   38400    235.00967   -170.05042    216009.12   -18548.573    1366.7129   -19915.286   -182.32274    295.28373    78.733824    22.622705    25.457047 
   38600    242.77098   -320.31255    216009.12   -18569.206    1411.8493   -19981.056   -763.90422    298.14451    78.734769     22.62456    25.469558 
   38800    243.02287   -226.29784    216009.12   -18584.969    1413.3142   -19998.283   -425.09002    300.16782    78.735151    22.625072    25.451765 
   39000    249.56461   -268.32024    216009.12   -18518.628    1451.3581   -19969.986   -580.19964     301.1549    78.736977    22.622705    25.435537 
   39200    233.23267   -358.52827    216009.12   -18614.834    1356.3787   -19971.212   -922.11854    302.16631    78.738501    22.620963    25.450725 
   39400    243.19794   -270.76282    216009.12    -18581.62    1414.3323   -19995.953   -583.87549    304.00103    78.738487     22.61945    25.472845 
   39600    237.02677   -297.38916    216009.12   -18521.821    1378.4435   -19900.264   -634.01446    303.93316    78.736937    22.617238     25.48435 
   39800    244.48448   -320.54684    216009.12   -18603.129    1421.8143   -20024.943   -790.67387    305.84221    78.737503    22.616175    25.493604 
   40000    233.81964   -343.75671    216009.12   -18580.797    1359.7923   -19940.589   -873.65969    307.13309    78.739234    22.619593    25.507514 
   40200    238.76594   -368.83504    216009.12   -18584.459    1388.5578   -19973.017   -966.48786    309.59347    78.740235    22.619835    25.525559 
   40400    238.23666   -259.19282    216009.12   -18636.065    1385.4797   -20021.545   -513.18883    310.86188    78.741258    22.618149    25.530974 
   40600    248.94785    -248.6061    216009.12   -18554.801    1447.7713   -20002.572    -517.3268     313.0028    78.740478    22.618331    25.552648 
   40800    235.46801   -410.68311    216009.12   -18627.326    1369.3784   -19996.705   -1175.8665    314.09548    78.737221    22.619402     25.54744 
   41000    245.04771   -294.50592    216009.12   -18580.731    1425.0898    -20005.82   -655.82204    315.91446    78.738226    22.616898    25.550156 
   41200    247.39718   -353.04263    216009.12   -18518.719    1438.7532   -19957.473   -951.59225    319.80468    78.739379    22.616519    25.534713 
   41400    241.76714   -296.86643    216009.12   -18591.064    1406.0114   -19997.075   -693.70825    322.14469    78.739093    22.618737    25.544228 
   41600    247.74327    -437.7343    216009.12   -18581.109     1440.766   -20021.875   -1311.3332    324.37118    78.737299    22.616713    25.531447 
   41800    241.37204   -170.12767    216009.12   -18577.479    1403.7137   -19981.192   -155.44707    326.77539    78.738345    22.616405    25.520775 
   42000    237.86987   -353.90166    216009.12   -18659.485    1383.3466   -20042.831   -915.07795    332.49405    78.738724    22.616491    25.522115 
   42200    229.00013   -481.43554    216009.12   -18675.636    1331.7641     -20007.4   -1504.0062    335.09405    78.737651    22.615835    25.543413 
   42400    239.52177   -280.16453    216009.12   -18622.553    1392.9533   -20015.506   -601.41221    335.89348    78.736972    22.614457    25.552463 
   42600    234.89163   -199.37206    216009.12   -18635.085    1366.0265   -20001.111   -250.68154    336.96438    78.737639    22.614031    25.558338 
   42800    239.82814   -323.63569    216009.12   -18576.261    1394.7351   -19970.996   -815.03372    340.71392    78.736829    22.613452    25.579466 
   43000    238.02979   -367.68063    216009.12   -18590.726    1384.2766   -19975.002   -1001.0251    341.45405    78.737131    22.613503    25.573471 
   43200    232.72334   -291.23795    216009.12   -18586.529    1353.4166   -19939.945   -700.85819    344.59062    78.736959    22.614362    25.582204 
   43400    244.17989   -354.92227    216009.12   -18575.045    1420.0429   -19995.088   -967.22656    343.49311    78.736288     22.61099    25.602672 
   43600    239.15415   -258.50832    216009.12   -18582.732    1390.8154   -19973.547   -538.98053    342.28569    78.737895    22.609341    25.631954 
   43800    239.51922   -315.11636    216009.12   -18603.873    1392.9385   -19996.812   -783.63971    344.10626    78.738781    22.607197    25.622024 
   44000    242.23238   -273.89091    216009.12   -18635.218     1408.717   -20043.935   -616.70089    345.76742    78.740493    22.604753    25.617332 
   44200    234.54527   -250.56353    216009.12   -18582.038    1364.0122   -19946.051   -527.69828    345.85568    78.740413    22.605822    25.640464 
   44400    241.20618    -290.3909    216009.12   -18601.781    1402.7491    -20004.53   -684.42327    347.79375    78.741035    22.608122     25.65133 
   44600    237.56697   -306.70911    216009.12   -18621.697    1381.5851   -20003.282   -743.06559    346.63884    78.741843    22.611139    25.643906 
   44800    240.35055   -357.15805    216009.12   -18608.986    1397.7731    -20006.76   -954.78979    348.68964    78.742231    22.611338    25.658705 
   45000    237.63879   -377.53339    216009.12   -18576.141    1382.0027   -19958.144   -1025.5416    352.92105    78.742087     22.60926    25.671285 
   45200    239.41442   -355.02372    216009.12   -18563.199     1392.329   -19955.528   -919.51597    354.08351    78.742117    22.609501    25.672538 
   45400    231.31223   -312.66317    216009.12   -18648.649    1345.2102   -19993.859   -758.13673    357.59464    78.742498    22.607932    25.681045 
   45600    245.10805   -372.31046    216009.12   -18565.467    1425.4407   -19990.908   -981.76422    356.34029    78.742808    22.605074    25.652204 
   45800    240.33129   -464.29716    216009.12   -18602.878    1397.6611    -20000.54   -1397.9644    357.78674     78.74246    22.604096    25.656378 
   46000    247.65604   -312.94029    216009.12   -18525.803    1440.2587   -19966.061   -713.33239    355.86717     78.74469    22.606541    25.662554 
   46200    248.57442   -502.74601    216009.12    -18532.63    1445.5996    -19978.23   -1522.5155     356.4236    78.743779    22.608308    25.633875 
   46400    235.68486   -526.27086    216009.12   -18606.722    1370.6395   -19977.361   -1661.1373      358.371    78.743334    22.605635    25.625612 
   46600    238.31818   -381.33213    216009.12   -18598.273    1385.9538   -19984.227   -1026.5927    359.47802    78.742935    22.604448    25.630321 
   46800    236.77113   -338.25688    216009.12   -18547.702    1376.9568   -19924.659   -823.68221    361.95566    78.744856    22.600391    25.611333 
   47000    246.85771   -398.89597    216009.12   -18522.819    1435.6159   -19958.435   -1054.3509    362.17587    78.744835    22.600842    25.610358 
   47200    234.51734   -189.16208    216009.12   -18655.279    1363.8498   -20019.129   -192.13444    365.71774    78.744768    22.599417    25.612568 
   47400    240.51696   -263.75077    216009.12    -18614.13    1398.7409   -20012.871   -563.37857    368.69774    78.742873    22.598584    25.599434 
   47600    232.60495   -249.56582    216009.12   -18625.435    1352.7282   -19978.164   -470.43491     372.7678    78.743706    22.598346    25.578644 
   47800    237.64345   -487.85973    216009.12   -18588.507    1382.0298   -19970.537   -1543.1023    375.16234    78.744101     22.59897    25.562941 
   48000    241.95802    -168.2291    216009.12   -18601.713    1407.1215   -20008.835   -122.05107    378.31506     78.74579     22.60014    25.556489 
   48200    236.34878    -400.1246    216009.12   -18617.606    1374.5006   -19992.106   -1116.6328    381.99087    78.744774     22.59977     25.55888 
   48400    241.74522   -349.87267    216009.12   -18609.227     1405.884   -20015.111   -910.24742    382.21106     78.74437    22.602719    25.562677 
   48600    228.52933    -228.3403    216009.12   -18673.623    1329.0262   -20002.649   -398.91149     383.9416    78.744295     22.60599    25.578934 
   48800     237.3417   -391.98434    216009.12   -18661.262     1380.275   -20041.537   -1089.6843    386.74182     78.74565    22.606166    25.586487 
   49000    239.68777   -320.48376    216009.12    -18611.84    1393.9187   -20005.759    -787.5391    383.20931    78.745022    22.606915     25.57803 
   49200     243.9781   -364.71777    216009.12   -18573.457    1418.8694   -19992.326   -977.35324    384.86195    78.742344    22.606535    25.570629 
   49400    237.13034   -194.74732    216009.12    -18622.83    1379.0458   -20001.876   -253.38727    385.53386    78.739843    22.604706    25.579844 
   49600     242.1111   -344.62005    216009.12   -18604.019    1408.0117   -20012.031    -882.9703    387.68683    78.742723    22.606948    25.573126 
   49800    243.86863   -349.92504    216009.12    -18626.47    1418.2327   -20044.703   -913.67998    391.84819    78.743664    22.607417    25.604744 
   50000    241.80806    -243.5552    216009.12    -18616.82    1406.2494   -20023.069   -506.22219    396.76364      78.7488    22.607673    25.612016 
   50200    242.23501   -398.63155    216009.12   -18577.413    1408.7323   -19986.145   -1138.8546    399.36036    78.751401    22.608288     25.62064 
   50400    241.77381    -446.1071    216009.12   -18619.961    1406.0502   -20026.011   -1302.1705    399.49606    78.750606    22.607728    25.598228 
   50600    241.87616    -232.0587    216009.12   -18530.741    1406.6454   -19937.386   -394.32596    399.35899    78.751838    22.607738    25.609499 
   50800    236.08876   -439.62184    216009.12   -18661.264    1372.9884   -20034.252   -1271.4276    400.98101    78.751897    22.608236    25.615238 
   51000     241.8181   -363.05735    216009.12     -18628.9    1406.3078   -20035.208   -995.41763    401.17149    78.753404    22.607896    25.640047 
   51200    236.20812   -263.58988    216009.12   -18638.147    1373.6826    -20011.83   -590.06017    402.26369     78.75485    22.606786    25.643778 
   51400     240.0904    -357.9176    216009.12   -18612.184    1396.2602   -20008.444   -983.92096    402.96064    78.754812    22.604315    25.642498 
   51600    237.47644   -322.70379    216009.12   -18644.943    1381.0586   -20026.002   -774.07707    404.82794    78.756471    22.602977    25.641493 
   51800    245.49504     -210.943    216009.12   -18593.207    1427.6912   -20020.898   -346.50134    404.60304      78.7556    22.605254    25.644881 
   52000    236.58349   -498.30173    216009.12   -18663.762    1375.8656   -20039.628   -1575.2692    405.05658    78.755916    22.607276    25.640253 
   52200    235.68144   -244.76545    216009.12   -18695.123    1370.6196   -20065.742   -473.99647    405.11298    78.756823    22.608048     25.63504 
   52400    233.58406   -384.04652    216009.12   -18711.031    1358.4222   -20069.454   -1089.8644    406.02855    78.758658    22.609114    25.625745 
   52600    233.89439   -274.66727    216009.12   -18639.107    1360.2269   -19999.334   -602.23215    408.15186    78.759265     22.61209    25.648943 
   52800    244.52067   -247.96021    216009.12   -18573.169    1422.0247   -19995.193    -458.3264    408.66722    78.762439    22.614246    25.642975 
   53000    245.55962    -213.4114    216009.12   -18563.241    1428.0668   -19991.308   -299.05506    409.08057    78.761909     22.61648    25.602689 
   53200    239.87725   -131.02224    216009.12   -18662.587    1395.0206   -20057.608   -4.7637669    409.87105     78.76072    22.616264    25.616387 
   53400    242.42707   -266.65906    216009.12   -18618.513    1409.8493   -20028.363   -546.54278    413.64024    78.761862    22.617276    25.634197 
   53600    234.68556   -292.40201    216009.12   -18674.763    1364.8281   -20039.591   -659.41831    414.46464    78.763816     22.61736    25.637127 
   53800     240.4562   -345.33049    216009.12   -18631.795    1398.3875   -20030.182   -901.20151    417.22133    78.766192    22.616516    25.623357 
   54000    247.57704   -249.71784    216009.12   -18638.697    1439.7992   -20078.497   -496.03662    420.26008    78.765957     22.61424    25.598127 
   54200    241.64296    -343.4282    216009.12   -18607.773    1405.2892   -20013.062   -897.12851    419.46153    78.765154    22.615088    25.567914 
   54400    245.33937   -404.70863    216009.12   -18570.797    1426.7859   -19997.583   -1158.3205    415.99796     78.76755    22.615038    25.562312 
   54600    241.00703   -283.67884    216009.12   -18584.666    1401.5909   -19986.257   -650.32167    412.85522     78.76882    22.615406    25.574126 
   54800    241.11092   -340.45113    216009.12   -18569.472    1402.1951   -19971.667   -871.55642    412.84973    78.768974    22.614762    25.556053 
   55000    243.29387   -228.97814    216009.12   -18484.127    1414.8902   -19899.018   -418.21015    409.28967    78.770748    22.613267    25.560423 
   55200    236.31034   -262.03289    216009.12   -18644.053     1374.277    -20018.33   -528.30314    406.99944    78.768433    22.612608    25.568559 
   55400    235.04106    -260.8417    216009.12     -18610.6    1366.8955   -19977.496    -498.6915     407.8031    78.768443     22.61242    25.535154 
   55600    234.19687   -239.89821    216009.12   -18606.104    1361.9861    -19968.09   -489.94864    409.62658    78.767419    22.611756    25.527205 
   55800    250.81798   -306.09866    216009.12   -18535.548    1458.6471   -19994.195   -711.04748    411.39926    78.766093    22.611563    25.559559 
   56000    245.63786   -255.54679    216009.12   -18571.219    1428.5218   -19999.741   -528.48465    413.22321    78.766975    22.608896    25.567637 
   56200    237.54329    -544.6098    216009.12    -18582.03    1381.4473   -19963.478   -1711.6956    417.88972    78.766495    22.607948    25.573347 
   56400    233.37182   -318.59064    216009.12   -18656.777    1357.1879   -20013.965   -806.08333     420.4402    78.767116    22.608804    25.576628 
   56600    236.31675   -178.49348    216009.12   -18721.334    1374.3143   -20095.648    -165.1203    422.49827    78.766228    22.611204    25.583693 
   56800    243.29371    -247.0773    216009.12   -18659.198    1414.8893   -20074.087   -466.91005    422.51218    78.765858     22.61252    25.581944 
   57000    238.76603   -443.50789    216009.12   -18735.913    1388.5583   -20124.472    -1249.161    422.44321    78.767661    22.612421    25.598164 
   57200    236.64602   -287.38893    216009.12    -18657.58    1376.2293    -20033.81   -631.44254    421.17733    78.767551    22.610981    25.622515 
   57400    242.04504   -218.33608    216009.12   -18683.158    1407.6276   -20090.786   -349.13306    422.39467    78.768629    22.608933    25.617594 
   57600    232.54785   -285.76081    216009.12   -18722.301    1352.3961   -20074.697    -622.5642    424.11786    78.769493    22.609751    25.605441 
   57800    247.37678   -321.13125    216009.12    -18644.61    1438.6346   -20083.244   -793.73385    426.53432     78.77416    22.610942    25.597858 
   58000     237.7049   -319.21939    216009.12   -18631.998    1382.3872   -20014.385   -748.88894    427.76357    78.775618    22.610025    25.597515 
   58200    254.16584   -274.15203    216009.12   -18583.859    1478.1168   -20061.976   -610.72517    425.65955    78.775992    22.609544    25.588897 
   58400    244.64418   -57.992871    216009.12   -18626.426     1422.743   -20049.169    360.67188    422.82259    78.777296     22.61031    25.601171 
   58600    239.52672   -353.01066    216009.12   -18651.144    1392.9821   -20044.126   -896.41736    422.98197    78.777897    22.609316      25.6111 
   58800    240.72676   -357.22468    216009.12   -18649.977     1399.961   -20049.938   -951.57342    427.38499      78.7768    22.609085    25.620141 
   59000    246.37222    -323.6811    216009.12   -18579.546    1432.7926   -20012.338    -800.4731    431.84846     78.77569    22.609285    25.637323 
   59200    240.84026   -238.22005    216009.12   -18644.943    1400.6211   -20045.564   -436.45839    434.04313    78.772537    22.609658    25.634703 
   59400    235.23732   -216.76589    216009.12   -18616.508    1368.0368   -19984.545    -361.6676    435.55585    78.772316     22.61153    25.634751 
   59600    235.09755   -426.77862    216009.12    -18653.95     1367.224   -20021.174   -1249.8412    437.89884    78.772759    22.611756    25.631345 
   59800    241.31058   -350.48348    216009.12   -18622.461    1403.3562   -20025.817   -922.99302    435.34396    78.773642    22.611871    25.621778 
   60000    238.77178   -416.63446    216009.12   -18571.045    1388.5917   -19959.637   -1208.6443    437.46912    78.772669    22.613572    25.609182 
   60200     246.3113   -403.00284    216009.12    -18619.08    1432.4382   -20051.518   -1112.1975    440.43239    78.771067    22.615673    25.591966 
   60400    245.02237   -425.82355    216009.12   -18572.544    1424.9424   -19997.487   -1230.9582    442.64245    78.769103    22.614037    25.588464 
   60600    247.54644    -308.0873    216009.12   -18540.622    1439.6213   -19980.243   -754.29933    442.92856    78.768458    22.613622    25.610037 
   60800    241.33283   -431.85201    216009.12    -18514.89    1403.4856   -19918.376   -1222.7416    446.89543     78.76659    22.614962    25.595679 
   61000      240.145   -128.24721    216009.12   -18587.104    1396.5778   -19983.681    41.950898     445.0201     78.76603    22.613616    25.609235 
   61200    243.30275    -229.6545    216009.12   -18528.524    1414.9419   -19943.466   -365.81014    445.26171    78.765332    22.614641    25.626476 
   61400    243.83868   -352.61875    216009.12   -18617.511    1418.0586    -20035.57   -924.96123    443.32552    78.767036    22.616544    25.634628 
   61600    241.90266   -259.18716    216009.12   -18638.151    1406.7996   -20044.951   -566.67272    441.40212    78.768117    22.616309    25.653556 
   61800    239.05725   -297.45129    216009.12   -18696.186    1390.2519   -20086.438   -678.29861    443.24071    78.768978    22.614314    25.654285 
   62000    240.71899   -379.53162    216009.12   -18600.783    1399.9158   -20000.699   -1048.8755    445.27981      78.7674    22.612574    25.640509 
   62200    245.88575   -175.34435    216009.12   -18566.988    1429.9635   -19996.951   -147.32129    441.80846    78.769968    22.612602    25.635114 
   62400    239.39148   -306.11585    216009.12   -18534.805    1392.1956   -19927.001   -706.71467    438.52711    78.768887    22.610887    25.650767 
   62600    236.09225   -273.11768    216009.12   -18582.153    1373.0087   -19955.162   -561.38842    437.29266    78.768889    22.610174    25.654582 
   62800    238.46635   -421.62156    216009.12   -18620.412    1386.8155   -20007.228   -1216.8569     435.9139    78.770416     22.60929    25.669162 
   63000    249.19196   -281.02702    216009.12   -18569.912    1449.1909   -20019.103   -625.86415    437.60417    78.771673    22.608377    25.673497 
   63200    236.09062   -310.14113    216009.12   -18602.839    1372.9993   -19975.838   -752.20322    437.32523    78.774757    22.606775    25.661847 
   63400    234.93317   -467.76567    216009.12   -18655.486     1366.268   -20021.754   -1405.3367    438.11806    78.776188    22.609967    25.676287 
   63600    234.32325   -308.97806    216009.12    -18650.67     1362.721   -20013.391   -789.73151    434.92292    78.779419    22.607423    25.691655 
   63800    235.39178   -390.82972    216009.12   -18695.266    1368.9351   -20064.201   -1077.0011    435.43171     78.78071    22.605056    25.690057 
   64000    236.60352   -249.91122    216009.12   -18598.444     1375.982   -19974.426   -483.82654    437.81273    78.781688    22.604318    25.711932 
   64200    237.81442   -256.29841    216009.12    -18573.54    1383.0241   -19956.564   -520.98527    436.72392    78.782425     22.60225    25.704019 
   64400    240.53976   -214.23015    216009.12   -18572.889    1398.8735   -19971.763   -334.43819    435.25994    78.784601    22.600895    25.704899 
   64600    234.22247   -309.13277    216009.12   -18597.312    1362.1349   -19959.447   -716.57234    434.90414    78.784446    22.599711    25.699432 
   64800    240.22745   -402.83416    216009.12   -18594.776    1397.0573   -19991.834   -1126.2166    436.39332    78.784199    22.600822    25.696387 
   65000    239.08561   -214.92773    216009.12   -18511.302    1390.4168   -19901.719   -313.12581    434.98861    78.783111    22.599653    25.718375 
   65200    238.50882   -148.26708    216009.12   -18564.995    1387.0625   -19952.058     4.987715    434.96333    78.784756    22.598338     25.70869 
   65400    236.79341   -322.80314    216009.12   -18576.106    1377.0864   -19953.192   -781.61552     437.4892    78.787162    22.597194    25.677893 
   65600    246.57724   -383.13252    216009.12   -18531.207    1433.9848   -19965.192   -1021.2058    436.90311    78.787153    22.593436    25.693404 
   65800    243.94702    -177.4292    216009.12   -18583.273    1418.6886   -20001.962     -175.065     438.2403    78.791197    22.593852     25.70051 
   66000    232.00148   -526.79089    216009.12   -18591.023    1349.2186   -19940.242   -1722.9606     440.3813     78.79299    22.594603    25.695607 
   66200    233.45298   -301.82558    216009.12    -18612.13    1357.6599   -19969.789   -670.99546    440.23899    78.792893    22.596915    25.671959 
   66400    240.02521   -230.51152    216009.12   -18576.322    1395.8811   -19972.203    -439.3299     441.6391    78.791329    22.597269    25.666156 
   66600    238.42708   -222.03675    216009.12   -18585.404    1386.5871   -19971.991   -352.09883    445.24703    78.790051    22.598737    25.660213 
   66800     233.8561   -156.42293    216009.12    -18637.12    1360.0043   -19997.124   -86.551099    446.31022    78.789204    22.601874    25.668574 
   67000    228.02624   -282.52591    216009.12   -18693.586    1326.1004   -20019.687    -603.2582    446.69701    78.790013    22.603016    25.667786 
   67200    238.64704   -216.97564    216009.12   -18617.075    1387.8663   -20004.941   -391.32764    447.18763    78.790702    22.604388    25.650639 
   67400    236.56284   -338.24187    216009.12   -18567.503    1375.7455   -19943.248   -846.31976    447.46309    78.788187    22.604888    25.651012 
   67600    245.24843   -255.76755    216009.12   -18507.638     1426.257   -19933.895   -514.27924    447.41935    78.789418    22.606065     25.65276 
   67800    234.96156   -335.97096    216009.12   -18556.168    1366.4331   -19922.601   -865.91067     447.7084    78.787789     22.60573    25.625403 
   68000    241.18506   -451.50982    216009.12   -18563.529    1402.6263   -19966.156   -1367.8051    450.23637    78.786609    22.605387    25.607063 
   68200    239.14337   -221.24198    216009.12   -18576.103    1390.7527   -19966.856   -378.21796    452.86198    78.788891    22.601587    25.626725 
   68400    245.57038   -295.88012    216009.12    -18538.88    1428.1294   -19967.009   -704.97408    454.41288    78.787376    22.601161    25.621912 
   68600    233.67594   -196.39337    216009.12   -18589.253    1358.9566    -19948.21   -305.19865    453.61207    78.788982    22.602286    25.642342 
   68800    237.03321   -264.75107    216009.12   -18567.317     1378.481   -19945.798   -592.76177    454.22012    78.793196    22.601858    25.648774 
   69000    238.79996    -464.0083    216009.12   -18562.683    1388.7556   -19951.439   -1397.8324    454.80108    78.795166    22.602201    25.657451 
   69200    238.07364   -245.67802    216009.12   -18605.782    1384.5316   -19990.313   -451.90492    453.69855    78.792775    22.600949    25.652811 
   69400    239.15132   -220.38782    216009.12    -18650.45    1390.7989   -20041.249   -343.07931    455.36714    78.793061    22.602896    25.639255 
   69600    253.11186   -261.40836    216009.12   -18495.291    1471.9873   -19967.278   -560.11937    456.59882    78.794176     22.60535    25.641265 
   69800    240.54383   -168.23666    216009.12   -18622.442    1398.8972   -20021.339   -161.14345    457.90953    78.792769    22.604301    25.641075 
   70000    244.07873   -282.09225    216009.12   -18606.781    1419.4546   -20026.236   -611.08421    459.57045    78.792872    22.602693    25.609794 
   70200    244.21999   -369.21795    216009.12   -18583.305    1420.2761   -20003.581   -1019.7369    461.46358    78.794486    22.600858    25.608452 
   70400    246.54066    -373.2229    216009.12   -18528.749    1433.7721   -19962.521   -1003.7187    459.40381    78.795524    22.596829    25.624398 
   70600    239.80994   -239.54607    216009.12   -18575.443    1394.6292   -19970.073   -449.62574     461.1143    78.795316    22.598272    25.621279 
   70800    232.79702   -272.19058    216009.12   -18574.315    1353.8451    -19928.16   -540.63793    463.50938    78.796835    22.599251    25.619595 
   71000    243.11805   -229.01632    216009.12   -18598.724    1413.8677   -20012.591   -375.20431    464.41867    78.796326    22.599622    25.610912 
   71200    247.37094   -370.80849    216009.12   -18582.916    1438.6007   -20021.516   -990.94237    466.81505    78.795563    22.601993    25.604727 
   71400    241.69375   -230.51996    216009.12   -18634.177    1405.5846   -20039.762    -433.9137    467.67831    78.797281    22.604767    25.603748 
   71600    245.93251    -247.1733    216009.12   -18591.138    1430.2354   -20021.374   -453.82234    471.09265    78.797357    22.605105    25.613562 
   71800    230.98437   -174.40082    216009.12   -18682.802    1343.3036   -20026.105   -189.46971    471.03636     78.79596    22.606019    25.613353 
   72000    233.63737   -350.11727    216009.12   -18662.708    1358.7322   -20021.441    -953.5664    473.25821     78.79619    22.605183    25.607338 
   72200    243.31593   -358.97992    216009.12   -18514.386    1415.0185   -19929.405   -1027.6271    473.07338    78.795394    22.603523    25.621677 
   72400    238.42525   -236.17823    216009.12   -18577.211    1386.5764   -19963.787    -424.4915    474.03508    78.793399    22.604095    25.627642 
   72600    234.78168   -206.98789    216009.12   -18569.034    1365.3871   -19934.421   -272.51621    478.12041    78.793708    22.605078    25.656366 
   72800    238.61226   -342.98014    216009.12   -18559.152     1387.664   -19946.816   -867.97778    479.04803    78.793869    22.607754    25.689702 
   73000    243.70408   -402.35848    216009.12   -18624.913    1417.2758   -20042.188   -1130.7328    478.77831    78.792583    22.609671    25.684658 
   73200    246.46627   -332.05625    216009.12   -18535.566    1433.3395   -19968.905   -837.54658    479.31877    78.793166    22.612844    25.663539 
   73400    237.13671   -459.99856    216009.12   -18552.656    1379.0829   -19931.739   -1385.1429     479.1887     78.79086    22.613607    25.667425 
   73600    239.77855   -299.35747    216009.12   -18535.345    1394.4467   -19929.792   -700.33976    480.50115    78.791728    22.612184    25.690608 
   73800    234.44051   -128.91852    216009.12   -18633.185    1363.4029   -19996.588    26.857869    481.54959    78.795121    22.608174    25.654072 
   74000    232.20549   -300.51794    216009.12   -18647.609    1350.4051   -19998.014   -695.82556    484.38419    78.796643    22.607358    25.650975 
   74200    234.39929   -209.75529    216009.12    -18602.38    1363.1632   -19965.543   -324.05634    483.86615    78.795319    22.607394     25.65191 
   74400    236.18474   -319.00594    216009.12   -18606.027    1373.5466   -19979.573   -798.20622    484.45855     78.79241    22.605723    25.649531 
   74600    233.96198   -487.08256    216009.12   -18615.053      1360.62   -19975.673   -1520.4244    487.51375    78.792056    22.604081    25.642549 
   74800    241.97301   -256.17793    216009.12   -18616.005    1407.2087   -20023.214   -531.04314    487.48668    78.790535    22.603749    25.652203 
   75000    239.13742   -191.55603    216009.12   -18612.939    1390.7181   -20003.657   -226.79622    490.55054    78.791807     22.60265    25.669765 
   75200    241.37559   -532.26639    216009.12    -18559.39    1403.7343   -19963.124   -1673.8873    493.32383    78.793595    22.603784    25.666509 
   75400    233.35376   -197.14153    216009.12   -18606.259    1357.0829   -19963.342   -276.29422    492.30104    78.797041    22.603243    25.684467 
   75600    244.51293   -339.34046    216009.12   -18588.721    1421.9797   -20010.701   -898.06546    493.99152    78.797308    22.604044    25.707823 
   75800    238.71516   -326.92808    216009.12   -18541.423    1388.2625   -19929.686   -836.31319    495.29137    78.797971    22.603237     25.71009 
   76000    244.96593   -306.57525    216009.12   -18548.798    1424.6142   -19973.412   -745.61157    495.77419    78.798496    22.603121    25.707172 
   76200    231.21649   -332.69983    216009.12   -18652.716    1344.6534   -19997.369     -813.315    496.03425    78.799913    22.603416    25.702928 
   76400    243.33842   -303.23604    216009.12   -18651.656    1415.1493   -20066.805   -729.43801    496.60159    78.800024    22.604177    25.703931 
   76600    241.02076   -317.86969    216009.12   -18630.243    1401.6708   -20031.913   -815.90258    496.85074      78.8028    22.607096    25.691013 
   76800    232.51308   -414.47059    216009.12   -18662.209    1352.1939   -20014.402   -1220.4627    496.80902    78.805233    22.608788    25.703086 
   77000    239.66721   -450.92333    216009.12   -18586.756    1393.7992   -19980.555   -1319.5813    497.67159    78.806342    22.610965     25.70421 
   77200    237.10165   -456.60303    216009.12   -18574.887     1378.879   -19953.766    -1328.995    497.42447    78.810297    22.611969    25.708699 
   77400    237.07156   -388.55368    216009.12   -18585.087     1378.704   -19963.791   -1087.8278    497.35135    78.812548    22.613305    25.693167 
   77600    230.74434   -357.72442    216009.12   -18636.674    1341.9077   -19978.582   -961.12514    496.24649      78.8146    22.614986    25.694466 
   77800    234.54126   -182.87256    216009.12    -18593.54    1363.9889   -19957.529   -213.31516    496.37302    78.814141    22.617932    25.670636 
   78000    233.87356   -312.46344    216009.12   -18631.677    1360.1058   -19991.782    -751.6702    498.55019    78.811473    22.618987    25.672009 
   78200    244.97697   -254.32009    216009.12   -18569.775    1424.6784   -19994.454   -532.76128    500.57488    78.810749     22.62162    25.678148 
   78400    237.33976   -319.26558    216009.12   -18560.436    1380.2637     -19940.7   -760.15347    503.89619    78.811208    22.622931    25.689309 
   78600    234.82705   -375.82425    216009.12   -18548.038    1365.6509   -19913.689    -1020.573    505.13277    78.810199    22.625275    25.675754 
   78800    238.80632   -288.67415    216009.12   -18560.054    1388.7926   -19948.847   -613.25415     504.7212    78.809659    22.629159    25.672445 
   79000    243.38019   -165.13173    216009.12   -18556.664    1415.3922   -19972.056   -109.18199    505.13315    78.810136    22.631556    25.688162 
   79200    244.50731   -162.71422    216009.12   -18561.999     1421.947   -19983.946   -144.42955    504.67768    78.808963    22.628765    25.681024 
   79400    242.19944   -204.09564    216009.12   -18557.934    1408.5255   -19966.459   -251.12626    507.28983    78.809479    22.627549    25.693624 
   79600    234.80535   -318.70281    216009.12   -18644.822    1365.5247   -20010.347   -798.00477    508.78099    78.810292    22.624872    25.712915 
   79800     240.2225   -321.76486    216009.12    -18633.71    1397.0285   -20030.739   -796.87909    509.20423    78.809459    22.625356    25.700736 
   80000    235.92682    -339.6761    216009.12   -18627.049    1372.0467   -19999.096    -902.6767    510.42667    78.807916    22.624948    25.705234 
   80200    238.97623   -465.55301    216009.12   -18610.727    1389.7807   -20000.507   -1425.9732    512.34837    78.807478    22.623546    25.716336 
   80400    240.87981   -433.63618    216009.12   -18632.542    1400.8511   -20033.394   -1242.8484    514.23091    78.807142    22.623119    25.676935 
   80600    239.71091    -448.1442    216009.12   -18584.684    1394.0533   -19978.737   -1306.6721    514.17373    78.807904    22.621759    25.682659 
   80800    240.76538   -255.03856    216009.12   -18568.678    1400.1856   -19968.864   -531.92015    513.96115    78.809427    22.622635    25.675108 
   81000    241.35085   -230.55665    216009.12   -18560.184    1403.5904   -19963.775    -369.0071    515.23219    78.811373    22.621946    25.687095 
   81200    238.11037   -190.30846    216009.12   -18595.783    1384.7452   -19980.528   -254.42983    518.27503    78.812245    22.619063    25.682014 
   81400    237.51944   -303.18826    216009.12   -18588.433    1381.3086   -19969.742    -717.8076    519.62419    78.812197    22.618084    25.670566 
   81600    238.80971   -241.25192    216009.12   -18629.137    1388.8123    -20017.95   -445.29136    519.17493    78.810578    22.618776    25.683184 
   81800    228.88489   -203.68255    216009.12   -18711.437    1331.0939   -20042.531   -288.68975    521.44647    78.809813    22.621373    25.722193 
   82000     236.1791   -335.07548    216009.12   -18616.547    1373.5138   -19990.061   -820.40988    523.20789    78.809778    22.620534    25.714978 
   82200    239.17553   -261.38705    216009.12   -18585.776    1390.9397   -19976.716   -517.77205    521.65262    78.807753     22.62183    25.729212 
   82400    244.77888   -285.20976    216009.12   -18582.475    1423.5263   -20006.002   -667.62824    523.06598    78.807844    22.618815    25.722328 
   82600    243.22045   -258.73957    216009.12   -18529.226    1414.4632   -19943.689   -536.59927    525.48356    78.808408    22.616296    25.704973 
   82800    239.70745   -261.83509    216009.12   -18624.073    1394.0332   -20018.106   -548.26701    526.22407    78.807427    22.613702    25.692071 
   83000     242.7671   -302.91673    216009.12   -18553.919    1411.8267   -19965.746   -769.72462    528.30378    78.809692    22.612871    25.693847 
   83200    240.96987   -277.10081    216009.12   -18593.964    1401.3749   -19995.339   -616.23609    529.21208    78.811965    22.612478    25.691607 
   83400    241.45658   -191.98801    216009.12   -18614.569    1404.2053   -20018.775   -249.11166    529.43201    78.811388    22.610921    25.676096 
   83600    240.50966   -316.60444    216009.12   -18649.637    1398.6985   -20048.335   -789.74718       530.17     78.81056    22.609373    25.690143 
   83800    236.71652   -319.79342    216009.12   -18606.735    1376.6392   -19983.374   -806.97019    530.41885    78.812707    22.608626    25.690809 
   84000    237.12664   -134.73406    216009.12   -18614.733    1379.0243   -19993.757   -86.302371    531.25099    78.813735    22.606747    25.675811 
   84200    239.23602   -223.27682    216009.12   -18592.751    1391.2915   -19984.043   -388.02325     532.4331    78.817125    22.607043    25.691987 
   84400    240.00414   -381.63081    216009.12   -18638.084    1395.7585   -20033.843   -1065.2371    534.49485    78.815898      22.6087    25.667686 
   84600    245.38519   -314.93183    216009.12    -18545.23    1427.0524   -19972.282   -733.81781    535.31337    78.817252    22.607554     25.65102 
   84800    237.22057   -170.82515    216009.12   -18606.783    1379.5705   -19986.354   -169.80661    536.60033    78.818549    22.606404    25.654401 
   85000    242.57648   -254.72775    216009.12   -18632.122    1410.7182    -20042.84   -486.04676    537.51694    78.818579     22.60626    25.646731 
   85200    231.13794   -313.17199    216009.12   -18656.476    1344.1967   -20000.672   -731.64627    540.50575     78.81921    22.606893     25.64335 
   85400    233.09022   -166.44563    216009.12   -18651.919    1355.5503    -20007.47   -130.77331    540.75698    78.819781    22.608531    25.639322 
   85600    234.55779   -365.45653    216009.12   -18610.254     1364.085   -19974.339   -954.12348     541.4568    78.820111    22.611456    25.642711 
   85800      248.885   -296.40128    216009.12   -18527.832    1447.4058   -19975.238   -688.66054    542.56293     78.81829    22.613382    25.654205 
   86000    236.03079   -444.09315    216009.12   -18566.276    1372.6513   -19938.927   -1279.7033    545.76812    78.816846    22.613636    25.663844 
   86200    240.55567   -201.23725    216009.12   -18575.471     1398.966   -19974.437   -273.74044    546.02746    78.818142    22.614974    25.665994 
   86400    232.23514   -303.81416    216009.12   -18633.335    1350.5775   -19983.913   -685.29091    545.84227    78.817163    22.615904     25.65191 
   86600    243.67486   -286.86321    216009.12   -18547.886    1417.1059   -19964.992   -610.29277    545.38643    78.817923    22.612107    25.643213 
   86800    237.01929   -166.83097    216009.12   -18611.858       1378.4   -19990.258    -127.0589    544.06478     78.82084    22.613931    25.645617 
   87000    243.97943   -308.63154    216009.12   -18578.108    1418.8771   -19996.985   -727.29455     545.7483    78.820158    22.617237    25.651096 
   87200    244.24952   -279.62886    216009.12   -18609.347    1420.4478   -20029.795   -593.20238    546.84776     78.81877    22.621885    25.647719 
   87400     246.4931   -427.05069    216009.12   -18626.567    1433.4955   -20060.063   -1273.9998    548.41749    78.820305    22.624425    25.654059 
   87600    240.36897   -338.01735    216009.12   -18633.173    1397.8803   -20031.053   -841.67395    550.46274    78.823197    22.625438    25.671045 
   87800    238.13624   -136.07585    216009.12   -18671.241    1384.8957   -20056.137    30.580193    551.01319    78.826267    22.622915    25.707568 
   88000    240.72352   -265.92551    216009.12   -18640.674    1399.9422   -20040.617   -540.86757    551.82952    78.823299    22.620939    25.715962 
   88200    233.84827   -347.47833    216009.12   -18691.714    1359.9587   -20051.673    -895.4359    552.73043    78.823163    22.619229    25.718833 
   88400    242.02064   -448.12534    216009.12   -18594.036    1407.4856   -20001.522   -1321.0696     554.4016    78.821621    22.618546     25.72623 
   88600    235.68771   -348.46923    216009.12   -18608.672    1370.6561   -19979.328   -916.80945    554.55013    78.821694    22.618557    25.753805 
   88800    233.51562   -324.05431    216009.12    -18692.68    1358.0242   -20050.705   -771.43648    555.64618    78.821957    22.617062    25.766681 
   89000    239.22943   -195.62223    216009.12   -18657.033    1391.2532   -20048.287   -250.35243    555.79782    78.822097     22.61852    25.753634 
   89200    235.90113   -175.55404    216009.12   -18646.104    1371.8973   -20018.001   -197.85383    559.59001     78.82376    22.620155    25.769036 
   89400    235.95327   -235.50629    216009.12   -18623.625    1372.2005   -19995.826   -450.62169     561.6967    78.822076    22.619185    25.758471 
   89600    228.15689   -331.13795    216009.12   -18701.333    1326.8602   -20028.193   -842.31528    558.71801    78.820886    22.618951     25.74459 
   89800    247.39886   -470.29715    216009.12   -18573.367     1438.763    -20012.13   -1414.5122    559.92144    78.819755    22.619208    25.728375 
   90000    239.73246    -448.7608    216009.12   -18608.489    1394.1786   -20002.667   -1352.6079    560.90791    78.818857    22.619923    25.715313 
   90200    235.95044   -430.84309    216009.12   -18646.282    1372.1841   -20018.466   -1233.3766    561.20512    78.817677     22.62227    25.725818 
   90400    245.66155   -170.28033    216009.12   -18600.749    1428.6596   -20029.409   -156.49534    561.65169     78.81613    22.624795    25.717353 
   90600    241.35548    -208.0816    216009.12   -18596.682    1403.6174   -20000.299    -341.9061    561.56901    78.816239    22.625163     25.70197 
   90800    237.47797   -453.31137    216009.12    -18608.17    1381.0675   -19989.237   -1404.7464    564.54716    78.813781    22.627456    25.707378 
   91000    237.95035   -265.62259    216009.12    -18658.53    1383.8147   -20042.345   -585.97338    565.08252    78.812306    22.627743     25.71628 
   91200    236.48101   -364.09341    216009.12   -18726.413    1375.2696   -20101.682   -989.96737    564.58867    78.812758     22.62675    25.708913 
   91400    242.94984   -267.10427    216009.12   -18671.032    1412.8895   -20083.922   -580.00323    566.23874    78.812232    22.624105    25.706669 
   91600    241.38129   -366.37971    216009.12   -18588.134    1403.7675   -19991.901   -987.72831    569.68078      78.8113    22.623396    25.730848 
   91800    243.88798   -291.68783    216009.12   -18571.385    1418.3453    -19989.73   -660.10022    569.23815    78.813006    22.623052    25.740307 
   92000    240.94316   -377.86192    216009.12   -18600.767    1401.2195   -20001.987   -1038.8605    570.41013    78.813761    22.623603    25.724333 
   92200    241.65573   -295.81055    216009.12   -18634.445    1405.3635   -20039.808   -696.90167    574.06472    78.812762    22.625619    25.727061 
   92400    237.83485   -198.51554    216009.12   -18613.629    1383.1429   -19996.772   -244.91985    576.22377    78.810725    22.626839     25.75663 
   92600    240.01467   -336.16937    216009.12   -18537.524    1395.8198   -19933.344   -851.02859    576.76414    78.809178    22.625301    25.754719 
   92800    234.04033   -270.74648    216009.12   -18588.401    1361.0757   -19949.477   -598.73716    576.19215    78.810417    22.624003    25.744424 
   93000    241.46621   -287.47456    216009.12   -18585.613    1404.2613   -19989.875   -634.85134    578.53734    78.808481    22.624457    25.737583 
   93200    236.27467   -319.57472    216009.12   -18572.013    1374.0696   -19946.082   -762.19085    582.66919    78.807007    22.625372    25.751747 
   93400     236.8922   -231.49606    216009.12   -18653.085    1377.6609   -20030.746   -397.35972    582.66453    78.804816    22.629784    25.748907 
   93600    232.11008   -283.95135    216009.12   -18613.229    1349.8502   -19963.079   -604.37983    583.03852    78.804084    22.632204    25.732751 
   93800    233.03325   -343.41319    216009.12   -18598.418     1355.219   -19953.637   -865.96159    585.08976    78.805469    22.632905    25.766057 
   94000    240.46895   -317.21213    216009.12   -18601.886    1398.4617   -20000.348   -774.26491    586.74908    78.807216    22.631445    25.750903 
   94200    239.76905   -341.80364    216009.12   -18554.913    1394.3914   -19949.304   -925.29778    588.05724    78.805451    22.630889    25.772398 
   94400    240.64292   -284.06091    216009.12   -18617.141    1399.4734   -20016.614   -624.77822    588.52212    78.803691     22.62952    25.784965 
   94600    233.57245   -340.27949    216009.12   -18610.885    1358.3547    -19969.24   -884.04607    592.41462    78.802544    22.629103    25.790635 
   94800     234.8523   -321.35306    216009.12   -18589.439    1365.7977   -19955.237   -795.89678    594.43771    78.801317    22.627081    25.788943 
   95000     241.0415   -281.60679    216009.12   -18590.528    1401.7914    -19992.32   -675.70488    594.57481    78.802008    22.627091    25.780753 
   95200    245.02283   -159.75282    216009.12   -18601.528    1424.9451   -20026.473   -105.46028    600.00383    78.800743     22.62885    25.742181 
   95400    236.45497   -344.16117    216009.12   -18603.978    1375.1181   -19979.096   -916.21692    607.33453    78.800695    22.628606     25.75267 
   95600    246.19312   -142.39999    216009.12   -18604.819     1431.751    -20036.57   -45.694985     608.2126    78.800295    22.630757    25.732416 
   95800    240.44028   -394.01574    216009.12   -18587.384     1398.295   -19985.679    -1060.956    610.70856    78.800393    22.630542    25.710153 
   96000    240.15581   -321.41834    216009.12   -18535.608    1396.6406   -19932.248   -795.01597    611.45323    78.799156    22.626965    25.726225 
   96200    243.33594   -380.42498    216009.12   -18500.198    1415.1349   -19915.333   -989.85333    610.91488    78.798871    22.625202    25.714766 
   96400    241.08754   -138.54232    216009.12   -18537.575    1402.0592   -19939.634   -23.340262    608.69114    78.800893    22.623634    25.696226 
   96600    241.23421   -184.68702    216009.12    -18602.18    1402.9121   -20005.092   -206.10225    610.49404    78.803189    22.623155    25.692142 
   96800    244.37553   -404.19835    216009.12   -18594.497    1421.1807   -20015.678   -1156.6952    611.52981    78.804468    22.622392    25.682648 
   97000    234.11239   -360.25043    216009.12   -18663.028    1361.4948   -20024.522     -954.446     615.4036    78.803342    22.621606    25.676632 
   97200    240.98181   -342.94658    216009.12   -18647.026    1401.4443    -20048.47   -862.48127    615.89943    78.802683    22.622074     25.65082 
   97400    239.39165   -190.12331    216009.12   -18629.172    1392.1966   -20021.369     -237.368    615.85637    78.802214    22.624072    25.667001 
   97600    241.95292   -318.85111    216009.12   -18581.872    1407.0918   -19988.964   -801.13463    614.93099    78.801963    22.624705    25.687618 
   97800    243.52971   -331.82791    216009.12   -18597.912    1416.2617   -20014.174   -835.25797    618.88721    78.801745    22.627006    25.695103 
   98000    237.85222   -282.34392    216009.12   -18628.629    1383.2439   -20011.873   -595.92985    618.10761    78.800078    22.625862    25.721537 
   98200    233.26833   -371.57768    216009.12   -18650.356    1356.5861   -20006.942   -1019.1466    620.22221    78.797046    22.625835    25.731027 
   98400    236.81946   -190.62906    216009.12   -18599.545    1377.2379   -19976.783   -305.85363     620.2572    78.797519    22.625922    25.722491 
   98600    236.02154   -222.66037    216009.12   -18620.517    1372.5975   -19993.115   -360.50207     621.4792    78.797669     22.62758    25.719176 
   98800    242.44795   -355.79693    216009.12   -18600.553    1409.9707   -20010.524   -961.92088    622.86227    78.798253    22.627623    25.722627 
   99000    238.50105   -241.28729    216009.12   -18629.484    1387.0173   -20016.501   -460.91539    624.59321    78.798914    22.628923    25.730621 
   99200    239.25968   -325.04322    216009.12   -18631.667    1391.4291   -20023.096   -764.21566    626.73481    78.797662    22.626254    25.720541 
   99400    237.50788   -379.70887    216009.12   -18677.922    1381.2414   -20059.163   -1059.6043    625.69436    78.798585    22.627407    25.690333 
   99600    242.53909   -496.46443    216009.12   -18630.272    1410.5007   -20040.773   -1557.2395    628.03796    78.799433     22.62676    25.688452 
   99800    240.44644   -254.85985    216009.12   -18676.903    1398.3308   -20075.234   -504.87276    628.56809    78.799141    22.624035    25.668614 
  100000    239.02434   -394.87337    216009.12   -18641.472    1390.0605   -20031.533   -1204.2773    633.94512    78.798521    22.626118    25.665108 
  100200    240.58832   -303.08288    216009.12   -18686.572    1399.1559   -20085.728   -695.25275    634.04781    78.797957    22.625044    25.656211 
  100400    242.61949   -330.05367    216009.12   -18616.807    1410.9683   -20027.775   -846.92387    636.61661    78.797827    22.623207     25.64924 
  100600    239.73061   -338.33029    216009.12    -18652.02    1394.1678   -20046.188   -884.16045    636.09771    78.798983    22.622982    25.643235 
  100800    236.70435   -354.84437    216009.12   -18685.784    1376.5684   -20062.352   -918.68753    640.35286    78.800017    22.622592     25.64073 
[...]
 5175800     224.9519   -390.80274    216009.12   -20525.997    1308.2214   -21834.218   -1025.8179    10999.058    77.644088    21.527474    25.492335 
 5176000     225.7419   -546.38464    216009.12   -20524.574    1312.8156   -21837.389   -1698.1191    11000.731    77.645762    21.526556    25.484542 
 5176200    223.79563   -432.73077    216009.12   -20529.006     1301.497   -21830.503   -1184.9882     10999.21    77.646014    21.527145    25.484943 
 5176400    223.47369   -409.54641    216009.12   -20547.444    1299.6248   -21847.069   -1070.3945    11000.522    77.645901    21.526447    25.480627 
 5176600     227.4259   -577.09208    216009.12   -20499.361    1322.6091    -21821.97   -1829.1764    11002.448    77.645805    21.526424    25.485251 
 5176800    234.08968    -434.0115    216009.12   -20479.087    1361.3627    -21840.45   -1204.1372    10998.253    77.646097    21.525666    25.489033 
 5177000    231.29802   -524.45873    216009.12   -20467.214    1345.1276   -21812.341   -1615.4042    10998.032    77.647556    21.525051    25.487656 
 5177200     221.7755   -586.06555    216009.12   -20488.958    1289.7488   -21778.707   -1869.6289    11002.458    77.648389    21.524121    25.486213 
 5177400    227.62929   -475.53948    216009.12   -20519.033    1323.7919   -21842.825   -1407.1874    11000.784    77.647976    21.524738    25.484551 
 5177600    231.76229   -458.21763    216009.12   -20450.423    1347.8276   -21798.251   -1335.6003    11000.628     77.64857    21.523079    25.487441 
 5177800    231.27957   -485.20566    216009.12   -20486.454    1345.0203   -21831.474   -1409.6851    11001.991     77.64969    21.522696     25.48818 
 5178000    224.14399   -423.24608    216009.12   -20510.736    1303.5229   -21814.259   -1172.6559    11000.418    77.650392    21.522842    25.483236 
 5178200    227.37221   -564.02647    216009.12   -20514.099    1322.2968   -21836.396   -1773.8382    10999.669    77.650435    21.522141    25.481442 
 5178400    220.96601   -558.88496    216009.12   -20525.036    1285.0412   -21810.077   -1735.4092    11001.979    77.651129    21.521706    25.489269 
 5178600    231.31279   -417.23532    216009.12    -20528.74    1345.2135   -21873.953   -1181.8837    10999.578    77.651018    21.522357    25.487735 
 5178800    232.60593   -498.71558    216009.12   -20476.585    1352.7338   -21829.319   -1481.6015    11004.035    77.651697    21.523598    25.477145 
 5179000    229.62722   -565.35851    216009.12   -20514.254     1335.411   -21849.665   -1774.6488     11004.61    77.651451     21.52432    25.478765 
 5179200    231.18782   -392.86975    216009.12   -20492.472    1344.4867   -21836.959   -1017.5029    11001.781    77.651925      21.5251    25.485633 
 5179400    222.22702   -454.68979    216009.12   -20549.437    1292.3747   -21841.812   -1276.9797    11000.709    77.651211    21.526563    25.482702 
 5179600    236.49295   -469.14597    216009.12   -20441.602     1375.339   -21816.941   -1348.6894    10998.975    77.651585    21.526318    25.480755 
 5179800    229.25213   -373.22538    216009.12   -20502.617    1333.2296   -21835.846   -925.63915    10998.121    77.652457    21.527228    25.485444 
 5180000    230.31248   -558.18799    216009.12    -20525.06    1339.3961   -21864.456   -1739.2894    11003.467    77.652299    21.528046     25.48078 
 5180200    217.59182   -479.79192    216009.12   -20593.597    1265.4184   -21859.016   -1378.7424    11000.783    77.652524    21.528015    25.485482 
 5180400      220.875    -499.4003    216009.12   -20564.284    1284.5119   -21848.796   -1507.9045    11000.739     77.65358    21.527504    25.481158 
 5180600    228.17731    -493.9768    216009.12   -20508.257    1326.9789   -21835.235   -1453.5857    11005.077    77.653565    21.528588    25.481757 
 5180800    234.21078   -413.33832    216009.12   -20489.284    1362.0669   -21851.351   -1105.3299    11000.763    77.654543    21.529296     25.47981 
 5181000    223.46897   -513.44673    216009.12   -20525.191    1299.5973   -21824.788   -1572.7016    11001.744    77.655696    21.529519    25.480274 
 5181200    224.73046   -508.81245    216009.12   -20529.344    1306.9335   -21836.277   -1530.5859    11003.284    77.655073    21.528618    25.471776 
 5181400    221.64411    -532.0942    216009.12   -20573.027    1288.9847   -21862.012   -1657.8416    11000.488    77.655602    21.528307    25.469634 
 5181600    227.42095   -560.24208    216009.12   -20499.992    1322.5803   -21822.572   -1730.1757    11003.987    77.657439    21.528078    25.466552 
 5181800     225.6356   -489.79691    216009.12   -20579.988    1312.1975   -21892.185   -1448.3125    11000.564    77.657771    21.527699    25.464151 
 5182000    229.51739   -491.50104    216009.12   -20495.711    1334.7723   -21830.483   -1454.9148    11002.882      77.6583    21.528022    25.463483 
 5182200    222.39637    -506.3297    216009.12   -20493.865    1293.3595   -21787.225   -1495.6235     11001.53     77.65991    21.528468    25.470677 
 5182400    225.32338   -477.49783    216009.12   -20486.388    1310.3817   -21796.769   -1416.0547    10999.688    77.661063    21.527813    25.475736 
 5182600    225.93478   -499.83851    216009.12    -20577.43    1313.9374   -21891.367   -1519.7738    11000.621    77.662203    21.527902    25.475866 
 5182800    230.94284   -569.45745    216009.12   -20525.276     1343.062   -21868.338   -1796.6579    11002.712    77.662533    21.529117    25.481176 
 5183000    229.12986   -397.32849    216009.12   -20515.786    1332.5185   -21848.304   -1029.3777    11001.258    77.662955    21.529205    25.475714 
 5183200     232.7482   -457.63874    216009.12   -20470.628    1353.5612   -21824.189   -1309.9478    10999.839    77.662856    21.528024    25.475552 
 5183400     235.6317   -514.52117    216009.12   -20475.784    1370.3304   -21846.114   -1542.3667    11004.962    77.663007    21.528413    25.478502 
 5183600    227.82551   -409.66887    216009.12   -20560.879     1324.933   -21885.812    -1085.875    11001.469    77.663527    21.528492    25.474033 
 5183800    220.88638   -472.86395    216009.12   -20585.769    1284.5781   -21870.347    -1359.809     11001.81      77.6645    21.527487    25.480813 
 5184000    223.95854   -516.44937    216009.12   -20586.423    1302.4444   -21888.867   -1567.4764    11002.033    77.665588    21.526205    25.483749 
 5184200    234.52262   -369.67019    216009.12   -20466.336    1363.8805   -21830.216   -916.95825    11001.195    77.665179    21.526412    25.470153 
 5184400    224.04237   -507.96079    216009.12   -20524.696    1302.9319   -21827.628   -1513.3012    11003.516    77.665347    21.524667    25.473289 
 5184600    227.89722   -512.72936    216009.12   -20467.838    1325.3501   -21793.188    -1544.059    11001.945    77.666352    21.524596    25.480877 
 5184800    221.01824   -433.49285    216009.12   -20523.686    1285.3449   -21809.031   -1208.9419    10999.174    77.666876    21.524675    25.484303 
 5185000    225.92932   -538.47416    216009.12   -20533.708    1313.9056   -21847.614   -1595.5949    11005.716    77.667145    21.524628    25.494154 
 5185200    226.05205   -503.59047    216009.12   -20517.369    1314.6194   -21831.988   -1480.7908    11001.422    77.666396    21.524986    25.484923 
 5185400    224.24094   -450.19421    216009.12   -20553.678    1304.0868   -21857.764   -1244.2676    11000.911    77.666895    21.526173     25.48266 
 5185600    225.41083   -621.98815    216009.12   -20516.911    1310.8903   -21827.802   -2032.4337    11003.353    77.666893    21.526906    25.483383 
 5185800    223.77726   -580.73254    216009.12   -20537.866    1301.3902   -21839.256   -1859.6084     11001.55     77.66681    21.526466    25.484417 
 5186000    231.29459    -515.6425    216009.12   -20489.376    1345.1077   -21834.483   -1548.1844    11000.933     77.66792    21.526158    25.486008 
 5186200    231.07306   -576.60779    216009.12   -20505.459    1343.8194   -21849.278   -1821.0702    11001.148    77.667545     21.52447    25.484468 
 5186400    220.81187   -425.74186    216009.12   -20512.495    1284.1448    -21796.64   -1193.5334    10998.943    77.667207    21.523882     25.48659 
 5186600    227.11279   -564.40025    216009.12   -20502.696    1320.7881   -21823.484   -1736.3802     11002.98    77.667232    21.524312     25.48229 
 5186800      225.094   -498.20061    216009.12   -20503.509    1309.0478   -21812.556   -1499.1539    11002.412     77.66696    21.523593    25.479677 
 5187000    228.83718   -399.58693    216009.12    -20528.19    1330.8164   -21859.007   -1064.1227      10998.5    77.666003     21.52262    25.478845 
 5187200      221.872   -568.33397    216009.12   -20487.672      1290.31   -21777.982   -1802.2461    11002.741    77.667268    21.523882     25.47398 
 5187400    230.99988   -513.34849    216009.12   -20504.496    1343.3938    -21847.89   -1572.0826    11002.144    77.666885    21.522701     25.48009 
 5187600    226.65463   -431.08301    216009.12   -20547.725    1318.1237   -21865.848   -1214.2523    10997.843    77.664806    21.520641    25.471618 
 5187800    233.94278   -506.80736    216009.12   -20498.135    1360.5084   -21858.644   -1516.8524    11001.532     77.66488    21.521317    25.472274 
 5188000    226.94311   -497.30774    216009.12   -20515.972    1319.8014   -21835.774   -1475.6542    11002.413    77.663907    21.519628    25.468465 
 5188200    229.33992   -467.81372    216009.12   -20472.541    1333.7402   -21806.281   -1375.7136    11000.509     77.66375    21.518952    25.468741 
 5188400    227.91442    -412.3919    216009.12   -20503.238    1325.4501   -21828.688   -1111.6418    11000.087    77.663749     21.51926     25.47863 
 5188600    221.01836   -582.82484    216009.12   -20504.454    1285.3456     -21789.8   -1813.1859    11004.612    77.663589    21.519545    25.478092 
 5188800    228.77354   -435.89053    216009.12   -20562.178    1330.4463   -21892.625   -1195.7206    11000.723    77.662675    21.518791    25.473429 
 5189000    226.10047   -396.08426    216009.12    -20555.13    1314.9009   -21870.031   -1042.8204     10999.23    77.661571    21.519181    25.473226 
 5189200    225.48038   -602.03429    216009.12    -20552.32    1311.2947   -21863.615   -1963.4494    11002.696    77.660775    21.519692    25.470716 
 5189400    226.23104   -438.43717    216009.12   -20616.556    1315.6603   -21932.217   -1242.3079    11001.816    77.660016    21.519048    25.472703 
 5189600    223.27819   -443.93701    216009.12   -20556.161    1298.4878   -21854.649   -1238.8008    11001.689    77.659345    21.519743    25.471623 
 5189800    227.13885   -490.50816    216009.12    -20515.41    1320.9397    -21836.35   -1426.4707    11001.008    77.659394    21.521009    25.479662 
 5190000    225.09416   -455.21723    216009.12   -20548.747    1309.0487   -21857.796   -1285.0932    11002.264    77.658259    21.519654    25.476245 
 5190200    228.79653   -557.25203    216009.12   -20521.565      1330.58   -21852.145   -1736.2386    10999.434    77.659006    21.520248    25.479627 
 5190400    228.95425   -493.81792    216009.12   -20532.999    1331.4973   -21864.497   -1474.7618     10999.22    77.658839    21.521866    25.479136 
 5190600    231.19541    -465.2815    216009.12   -20461.871    1344.5309   -21806.402   -1371.8329    11001.923    77.657721    21.521166    25.475897 
 5190800      226.416   -527.58868    216009.12   -20539.635    1316.7359   -21856.371   -1616.6053    11001.792    77.657326    21.520955    25.481435 
 5191000    226.24038   -502.75683    216009.12   -20508.637    1315.7146   -21824.352   -1477.0936    11002.666    77.657474    21.521341    25.479327 
 5191200    230.32151   -469.47045    216009.12   -20495.773    1339.4486   -21835.222   -1358.2693    11001.527    77.657654    21.522192    25.473828 
 5191400    225.67409   -571.91324    216009.12   -20524.175    1312.4213   -21836.597   -1850.2151    10999.933    77.656969    21.522033    25.476551 
 5191600    222.82384   -547.53092    216009.12   -20542.567    1295.8455   -21838.412   -1721.5971     11001.74    77.658294    21.521908    25.476092 
 5191800    226.17185   -537.96319    216009.12   -20532.996    1315.3161   -21848.312   -1629.2303    11001.823    77.657769    21.522423     25.48095 
 5192000    230.96998   -463.47255    216009.12   -20482.175    1343.2198   -21825.395   -1320.7376    11000.235    77.657361    21.520777    25.476262 
 5192200    231.01132   -542.31665    216009.12   -20454.425    1343.4603   -21797.885   -1692.4683    11000.222    77.657344    21.521997    25.470513 
 5192400    224.84726   -527.34069    216009.12   -20512.888    1307.6128   -21820.501   -1627.1544     11001.38    77.655789     21.52152    25.472843 
 5192600     229.5716   -487.85469    216009.12   -20490.626    1335.0875   -21825.713   -1442.4458    11001.525    77.654242    21.521549    25.473974 
 5192800    226.94076    -512.4569    216009.12   -20505.603    1319.7877   -21825.391   -1542.3056    11002.088    77.653597    21.520402    25.475587 
 5193000    226.44029   -488.39968    216009.12   -20487.263    1316.8772    -21804.14   -1443.0903    11002.487    77.653925    21.520913    25.476272 
 5193200    223.80569   -508.64864    216009.12   -20552.437    1301.5555   -21853.993   -1549.2915    10998.265    77.652401    21.520874    25.482836 
 5193400    229.11778   -589.96866    216009.12   -20473.417    1332.4483   -21805.865   -1877.7893    11002.117    77.650966    21.520531    25.472121 
 5193600    230.14303   -472.44253    216009.12   -20508.611    1338.4107   -21847.022   -1381.7649    11003.248    77.650299    21.519685    25.469557 
 5193800    229.58353   -465.47289    216009.12   -20486.967    1335.1569   -21822.124   -1367.1186    11000.486    77.650407    21.519891    25.474539 
 5194000    230.31696    -502.9712    216009.12   -20487.456    1339.4222   -21826.878   -1492.5952    11000.305    77.649624    21.518851    25.463789 
 5194200    223.21833    -380.1361    216009.12   -20562.008    1298.1397   -21860.147   -984.60923    11001.095    77.649875    21.518737    25.468037 
 5194400    223.95021   -429.06279    216009.12   -20535.127     1302.396   -21837.523   -1170.6761    10998.995    77.648541    21.519927    25.476642 
 5194600    224.81229   -534.91751    216009.12   -20501.909    1307.4094   -21809.318   -1583.4616    11004.514    77.648086    21.518647    25.468315 
 5194800    233.66105   -510.96487    216009.12   -20455.499    1358.8699   -21814.369   -1551.3425    11000.255    77.647769     21.51781    25.476799 
 5195000    227.23167   -466.15927    216009.12   -20519.378    1321.4795   -21840.858   -1326.9083    10997.749    77.647089    21.517789     25.48522 
 5195200    228.30025   -573.31467    216009.12   -20445.595    1327.6939   -21773.289   -1818.6879    11002.968    77.647164    21.516238    25.470085 
 5195400    225.26237   -412.04912    216009.12   -20517.422    1310.0269   -21827.449    -1139.629    10996.463    77.648012    21.515203    25.470983 
 5195600      227.139   -458.81288    216009.12   -20467.115    1320.9406   -21788.055   -1297.4528    10999.751    77.647263    21.515856    25.482106 
 5195800    226.94431   -605.33768    216009.12   -20532.488    1319.8083   -21852.297   -1947.4337    11000.944    77.646429    21.515953    25.482452 
 5196000    231.60081   -385.50337    216009.12   -20449.212    1346.8885   -21796.101   -1034.5108    10997.418     77.64652     21.51723    25.485698 
 5196200    228.39325   -449.19626    216009.12   -20469.262    1328.2348   -21797.497   -1243.3611    10998.757    77.646862    21.517962    25.493308 
 5196400    226.18464   -462.92617    216009.12   -20514.526    1315.3905   -21829.916   -1334.1444    11000.525    77.647417    21.517967    25.486383 
 5196600    227.76343   -384.79747    216009.12   -20479.378     1324.572    -21803.95   -997.16532    10995.843    77.645475    21.519231    25.484539 
 5196800    230.08643    -513.8562    216009.12   -20504.055    1338.0816   -21842.137   -1581.3972    10999.633     77.64605    21.519263    25.486498 
 5197000    230.81577   -574.43247    216009.12    -20497.15     1342.323   -21839.473    -1813.884    11001.579    77.646764    21.519902    25.484352 
 5197200     230.7505   -449.78386    216009.12   -20477.243    1341.9435   -21819.186   -1284.8985    10999.492    77.646754    21.519807     25.47882 
 5197400    222.15795    -540.6296    216009.12   -20527.298     1291.973   -21819.271   -1678.1321    10999.245    77.646817    21.521556    25.481366 
 5197600    227.48479   -517.01328    216009.12   -20535.889    1322.9515   -21858.841   -1576.8044    10999.875    77.647477    21.522124    25.482469 
 5197800    225.35383   -450.38212    216009.12   -20540.384    1310.5588   -21850.943   -1278.4719    10997.108    77.645856    21.521505    25.484654 
 5198000    219.15881   -435.21331    216009.12   -20578.379    1274.5313    -21852.91   -1219.0115     10999.41    77.645912    21.522363    25.474948 
 5198200     227.2902   -455.54653    216009.12    -20488.33    1321.8199    -21810.15   -1319.6736    11000.613    77.646123    21.522878    25.485307 
 5198400    232.83664   -497.70688    216009.12   -20481.661    1354.0755   -21835.737   -1507.4065    10999.095    77.645472    21.522967     25.49038 
 5198600    226.07652   -514.81672    216009.12   -20490.769    1314.7617   -21805.531   -1547.8729    11002.047    77.645993    21.523607    25.485371 
 5198800     223.4992   -420.83278    216009.12   -20561.944    1299.7731   -21861.717   -1173.0501    10998.295    77.646615    21.523282    25.486424 
 5199000    223.86885   -485.13819    216009.12   -20516.338    1301.9228   -21818.261    -1447.357    11001.475     77.64663    21.523437    25.495046 
 5199200    234.95184   -480.61458    216009.12   -20421.216    1366.3766   -21787.593   -1380.0563    10999.758    77.646845    21.523653    25.492545 
 5199400    219.57188    -458.7285    216009.12   -20536.825    1276.9336   -21813.759   -1299.0186    10997.822    77.647907     21.52404    25.484625 
 5199600    225.97509   -505.39834    216009.12   -20534.915    1314.1718   -21849.086   -1519.3926    11000.223    77.648184    21.523482    25.485941 
 5199800    226.68778   -491.95691    216009.12   -20501.755    1318.3165   -21820.071   -1484.3047    10999.586    77.649359    21.522058    25.483317 
 5200000    230.92849   -470.54707    216009.12   -20515.318    1342.9786   -21858.296    -1386.054    10996.071    77.649819    21.522125    25.486503 
Loop time of 7317.95 on 160 procs for 5200000 steps with 9248 atoms

Performance: 613.943 ns/day, 0.039 hours/ns, 710.582 timesteps/s
97.7% CPU use with 160 MPI tasks x no OpenMP threads

MPI task timing breakdown:
Section |  min time  |  avg time  |  max time  |%varavg| %total
---------------------------------------------------------------
Pair    | 0.24363    | 1485.9     | 5766.9     |5247.4 | 20.30
Neigh   | 0.32573    | 93.376     | 372.77     |1250.9 |  1.28
Comm    | 11.62      | 1808.3     | 5797.9     |4687.5 | 24.71
Output  | 89.491     | 89.568     | 91.455     |   1.6 |  1.22
Modify  | 231.74     | 3743.7     | 7127.9     |4865.6 | 51.16
Other   |            | 97.2       |            |       |  1.33

Nlocal:    57.8 ave 196 max 0 min
Histogram: 72 22 26 0 0 0 0 0 13 27
Nghost:    535.406 ave 906 max 0 min
Histogram: 18 6 0 8 8 33 34 15 21 17
Neighs:    0 ave 0 max 0 min
Histogram: 160 0 0 0 0 0 0 0 0 0
FullNghs:  5865.77 ave 23637 max 0 min
Histogram: 112 8 0 0 0 0 0 1 20 19

Total # of neighbors = 938524
Ave neighs/atom = 101.484
Neighbor list builds = 557215
Dangerous builds = 0
write_data 		${DIR}/data.${NAME}_run
write_data 		run_8/data.${NAME}_run
write_data 		run_8/data.ibeam_cooling_8_run
Total wall time: 2:02:13
