LAMMPS data file via write_data, version 29 Oct 2020, timestep = 50610

1863 atoms
1 atom types

0.0 68.908 xlo xhi
0.0 68.92587069519459 ylo yhi
0.05088207002802747 11.949117929971834 zlo zhi

Masses

1 18.015

Atoms # atomic

1361 1 5.205886473701725 15.459623242130869 11.043623559466582 1 0 -1
1257 1 2.5754157710609857 3.0895366182048014 11.097796502879813 1 0 -1
30 1 6.763146943988987 2.8533473079789076 10.856982501088526 0 0 -1
67 1 22.42011901542553 11.998385829637241 2.255161671941617 0 0 1
88 1 15.023393678843206 14.547349781554459 9.047654128150839 0 0 0
115 1 11.74636190583817 3.0469251280622354 1.6477161669605997 0 0 0
70 1 11.70214678004646 1.814113500169343 11.074082894135394 0 0 -1
278 1 16.08044920827928 1.5471327316327386 11.034973012565805 0 0 1
57 1 19.004214479852582 0.8752145332632 10.906892670642689 0 0 -1
589 1 8.095448754784844 1.534139897229384 4.600916721755783 0 1 1
1354 1 3.5410810268513266 6.944842172116364 0.603822985009101 1 0 0
137 1 3.527963066806218 5.385159032169723 2.9076908758250326 0 0 1
6 1 8.984485596677393 3.177325738364622 2.479440865343853 0 0 1
28 1 14.298994231917572 4.341993744115496 2.435400446504607 0 0 0
12 1 14.58934766726965 7.1624057086850526 1.4628299146474382 0 0 -1
198 1 18.14953863742678 3.841926581673744 2.6410158001936224 0 0 0
1109 1 20.24310618177598 3.009293626498584 0.5237264402368658 0 1 1
475 1 10.103883535033143 15.0438988374371 10.700752296538887 0 1 0
1335 1 0.9539448339999818 5.77580093046913 3.3946844968127756 1 0 -1
234 1 0.5440569817736528 9.75014330505867 1.3431926173374575 0 0 1
45 1 5.6780030538239545 8.066493913099826 2.3116270881061216 0 0 0
1398 1 4.874316145735086 9.48069998967007 10.979325482746358 1 0 -1
48 1 10.153214669087342 9.00011992153337 2.1841767630692193 0 0 0
181 1 8.164039247370532 7.804200731130156 0.31672605055518965 0 0 1
166 1 12.783573266315015 10.019366724779019 2.564103556261927 0 0 1
218 1 15.101465170451709 9.438205083740042 4.231647008997531 0 0 1
60 1 17.557561632539535 6.501121221208579 2.0101214413022124 0 0 1
144 1 18.413174118021573 8.514989757877846 3.5874188694328 0 0 1
154 1 19.34458871256801 5.75850141895317 11.673957604186507 0 0 -1
122 1 2.4170512770689454 10.900357206184912 11.4548464513725 0 0 -1
1485 1 2.0458266038640076 14.448439563006746 5.279391655844452 1 0 1
1372 1 2.967540314725263 13.378840518988822 0.27744768258343244 1 0 0
766 1 6.284057070100664 10.926816989472826 1.2591871334114404 0 0 1
258 1 13.42391534240547 10.042816711266092 11.795823568532624 0 0 -1
125 1 15.165002522188393 12.96518825940409 11.50322452188122 0 0 -1
136 1 17.115668982836755 10.57631510842202 2.0825470915643622 0 0 2
39 1 21.46493840304421 7.076055805132923 0.5197480160678063 0 0 1
560 1 9.37157854215882 0.8138417937919523 9.479144752629992 0 1 -1
51 1 21.354192250146408 9.885622398231957 0.10548944463694404 0 0 2
33 1 12.55200116806747 16.551825778145567 7.852700508085033 0 0 0
241 1 8.24764510506737 16.31179132779716 8.887490272668732 0 0 0
1722 1 7.160801263148605 0.4780535322510533 7.598757068327961 1 1 1
189 1 5.100280947992194 13.725208591856465 2.0538676347367377 0 0 2
1447 1 0.6697928057548629 14.196094420868764 1.4559813849861605 1 0 -1
419 1 12.125484160623497 15.89357373952349 1.9691318034308316 0 0 1
71 1 17.501133804799814 16.255696859955368 10.557480270157576 0 0 0
75 1 12.27100812240563 12.624384521122952 11.786643180807111 0 0 1
18 1 15.93408961092345 16.76871893387493 1.314603674069746 0 0 1
29 1 18.330225774141063 13.784862338295213 9.68280303909558 0 0 0
537 1 13.893342678535044 1.069854606943669 7.950159885921204 0 1 -2
1291 1 0.668302678084798 1.0554737255395594 2.5164480325163354 1 0 1
1551 1 2.175957046014062 2.552453586007166 6.640689906558122 1 0 0
116 1 2.6112576953892206 1.2081895878830853 4.407856924588991 0 0 0
270 1 7.92748809412328 14.817382846508874 0.6506570022061672 0 0 1
135 1 10.64667450410194 0.8831181449092128 5.222329399810952 0 0 -1
1835 1 5.292847383505028 0.293733406903215 9.56050504165165 1 1 -1
1114 1 16.356206509358707 0.36936133205020694 3.7321724974498585 0 1 0
86 1 15.55881040101386 2.262950943613829 5.679984881138109 0 0 -1
644 1 22.55827911413956 13.512692737103986 11.66879758824615 0 0 0
1763 1 0.2190307585243957 0.5296839569899058 7.636998590810253 1 1 -2
1165 1 11.501975866625848 0.014532240231824332 7.666390737616577 0 1 0
118 1 4.577657495064121 2.604757881831277 3.3038562711194404 0 0 0
19 1 4.439886504370716 6.988915416533544 4.899424166998579 0 0 -1
1313 1 9.36652383345848 5.100735904600013 4.3729295893419335 1 0 2
1296 1 11.220001033435004 3.693730564797799 5.7689894691333885 1 0 -1
235 1 13.806508168611266 4.172018194604629 5.1155410012795315 0 0 1
528 1 16.05680664105713 2.4389549427186634 1.8004549882182583 0 1 -1
80 1 21.37934952606497 3.7917031291442873 4.546930699805171 0 0 0
17 1 21.992456244120334 2.101946164978051 2.262513559835613 0 0 0
1386 1 1.8270718575658318 9.249118971993289 5.400075733068484 1 0 -1
1289 1 2.415379474384027 6.995144827997648 6.880209573419883 1 0 0
127 1 6.454707407150997 9.096774494684292 5.329609521334727 0 0 0
49 1 10.606236084387124 7.536881885993126 4.195092852806853 0 0 0
1334 1 13.34928554809396 7.071909205574338 4.08126524585373 1 0 0
121 1 12.956691736554056 9.088658223914553 7.749684243495271 0 0 0
110 1 14.723265148993857 6.93277246977082 6.504054313109104 0 0 -2
81 1 18.173408767402968 10.766621605889325 5.908291178360759 0 0 1
20 1 18.647180819661248 4.978003661236352 5.38874236705237 0 0 0
120 1 17.44416266132938 7.648640655814624 6.018812950690542 0 0 1
267 1 20.989857779066266 7.102992533254877 5.469010884544438 0 0 0
616 1 22.747241901252295 9.608943055993993 6.097665843522686 0 0 0
1507 1 3.1619847005719115 9.512558393195262 2.9288930622168445 1 0 0
158 1 3.5053498304305677 10.996768359220818 6.99728884131218 0 0 0
24 1 5.932141578738419 12.101507380389833 5.383396354148448 0 0 0
40 1 3.4617883231938156 12.64613095837856 4.036118779340134 0 0 -1
143 1 8.068057245476554 10.58297388548319 3.3787589215632203 0 0 1
109 1 9.836504248442731 11.470541467249312 5.765756691051804 0 0 0
195 1 10.310209244493473 8.919211863130148 6.674147361227201 0 0 0
93 1 14.886174249791555 13.087762986124481 3.5573867126732344 0 0 0
130 1 14.192859638465164 11.457518968625303 8.067400448637972 0 0 0
238 1 15.54809402154651 11.696487818141849 5.842593382680739 0 0 2
665 1 19.42180932185931 12.24956366477297 3.755536071804071 0 0 2
558 1 22.19004834935803 13.050736063117666 7.4242129728515325 0 1 0
229 1 3.36572828831936 16.799941339124548 4.926502884939328 0 0 1
1287 1 2.205762986492054 13.614515283861424 7.94753261968759 1 0 -1
205 1 5.820211583115855 16.370416751608392 6.549588282911818 0 0 2
271 1 8.283657451103963 13.604913896895846 2.9268846682689675 0 0 0
433 1 7.7413315057984935 14.685355059441186 5.23129068361297 0 0 0
191 1 10.82696076350293 13.301976277773706 2.2963083697786053 0 0 1
152 1 12.234358321183446 11.887548867488336 4.407782024542023 0 0 0
225 1 14.852957334956152 15.874058781855654 3.8973025107482746 0 0 0
167 1 17.173320855943636 16.89348466837448 5.341907183795942 0 0 -1
62 1 20.93358783254269 16.334364706914062 6.190598315916709 0 0 0
496 1 6.463637592172561 1.6796296005598277 1.5675417835542507 0 1 0
461 1 4.2125965690157345 2.8733867636180355 8.503832696233783 0 1 -2
61 1 5.882194283320979 2.8591313026589638 6.010643604121569 0 0 0
1352 1 6.84987005092708 5.41498062924685 5.726163119915534 1 0 -1
478 1 9.273284776410621 3.842034523103933 10.008717467219823 0 1 -1
564 1 22.222919322609233 6.002075525330235 3.1299861749776725 0 1 -1
626 1 21.08721751835454 9.698682159407404 3.4317582930912702 0 0 1
757 1 13.918091990785374 3.0124899489122345 9.886569599796028 0 0 0
58 1 22.531937689025057 3.92201176926089 10.421469009287938 0 0 0
686 1 19.89857921206445 2.640336777799041 8.418748530476282 0 0 0
85 1 7.226134112824418 5.957154470380719 9.759787711492788 0 0 -1
95 1 4.894674382358025 5.121472621310443 10.91713321248937 0 0 0
521 1 9.764154887136378 5.361619941266632 0.3980279530905221 0 1 1
56 1 10.575294325015479 5.131897396065567 7.915805362218836 0 0 1
79 1 12.13767295681197 6.850813334880971 11.683896919009026 0 0 -1
265 1 12.848036396205837 6.142067258275654 9.10047779071909 0 0 0
692 1 19.204021432161756 7.954847714075472 8.175536247292253 0 0 0
83 1 17.304738616516595 7.070380318242117 10.014309930242593 0 0 1
595 1 17.579115535220765 3.5694807553675045 7.25466770840273 0 0 0
119 1 0.2177713308354645 4.483348351872134 11.303483884387761 0 0 0
141 1 21.769879411391845 6.265072357389945 8.450133666195626 0 0 1
693 1 22.33330698113501 2.4674233539271913 6.9691576198484695 0 0 1
139 1 0.8210833395281206 7.172854090850007 0.19318178191815594 0 0 -1
261 1 1.4037607255963207 8.06805077670814 9.422590552116544 0 0 -1
1541 1 1.3156688763702202 10.797640130633287 8.808654521741687 1 0 0
164 1 5.914623401495394 9.694410387347 8.190212042837395 0 0 0
1412 1 8.323723727515045 7.210947460953223 7.543104847974478 1 0 0
178 1 8.341628503590968 9.300039285040878 9.934402286018399 0 0 0
215 1 11.417592295559265 9.054735945174249 10.047087691352052 0 0 0
16 1 16.44671433437143 9.04571984241094 11.698332321257025 0 0 0
132 1 15.729041866713306 5.092938602339944 8.60232967252473 0 0 -1
753 1 19.1396547506874 10.234983841857796 9.999188362879176 0 0 1
89 1 0.752339199107592 5.013796956791706 5.945008058054356 0 0 0
865 1 20.90458792999803 14.00204895676056 9.617862490229635 0 0 0
260 1 6.54078491039598 12.611329658887984 8.317319434619183 0 0 0
1376 1 9.000389529883279 13.644068238700955 7.697542517642571 1 0 1
76 1 7.382393655154725 12.315917111356494 11.174393248928336 0 0 0
754 1 12.099550879449277 13.724475882434914 8.57571142371319 0 0 1
174 1 10.081808488856291 11.768080849107644 9.991919217227395 0 0 0
1339 1 16.34469277891571 11.069908418332009 9.714653871637566 1 0 2
1283 1 17.04571837412352 14.235321920442242 6.980616161027814 1 0 1
617 1 16.944351825510097 13.711845586468066 1.5970963320889677 0 0 2
777 1 20.667346996347533 10.795017012274883 7.630251306706306 0 0 0
25 1 19.582753198451407 12.553735016482266 0.5324872561354339 0 0 1
1387 1 4.857597821855516 14.758731554060576 8.558007298784386 1 0 -2
209 1 22.506347180797025 15.781147689626833 1.1094729669534016 0 0 0
11 1 21.390056579598326 13.748643244037455 4.995843291920096 0 0 1
196 1 4.73148470987039 16.29948587719461 2.5498890645899 0 0 -1
1297 1 1.4419153646843024 0.1374638997571303 11.442738813720783 1 0 -1
108 1 21.437234252834106 16.830702190387246 8.949770668461747 0 0 1
480 1 12.279496021464745 0.76483658585838 3.135563695874567 0 1 -1
150 1 19.49046050016428 0.256518302986512 7.003532944990208 0 0 -1
1295 1 2.767137427707101 20.09251959243802 2.0847040015637113 1 0 2
1457 1 7.099773952198684 21.024636079531028 1.412855132297228 1 0 1
41 1 10.645194279213237 20.175779337502384 2.0739667956090213 0 0 1
735 1 13.286777287024893 20.841929436979502 0.546115353210544 0 0 1
156 1 16.382353813275408 18.815480611258163 7.575964976381681 0 0 1
799 1 20.674134134849066 17.390760408391284 11.780098505255832 0 0 0
712 1 20.951733536761637 19.949468929898657 0.30872216245540435 0 0 2
403 1 20.649048103682965 34.09080949652645 8.812439557687867 0 0 -1
395 1 1.325372953303498 22.496256014185693 1.8285744111087563 0 0 -1
1464 1 0.5115860571316162 21.42564263083182 10.939689321197907 1 0 0
1459 1 5.851935948561683 23.047153168090883 11.787958075361958 1 0 1
202 1 9.818036526126201 24.198185967420258 0.7404943072529543 0 0 1
145 1 8.976899031005201 22.49730854080122 2.7879826815504067 0 0 0
211 1 13.86807662559546 21.63093044411355 3.6498625670649374 0 0 1
204 1 15.124771648394185 23.788242087149843 2.581614662883363 0 0 2
200 1 16.81289730474912 22.682518898739072 0.9907875722059863 0 0 1
819 1 18.672304297172786 20.94548114048036 1.8723197185659128 0 0 0
310 1 20.73248381145876 23.326746610164037 3.500405318237973 0 0 0
269 1 21.437499989557104 30.35573039609437 10.455425177738642 0 0 0
1433 1 0.9727169829975163 26.72872994379463 2.9250746433215813 1 0 0
1672 1 0.42674189492480935 27.993368349498528 0.7371809917182166 1 0 1
1416 1 2.940714997598873 24.603919850940258 2.3187385587743297 1 0 0
273 1 2.891218839485212 24.701383504442944 11.533627567135733 0 0 0
161 1 8.291540670653601 26.090246649891874 2.8816509689816154 0 0 0
182 1 11.304863024855942 26.18846449659135 1.8108510081750822 0 0 1
971 1 14.02243230665078 25.84215156945472 0.9947158556364635 0 0 2
274 1 18.745288631607636 25.358628101311375 2.4808409286701854 0 0 1
197 1 17.79674339547557 25.06993370737895 11.765769749186928 0 0 0
1051 1 20.16614283634121 27.638961225605836 3.196534157313148 0 0 1
1667 1 2.274950413992291 29.98057181473937 0.9104037613553947 1 0 2
910 1 4.689432494975077 29.031458952742543 2.057566606704906 0 0 0
1721 1 3.2065199646845306 32.12229099428349 3.331701633359 1 0 0
304 1 4.451980647739426 26.9900220684462 11.455715018180786 0 0 0
203 1 7.220040650964607 27.398610291448218 0.5649718806129541 0 0 2
224 1 10.878190988129214 28.63596623923831 3.1345445046892197 0 0 1
367 1 13.248951038367654 28.79229285139133 4.547900732583573 0 0 1
281 1 15.275449261573293 27.62049538624543 2.784791055459829 0 0 1
291 1 17.964485538807388 29.332519616643893 2.570839374421085 0 0 1
111 1 21.000688001400526 29.0169195524323 5.793263377137888 0 0 1
1703 1 2.2546085997679493 32.963231664399245 5.708109988620185 1 0 0
147 1 21.85509680937314 25.94583277521505 1.0107383356971362 0 0 2
1460 1 6.167662316270755 31.485477601527613 2.6679690344437925 1 0 -1
623 1 3.1181431704062903 17.652307823842897 0.8009121085087642 0 0 0
1435 1 7.863074990219231 30.197906049249585 0.6403932079731162 1 0 0
361 1 11.774683751240866 31.74082550150517 2.734163767676347 0 0 -1
257 1 10.798014019101016 29.97538066540832 0.5453654284896146 0 0 0
815 1 14.096803424974553 31.305993358889953 4.593482478151234 0 0 1
262 1 19.36137156422698 32.03320593080206 2.502020982063447 0 0 1
222 1 16.040528403858904 31.663639953142603 2.6413083202606606 0 0 0
1008 1 19.41405580731141 32.520532518825874 5.094476219626664 0 0 1
859 1 20.586171292087535 33.575087646971944 0.0901238188533302 0 0 1
1500 1 2.061853464282194 19.39073637924838 5.143844836660893 1 0 1
259 1 3.1999798463655726 19.797482585625577 7.733440103659525 0 0 -1
180 1 6.111568732767147 18.95826255492569 7.784941556422166 0 0 0
59 1 5.3541989891791975 19.9371354397081 3.3453629925421025 0 0 2
263 1 8.598309225036399 17.46688180718913 4.625428825830566 0 0 0
82 1 21.89694751929148 31.10079711267439 1.4007812489235756 0 0 2
1413 1 15.41020976648266 19.75163663636617 4.918867322674062 1 0 1
237 1 13.395824148500528 34.43425108853327 7.617001963588853 0 0 0
34 1 16.903086332297814 22.031950224089 6.223654376960287 0 0 0
226 1 17.07135591358014 18.747263410336014 2.73840769144509 0 0 1
27 1 19.65195161185803 18.341719917340196 4.492137818370525 0 0 1
884 1 22.807005659469976 24.741278904523227 6.576378928585234 0 0 1
50 1 21.89707258529433 20.319669545777625 5.241960085205151 0 0 0
250 1 2.5245347414821775 24.98332846585326 6.596940230258752 0 0 1
1651 1 2.2104845692597714 22.566637980703838 4.986156471822242 1 0 0
1471 1 6.739598416986465 22.73812811824176 4.745618350540672 1 0 0
186 1 8.010957059536327 23.4316415172881 8.38076263126256 0 0 0
375 1 8.088096962605421 20.043447616365636 5.769623730846414 0 0 0
1465 1 11.056532370349986 22.011250548933454 4.876829233211077 1 0 0
227 1 14.233483813519179 23.067958989952558 6.254835506347226 0 0 0
179 1 19.165916190741637 21.27472960434634 4.942332579299961 0 0 1
113 1 17.18052784225504 24.942204948565067 5.029199527626939 0 0 0
193 1 5.682266126896818 24.239136538329294 2.6072343159554907 0 0 1
1579 1 4.201942095334042 26.318791423973128 4.59571965372129 1 0 0
160 1 10.34505724295635 23.66860093777373 7.065493388858733 0 0 0
1591 1 9.929405327096998 25.980778029446295 5.781875839988721 1 0 0
168 1 11.988724180716426 24.614064094318657 4.163617408538375 0 0 0
289 1 17.223098789788203 27.210227764724156 7.961640156726787 0 0 1
381 1 14.383267382271413 26.050621568746 5.476575636143225 0 0 -1
199 1 19.072537287465092 25.267476638041533 7.365817380969973 0 0 0
87 1 18.65281428381472 18.30593245528134 9.031198500562114 0 0 0
669 1 21.47277610764722 26.855887606105608 7.318804817226188 0 0 0
1322 1 2.090720405490267 28.892168768217076 7.476387716859259 1 0 1
1490 1 2.496886911312017 28.647227876032755 4.214116107399586 1 0 1
275 1 6.774454947988053 28.038225679605397 4.223134299846726 0 0 1
990 1 8.924736931449848 29.54885119130586 5.329358125593239 0 0 1
1653 1 9.851619265808512 28.031977987787457 7.287119849677426 1 0 0
290 1 12.416474772268675 29.223532647914777 7.4724226112563805 0 0 1
295 1 17.024694109290447 28.614724209766287 5.461075254381866 0 0 0
207 1 18.608544103170352 30.597430386880404 6.5882966914642145 0 0 0
294 1 5.931589731568446 32.89240267619546 9.896761886438439 0 0 0
236 1 22.34924182880882 30.17586011098716 7.7590994309593375 0 0 0
277 1 0.7638632647106678 30.638677132729374 9.17024445681385 0 0 1
1531 1 3.162158457018833 31.48335446412585 10.41610998341192 1 0 1
1670 1 4.038945810511737 33.051194460969974 7.794058292601935 1 0 0
1002 1 11.982190003883487 32.080462826030455 6.7882774170716695 0 0 -1
256 1 9.757747823975542 32.439984037882475 4.909563836667792 0 0 0
214 1 22.332672292992445 20.70833376834065 8.058394728430697 0 0 0
417 1 15.706955399414054 32.85927368196175 7.11548812477589 0 0 -1
347 1 10.065716511269574 34.41612991198625 9.527018467664824 0 0 0
254 1 0.4323687550468014 32.10835988389909 1.1144332399963055 0 0 2
783 1 21.910509284580698 32.72727613315258 6.708636471505339 0 0 0
792 1 3.3045664637326517 17.555752950146406 9.566736530441185 0 0 0
325 1 18.568663792886053 30.32495835046722 9.523649585401387 0 0 1
1378 1 3.1001387137335636 20.464576796281545 10.94631578570458 1 0 1
32 1 8.933530142784505 19.150392699783293 0.234997770803325 0 0 1
279 1 6.385287422628574 18.166229883742204 10.669697256054384 0 0 -1
233 1 3.696681784039734 34.43387345404648 1.8963167044897729 0 0 -1
216 1 10.460961494836145 17.803558143055632 8.72907285410763 0 0 0
170 1 11.208103422328712 17.852230501049405 11.478085778716475 0 0 -1
1448 1 13.95957783084279 18.162854846990246 0.21534512196710978 1 0 0
316 1 0.9841677715507307 33.650814956131974 9.844228892354954 0 0 0
138 1 20.15437054293287 21.07235349316314 9.79454962881677 0 0 1
212 1 1.891596097111585 22.127436269013245 8.474998511449495 0 0 -1
232 1 4.0516555729704065 24.029856759228753 8.858562838387247 0 0 1
1428 1 5.623034897438054 22.064805425525226 7.198248659032138 1 0 -1
231 1 8.71733417090168 21.079771893916462 10.06137417095272 0 0 -1
1573 1 7.790390131603266 24.799447469513957 10.922529963544877 1 0 1
159 1 10.978262033762764 22.206462937819044 10.90096763851872 0 0 -1
26 1 10.14223605379452 20.484728086445724 7.411046791454878 0 0 0
1643 1 12.90110731097109 22.064966569477413 8.472110876818897 1 0 1
340 1 17.157721716577615 21.255365792686685 9.300829894430494 0 0 0
434 1 15.02119710468224 22.232528682201583 10.867338552450596 0 0 0
91 1 19.022148594711954 23.857909696469118 9.54324212046677 0 0 1
873 1 21.82064916575306 24.787112634490864 10.13106450851843 0 0 0
829 1 20.622552047684852 23.21057573891093 0.8017714550967259 0 0 1
172 1 0.44627149109824027 25.571469764691642 10.87002309082617 0 0 0
264 1 0.5271881253395307 26.448329147200706 8.128294018277964 0 0 0
1456 1 7.288234300433312 25.44500492528542 5.694019568059526 1 0 2
194 1 6.019193509059411 25.819675144512896 8.1383412197662 0 0 -1
176 1 10.755049065807585 27.349009389742672 10.87541806245481 0 0 0
74 1 12.120018603855083 24.831028248070826 9.14358637271841 0 0 1
213 1 15.03954185250121 24.833227717069416 10.483565931824689 0 0 0
284 1 14.231384578784336 26.803992628909683 8.056738589645738 0 0 1
165 1 22.42604169674885 27.48551039005376 9.852080439573324 0 0 -1
1524 1 4.1708574645802186 28.883532190871456 9.636786628942309 1 0 1
1710 1 5.236712487131376 28.299159442822752 6.780216781097243 1 0 1
328 1 5.279208292864303 31.265485124025542 5.839196130062005 0 0 -3
185 1 8.081399034003423 27.688249163110587 9.655438020796439 0 0 0
210 1 12.913776879185702 28.652273842042067 10.075546378420633 0 0 -1
371 1 17.436202815585492 27.75805195249185 10.824443395753324 0 0 0
330 1 15.271919029283643 28.87177381696855 11.705333694846654 0 0 0
850 1 20.0014411154672 28.531518939525306 0.2863308466832698 0 0 2
444 1 16.790230572455876 32.147141886812946 9.63396315242648 0 0 1
255 1 12.00166392903554 32.54033579335559 11.705860040850354 0 0 -1
133 1 14.755724434448222 17.445354749445833 9.456589013892692 0 0 2
1467 1 6.817231750317859 30.17662692238049 9.826603135899626 1 0 0
426 1 7.854348580373723 31.362580380546103 7.385800507624428 0 0 1
1533 1 10.449215011924423 31.524306479034802 9.1663202225142 1 0 0
208 1 14.963234534277776 31.704939320177015 11.830519409002383 0 0 1
789 1 22.169337111349364 34.17452629236528 4.06124478898977 0 0 0
66 1 11.258178276388541 17.85150138629119 3.51579751901729 0 0 0
99 1 13.169166982849067 17.913497585821013 5.403846268043691 0 0 0
397 1 6.193076396265859 33.66175502244527 0.8236973174651013 0 0 0
1556 1 7.1725624337478315 17.60744219129322 2.4395905516501086 1 0 1
1496 1 0.3970610974712562 17.25343406313364 1.3936063035275814 1 0 1
794 1 22.912315248254906 29.653302931966696 3.584987795839309 0 0 -1
293 1 16.66781430679346 34.3845153165015 2.6817399522812377 0 0 1
173 1 22.836059858386307 36.683821099792134 5.279297065512522 0 0 1
514 1 20.996419750974184 49.724684436938226 10.00912135319343 0 0 -1
1473 1 3.732396861838558 36.71034828691585 3.536144690556273 1 0 1
314 1 6.6122228203342015 36.60895482858433 3.9235187059268437 0 0 1
192 1 0.1282446006863658 39.651492845993204 0.1957567593964869 0 0 1
399 1 7.921810858584968 35.8406979890805 1.2486310019277367 0 0 1
335 1 9.884564474814548 36.12156706454426 3.2949211720926104 0 0 1
292 1 10.485070442347558 34.95624204751045 0.3614128996579256 0 0 0
326 1 21.135668045639342 36.082031818761536 2.012890053156662 0 0 2
465 1 5.8688263498307665 51.17957058977914 11.863564010184222 0 0 -1
402 1 18.296932240286427 36.30281763140344 1.4529182797426787 0 0 0
1711 1 0.10958221549849156 41.740404267741646 6.7482179650787755 1 0 0
1029 1 17.483038579229984 38.391478109461694 11.442264147225002 0 0 0
1066 1 15.337750895240319 34.54088987359298 11.625584802023486 0 0 1
246 1 8.360180713289411 34.81125417358015 5.320708085896959 0 0 1
247 1 4.64108099290935 40.791507095746034 2.8813401971073365 0 0 0
421 1 8.037056337428616 39.14222677500837 0.7638032935752624 0 0 1
286 1 9.237910780714579 38.91905724146609 3.6993018851589374 0 0 0
525 1 10.188300742772261 39.45373244576513 10.759023508300887 0 0 -1
418 1 14.291782958814869 36.14248932968979 1.863199351531239 0 0 2
245 1 12.002176576957996 39.305321521302666 2.1095532058185165 0 0 1
937 1 18.810548624759598 38.20951175390217 4.134265240101466 0 0 -1
416 1 15.729688193019447 38.27127600857057 3.0757447085820218 0 0 1
1110 1 19.869976616000926 42.395136724028305 11.189887526272633 0 0 1
303 1 21.25153491691725 50.313954009737465 3.2314013439097518 0 0 1
1646 1 2.4200359818771524 40.59206327244154 11.08298193421658 1 0 -1
359 1 7.155385367111512 43.92527763008425 1.447826494582328 0 0 0
338 1 6.029804852928025 42.862209050150284 3.756679483403998 0 0 0
573 1 10.175081804200591 42.30121150632929 11.041955987590056 0 0 -1
346 1 11.19549775664301 42.1933812640978 1.71459430209715 0 0 0
452 1 13.665441112678309 42.313367101800885 3.9169437805300706 0 0 2
368 1 15.112873319138405 43.9482861766731 0.31012186060101676 0 0 0
992 1 18.546305817860954 41.60609637163041 1.6496830550123314 0 0 1
239 1 19.2230881360392 44.2225573824622 2.2090028947417584 0 0 0
1182 1 22.04358905510854 44.92068854574877 2.8459855495159165 0 0 1
958 1 15.242728467266783 47.29669648914941 10.514493148036168 0 0 0
1697 1 0.33728804589731504 46.21104972611666 10.807996123122116 1 0 -1
428 1 4.51988498635519 45.72295325738392 0.5380425865605303 0 0 0
1690 1 4.243848302809211 47.65246575605211 2.6897836974030187 1 0 -1
479 1 2.423760277927549 44.699922328767514 2.3093566135734584 0 0 1
409 1 9.212914855341495 46.0164008728448 0.1651678799928385 0 0 1
555 1 12.606099562144244 45.3438761763617 1.5327186425036479 0 0 0
487 1 9.901973632776729 44.35806106740069 2.8084127378416115 0 0 1
386 1 15.07539611098004 46.84096375936553 2.4367385678962292 0 0 -1
1226 1 17.174681959749453 45.99965433262893 0.6747448549747977 0 0 -1
539 1 3.5559785369223955 50.756114633956244 6.726147712490423 0 0 -1
376 1 1.5452731288792465 49.02600320950342 2.106898829836098 0 0 1
358 1 5.027623643008046 50.33828797742065 2.784068143461188 0 0 1
1199 1 7.503917152296688 49.8511668943078 4.094201179523609 0 0 1
1015 1 8.632746547179721 48.0935933859518 1.9197117991917332 0 0 0
1113 1 11.102454238399442 47.55529616404901 2.8069605241270215 0 0 0
404 1 13.221555649348934 49.30479943124035 2.668526636994038 0 0 0
929 1 18.606699483855923 48.57192986440217 11.30505900742919 0 0 -1
1128 1 19.34833238938236 48.686777815242635 2.2022253993298286 0 0 -1
253 1 13.668994238769542 36.19748639330857 5.182418652256863 0 0 0
243 1 1.61879569737623 35.79467122742632 5.411040882885218 0 0 0
1605 1 1.372710100734426 51.51809354513455 0.7307364513786136 1 0 0
1592 1 2.392643968455811 35.68565665219401 8.544411166476173 1 0 0
331 1 1.8404746286834153 43.46053513489312 11.719157352768663 0 0 0
431 1 5.964253832181561 35.03564858075732 7.0711108916456915 0 0 1
1644 1 0.44808657661061363 37.096343947234445 10.710770836413257 1 0 2
441 1 11.98533829994663 38.0948561871802 6.694492282981895 0 0 0
332 1 10.443741507086344 35.6350850578874 7.241462378054251 0 0 0
1044 1 12.383413413827201 34.508483381578365 2.9770899475914816 0 0 1
351 1 16.36620894319601 37.272440248124056 5.752514710322172 0 0 1
933 1 18.83665687779474 35.94687480648645 7.583904651438408 0 0 0
1511 1 1.0690792594170193 34.74913665574183 0.7272964323018158 1 0 0
363 1 2.770777630156941 38.05140392623135 6.611871781463674 0 0 0
240 1 5.563880650137121 37.84505909681992 7.018699342186191 0 0 1
223 1 4.80422116561678 39.27211995390663 9.215080482008728 0 0 0
183 1 6.233125585383172 39.26042024717028 4.6061444789193144 0 0 -1
957 1 9.630253287786454 39.75340506836485 6.252539825891377 0 0 -1
282 1 12.85885964425871 38.74061260017912 9.216374070610442 0 0 -2
311 1 16.576617407723784 39.74759211869406 7.463302025824782 0 0 1
1055 1 19.2986847584926 40.777441737531056 4.069872931698397 0 0 -1
323 1 20.46147745389615 37.69867962648674 6.210778910969398 0 0 0
321 1 2.0504471935169413 41.93557831415167 4.76676386351497 0 0 0
1648 1 0.03734113401498007 38.619669816739325 2.6977452785398284 1 0 0
393 1 2.4337633882014007 39.09757005615239 3.8647499357491815 0 0 -1
1608 1 3.9453283647459516 44.010429775825855 4.955745784204297 1 0 0
584 1 7.443810930869829 41.92574063306769 6.076809264325794 0 0 -1
778 1 11.667173741719942 41.9456901243876 5.89026305655798 0 0 -1
924 1 13.511984606139011 39.581961610785754 4.231992273843051 0 0 1
307 1 15.538470332595626 44.080775922902006 7.200851212737566 0 0 0
276 1 16.028890238289733 41.73318406802936 5.167263294365235 0 0 1
1012 1 21.86994176149428 41.05994576440588 3.2028651742392644 0 0 1
297 1 19.49487921454289 42.829513625859775 6.223657912427602 0 0 -1
308 1 0.8775276537425163 46.917180468158044 5.878300194764391 0 0 0
473 1 3.4935507938499906 46.73505973220343 5.111436115537274 0 0 1
458 1 4.996957979246083 48.37687740628294 7.004410604988025 0 0 -1
582 1 4.18133853440033 47.0063036325626 9.057578970548118 0 0 -2
436 1 6.7670113032983465 46.634323026750735 2.929139704596423 0 0 -1
380 1 9.465818702758702 43.68265251670649 5.808657578766742 0 0 0
407 1 10.05133860306638 47.37846206574065 5.4576911573772975 0 0 0
306 1 12.28623995002157 45.86683262270738 6.583357463588209 0 0 0
353 1 14.087538805126078 44.9646773911345 4.295791534377734 0 0 1
427 1 17.510108614577227 44.63785261821456 4.655553641587501 0 0 0
440 1 19.41406412503225 45.944178130481475 6.795006887781229 0 0 -1
526 1 17.573939226872195 50.44506724722613 3.459827926757675 0 0 1
1104 1 13.892191717851588 49.43369473222442 11.741020945912357 0 0 0
576 1 7.265218175273127 47.16056880165542 5.441894387751947 0 0 0
1129 1 22.623328768321326 43.86038004373135 9.513061768224466 0 0 1
477 1 14.236804960175425 50.785699001154114 6.365848451009344 0 0 0
1117 1 16.874985030683433 47.50208000335528 6.379549773448195 0 0 1
581 1 15.442078793718325 49.28633748603594 4.32457618221574 0 0 1
568 1 21.593110329980753 47.54069670442781 6.609029459780862 0 0 -2
681 1 20.930796411687783 50.08038843722852 7.311232093785072 0 -1 -1
504 1 11.73651294727554 48.9201889972223 10.129726659318239 0 0 0
1705 1 4.054111324417185 35.76796896328963 10.885202030575822 1 0 1
1808 1 3.312260740368842 50.586448063484774 10.743514100166063 1 0 0
424 1 6.3743967386612335 37.45363948461808 10.953489078720972 0 0 1
1054 1 12.186477935368076 37.18548778991405 11.714613896794464 0 0 0
288 1 14.159812056032308 36.13497962363333 9.64838375648308 0 0 -1
384 1 16.81572181756225 37.253522577769374 9.112836103089167 0 0 0
296 1 17.75357068234687 49.235361523597675 8.363996858431806 0 0 -1
327 1 21.550173736694124 37.218971091226955 11.535023106591028 0 0 0
1046 1 18.647888946195167 51.33068515781326 6.2016862164766975 0 0 0
334 1 2.6682822765434624 37.58069591838502 0.5434845383998211 0 0 1
435 1 0.8485832212014962 38.592945542329076 8.517980152446471 0 0 -1
357 1 5.12580040394375 40.38673113784176 0.1724656061212641 0 0 1
405 1 5.283255548866214 43.05686983744762 11.382042857237527 0 0 0
391 1 8.21089881754831 38.78465496610023 8.486083502084059 0 0 -2
912 1 14.826348110108283 40.748176212463356 9.442313509565839 0 0 1
1027 1 14.82395530191556 39.642789589301984 0.37549416439214606 0 0 1
505 1 18.620091532837346 41.27487060456773 8.66846152592846 0 0 0
341 1 20.147311843208087 39.22976234302137 10.821820190638705 0 0 -1