
# read in graphite data
read_data data.graphite group graphite extra/atom/types 1
Reading data file ...
  orthogonal box = (0.0000000 0.0000000 0.0000000) to (68.908000 68.925871 10.062000)
  3 by 4 by 1 MPI processor grid
  reading atoms ...
  5516 atoms
  reading velocities ...
  5516 velocities
  read_data CPU = 0.009 seconds

# Insert water
read_data data.Ibeam_MLmW_240K add append shift 0.0 0.0 ${Z_G} group water offset 1 0 0 0 0
read_data data.Ibeam_MLmW_240K add append shift 0.0 0.0 10.062 group water offset 1 0 0 0 0
Reading data file ...
  orthogonal box = (0.0000000 0.0000000 0.0000000) to (68.908000 68.925871 22.011118)
  3 by 4 by 1 MPI processor grid
  reading atoms ...
  970 atoms
  reading velocities ...
  970 velocities
  read_data CPU = 0.003 seconds


# Define potential
# CHECK ON THIS %%%%%%%%%%%%
#
pair_style sw
pair_coeff * * MLC_e.sw C mW


# Delete water and ice atoms that are overlapping
#
delete_atoms overlap 2.5 water graphite
System init for delete_atoms ...
Neighbor list info ...
  update every 1 steps, delay 10 steps, check yes
  max neighbors/atom: 2000, page size: 100000
  master list distance cutoff = 6.6747184
  ghost atom cutoff = 6.6747184
  binsize = 3.3373592, bins = 21 21 7
  2 neighbor lists, perpetual/occasional/extra = 1 1 0
  (1) command delete_atoms, occasional, copy from (2)
      attributes: full, newton on
      pair build: copy
      stencil: none
      bin: none
  (2) pair sw, perpetual
      attributes: full, newton on
      pair build: full/bin/atomonly
      stencil: full/bin/3d
      bin: standard
Deleted 112 atoms, new total = 6374

write_data test.${NAME}
write_data test.Ibeam_240K
System init for write_data ...
Neighbor list info ...
  update every 1 steps, delay 10 steps, check yes
  max neighbors/atom: 2000, page size: 100000
  master list distance cutoff = 6.6747184
  ghost atom cutoff = 6.6747184
  binsize = 3.3373592, bins = 21 21 7
  1 neighbor lists, perpetual/occasional/extra = 1 0 0
  (1) pair sw, perpetual
      attributes: full, newton on
      pair build: full/bin/atomonly
      stencil: full/bin/3d
      bin: standard


# Fix graphite atoms in place
#
fix 1 graphite setforce 0.0 0.0 0.0
velocity graphite set 0.0 0.0 0.0
velocity water create ${TEMP} 120598 rot yes dist gaussian
velocity water create 240 120598 rot yes dist gaussian
timestep 5.0

# Define output
#

compute 1 water msd
compute 2 water stress/atom NULL
compute 3 water temp

thermo 100
thermo_style custom step c_3 press vol etotal ke pe c_1[4] density

# Neighbor lists
#
neigh_modify delay 0 every 1 check yes




# Set fixes
#
fix                 2 water momentum 10 linear 1 1 1 rescale
fix                 3 all nve
fix                 4 water temp/csvr ${TEMP} ${TEMP} 500.0 928347
fix                 4 water temp/csvr 240 ${TEMP} 500.0 928347
fix                 4 water temp/csvr 240 240 500.0 928347

# Run 0.25 ns equilibration
#
dump                1 all custom 100 eq.${NAME}.dump id type x y z vx vy vz
dump                1 all custom 100 eq.Ibeam_240K.dump id type x y z vx vy vz
run                 50000
Per MPI rank memory allocation (min/avg/max) = 5.595 | 5.598 | 5.601 Mbytes
Step c_3 Press Volume TotEng KinEng PotEng c_1[4] Density 
       0          240   -1087.8071    104542.77   -7314.5099    613.09301   -7927.6029            0    1.2977724 
     100    280.12581   -482.34744    104542.77   -7433.6201    715.59658   -8149.2167    1.7049344    1.2977724 
     200    286.34697   -504.05072    104542.77     -7614.69    731.48886   -8346.1789    3.4951397    1.2977724 
     300    278.99198   -444.21138    104542.77   -7712.0902    712.70013   -8424.7903    5.6619595    1.2977724 
     400    276.45125   -682.13762    104542.77   -7836.6277    706.20971   -8542.8374    7.4072106    1.2977724 
     500    255.84141   -366.57356    104542.77   -7931.0813    653.56075    -8584.642    8.9167077    1.2977724 
     600    266.16182   -511.82685    104542.77   -7931.6375     679.9248   -8611.5623    9.8513445    1.2977724 
     700      267.498    -566.9655    104542.77   -7983.7236    683.33814   -8667.0618    11.079753    1.2977724 
     800    270.97101   -604.38268    104542.77   -8008.7002    692.21014   -8700.9103    12.132402    1.2977724 
     900    253.41486   -538.02313    104542.77   -8066.1196    647.36199   -8713.4816    12.885347    1.2977724 
    1000     246.5633   -416.41394    104542.77   -8116.1465    629.85932   -8746.0058    13.534313    1.2977724 
    1100    255.65572   -552.04233    104542.77   -8118.4944     653.0864   -8771.5808    14.200667    1.2977724 
    1200    251.94011   -784.14278    104542.77   -8133.7791    643.59467   -8777.3738    15.056571    1.2977724 
    1300    255.86383    -259.8326    104542.77   -8124.7973    653.61802   -8778.4153    16.097392    1.2977724 
    1400    249.58567   -449.00779    104542.77   -8156.6743    637.58011   -8794.2544    17.140842    1.2977724 
    1500    248.58201   -436.79238    104542.77   -8190.9375    635.01622   -8825.9538    17.248077    1.2977724 
    1600    251.29535   -869.91369    104542.77   -8189.9792     641.9476   -8831.9268    17.309052    1.2977724 
    1700    251.68501    -389.4779    104542.77   -8210.7413    642.94299   -8853.6843    18.182267    1.2977724 
    1800    254.67801   -642.19221    104542.77   -8195.6052    650.58879    -8846.194    18.556976    1.2977724 
    1900    244.25839   -580.38418    104542.77   -8188.5129    623.97129   -8812.4842    18.781942    1.2977724 
    2000    247.50835   -557.99745    104542.77   -8185.2959    632.27349   -8817.5694    19.045772    1.2977724 
    2100    235.60943   -786.18356    104542.77   -8228.2391    601.87705   -8830.1161    19.244713    1.2977724 
    2200    243.54211   -566.61193    104542.77   -8208.1795    622.14153    -8830.321    19.355197    1.2977724 
    2300     244.5396   -490.59189    104542.77   -8210.4209    624.68966   -8835.1106    20.769231    1.2977724 
    2400    253.04949    -555.6045    104542.77   -8218.3331    646.42863   -8864.7617    21.232906    1.2977724 
    2500    232.43093   -699.67129    104542.77   -8229.6063    593.75742   -8823.3637    21.443889    1.2977724 
    2600    243.13226   -493.61411    104542.77   -8221.3481    621.09454   -8842.4426     21.67992    1.2977724 
    2700    247.96254   -417.70394    104542.77   -8240.0991    633.43374   -8873.5329    22.069107    1.2977724 
    2800    244.02119   -672.38553    104542.77   -8212.2249    623.36537   -8835.5902    22.752033    1.2977724 
    2900    238.87113   -497.08837    104542.77   -8206.3409    610.20924   -8816.5501     23.60316    1.2977724 
    3000    245.66418     -496.714    104542.77   -8228.1543    627.56245   -8855.7167    24.034549    1.2977724 
    3100    245.60635   -192.72005    104542.77   -8215.4713    627.41474    -8842.886     24.90591    1.2977724 
    3200    234.01665   -708.32072    104542.77    -8255.945    597.80823   -8853.7532    24.990894    1.2977724 
    3300    238.84063   -414.00521    104542.77   -8281.7181    610.13135   -8891.8494    25.631054    1.2977724 
    3400    232.93399   -370.76858    104542.77   -8262.9591    595.04251   -8858.0016    25.719041    1.2977724 
    3500    235.20994   -572.76269    104542.77   -8280.0187    600.85654   -8880.8753    25.076647    1.2977724 
    3600    246.44946   -539.15185    104542.77   -8261.9726    629.56849   -8891.5411    25.605837    1.2977724 
    3700    237.62417   -470.09311    104542.77   -8250.2321    607.02381   -8857.2559    26.039049    1.2977724 
    3800    245.46445   -747.10698    104542.77   -8214.6948    627.05224   -8841.7471    26.778111    1.2977724 
    3900     244.2967   -366.67714    104542.77   -8219.9408    624.06915     -8844.01    27.289747    1.2977724 
    4000    244.79306   -726.67427    104542.77   -8260.6877    625.33713   -8886.0248    27.364185    1.2977724 
    4100    243.04968   -531.94006    104542.77   -8259.9507    620.88358   -8880.8343    27.911188    1.2977724 
    4200    240.58291   -391.64427    104542.77   -8231.4323    614.58209   -8846.0144    28.409118    1.2977724 
    4300    238.97499   -534.78241    104542.77   -8265.6814    610.47457    -8876.156    29.191812    1.2977724 
    4400    250.87949   -643.01183    104542.77   -8240.7454    640.88525   -8881.6306    29.277966    1.2977724 
    4500    239.85035   -436.63586    104542.77   -8271.8708    612.71072   -8884.5816    29.878972    1.2977724 
    4600    223.99208   -393.69418    104542.77   -8299.5832    572.19991   -8871.7831    30.778087    1.2977724 
    4700    245.23744   -396.06385    104542.77   -8265.1043    626.47234   -8891.5766    30.892797    1.2977724 
    4800    249.02646   -320.79922    104542.77   -8239.2335    636.15159   -8875.3851    30.473464    1.2977724 
    4900    236.76275   -495.65414    104542.77   -8236.5134    604.82329   -8841.3367    30.576219    1.2977724 
    5000    243.85666   -519.53593    104542.77     -8249.81    622.94505    -8872.755    31.650315    1.2977724 
    5100    242.09035   -361.31787    104542.77   -8233.4671    618.43291      -8851.9    31.974964    1.2977724 
    5200    236.69247    -774.5505    104542.77   -8249.2626    604.64375   -8853.9063     31.85294    1.2977724 
    5300    240.58304   -494.47621    104542.77   -8277.7146    614.58241    -8892.297    32.102967    1.2977724 
    5400    236.01929   -378.64204    104542.77   -8302.9498    602.92408   -8905.8738    32.608688    1.2977724 
    5500    241.45283   -678.29641    104542.77   -8305.4279    616.80435   -8922.2322    32.674074    1.2977724 
    5600    238.43185   -550.58254    104542.77   -8322.8006     609.0871   -8931.8877     33.13353    1.2977724 
    5700    239.79187   -584.95513    104542.77   -8315.2972    612.56133   -8927.8586    33.336238    1.2977724 
    5800    233.98329    -492.2137    104542.77   -8306.2401      597.723   -8903.9631    33.681574    1.2977724 
    5900    228.98967   -529.25045    104542.77   -8334.4095    584.96653    -8919.376    34.315481    1.2977724 
    6000    234.88011   -534.70863    104542.77   -8342.2122    600.01398   -8942.2261    34.333153    1.2977724 
    6100    231.55776   -604.67498    104542.77   -8329.3112    591.52684    -8920.838    34.052608    1.2977724 
    6200    239.28828   -630.30601    104542.77    -8328.756    611.27487   -8940.0309    34.083832    1.2977724 
    6300    245.35183   -659.73704    104542.77    -8296.074    626.76455   -8922.8386    34.368973    1.2977724 
    6400    244.66681   -743.15707    104542.77   -8285.2873    625.01464    -8910.302    34.572548    1.2977724 
    6500    241.18399   -555.16524    104542.77   -8329.4533    616.11757   -8945.5708    35.149533    1.2977724 
    6600    225.45902   -573.34028    104542.77   -8338.0692    575.94728   -8914.0165    35.472543    1.2977724 
    6700    225.48421   -661.64916    104542.77    -8320.571    576.01163   -8896.5826    35.848312    1.2977724 
    6800    232.80747   -518.29743    104542.77   -8334.6609     594.7193   -8929.3802    35.377923    1.2977724 
    6900    232.55421   -553.40838    104542.77   -8306.0673    594.07234   -8900.1396    35.983464    1.2977724 
    7000    241.53827   -633.64562    104542.77   -8313.4453     617.0226   -8930.4679    36.011374    1.2977724 
    7100    245.67416   -583.28373    104542.77   -8308.4758    627.58796   -8936.0638    35.715432    1.2977724 
    7200    231.23351   -674.86669    104542.77    -8317.833    590.69853   -8908.5316    36.340712    1.2977724 
    7300    229.65556   -483.42644    104542.77   -8369.1157    586.66758   -8955.7832     37.31118    1.2977724 
    7400     229.1227   -620.69681    104542.77   -8360.0343    585.30635   -8945.3407    37.573016    1.2977724 
    7500    235.38939   -577.62019    104542.77   -8336.2454    601.31495   -8937.5604     37.60877    1.2977724 
    7600    236.30327   -581.88224    104542.77   -8342.6306    603.64951   -8946.2801    37.803338    1.2977724 
    7700    235.14617   -531.21576    104542.77   -8295.6741    600.69363   -8896.3678    37.692506    1.2977724 
    7800    235.77362   -452.23594    104542.77   -8335.8095     602.2965    -8938.106     38.36729    1.2977724 
    7900    236.72886   -623.16097    104542.77   -8344.5757    604.73672   -8949.3124    38.751077    1.2977724 
    8000    242.90408   -637.58329    104542.77   -8314.8214    620.51163    -8935.333    39.107423    1.2977724 
    8100    246.79384   -508.36411    104542.77   -8310.6503    630.44825   -8941.0986    39.312286    1.2977724 
    8200    243.95219   -696.16514    104542.77   -8300.4502    623.18909   -8923.6393    39.012796    1.2977724 
    8300    247.18285   -405.54759    104542.77    -8300.827    631.44199    -8932.269    39.576334    1.2977724 
    8400    253.38709   -646.74842    104542.77   -8268.0783    647.29107   -8915.3694    39.558385    1.2977724 
    8500    239.94848   -532.64304    104542.77   -8300.1419     612.9614   -8913.1033    40.292485    1.2977724 
    8600    246.75254   -541.03074    104542.77   -8315.2177    630.34274   -8945.5605    41.021999    1.2977724 
    8700    241.00656   -707.75262    104542.77   -8308.3863    615.66431   -8924.0506    41.773911    1.2977724 
    8800    233.40856   -322.11617    104542.77   -8319.8416    596.25483   -8916.0964    41.502491    1.2977724 
    8900    230.05981   -650.65284    104542.77   -8331.6318    587.70025   -8919.3321    41.962455    1.2977724 
    9000    236.09733   -459.29388    104542.77   -8356.5881    603.12343   -8959.7115    42.384038    1.2977724 
    9100    239.60019   -542.87647    104542.77   -8329.4876    612.07169   -8941.5593    42.541085    1.2977724 
    9200    241.86897   -738.39522    104542.77   -8306.0461    617.86739   -8923.9135    42.834898    1.2977724 
    9300      239.675    -357.7153    104542.77   -8316.5102    612.26277    -8928.773    43.701055    1.2977724 
    9400    234.79493   -751.26058    104542.77   -8344.9517    599.79639    -8944.748    44.042265    1.2977724 
    9500    227.73055   -702.50773    104542.77   -8336.6352    581.75003   -8918.3852    44.032418    1.2977724 
    9600    227.27639   -530.39303    104542.77   -8335.8174    580.58986   -8916.4073     44.67398    1.2977724 
    9700    242.08082   -604.30225    104542.77   -8312.2195    618.40858    -8930.628     44.21703    1.2977724 
    9800    239.89695   -636.51345    104542.77   -8299.3549    612.82977   -8912.1847    44.223156    1.2977724 
    9900    248.45499   -635.46285    104542.77   -8284.3845    634.69175   -8919.0762    44.731519    1.2977724 
   10000    241.98375   -526.84655    104542.77   -8281.7431     618.1606   -8899.9037    45.293885    1.2977724 
   10100    243.08871   -404.13065    104542.77   -8280.2454    620.98329   -8901.2287    46.035072    1.2977724 
   10200    247.64303   -593.55491    104542.77   -8265.6468    632.61754   -8898.2644    46.718762    1.2977724 
   10300    260.61076   -663.37285    104542.77   -8237.5245    665.74432   -8903.2688    47.249082    1.2977724 
   10400    254.18485   -608.42975    104542.77   -8254.6352    649.32898   -8903.9642    47.443234    1.2977724 
   10500    250.64707   -560.61348    104542.77   -8285.4137    640.29152   -8925.7052     48.15981    1.2977724 
   10600    239.94423   -666.74401    104542.77   -8323.3554    612.95053   -8936.3059    48.316608    1.2977724 
   10700    232.18875   -669.16821    104542.77   -8338.7562    593.13875   -8931.8949    48.882036    1.2977724 
   10800    236.47511   -589.07699    104542.77   -8329.7649     604.0885   -8933.8534    49.076297    1.2977724 
   10900    224.06562   -774.24388    104542.77   -8380.1227    572.38777   -8952.5104    49.560492    1.2977724 
   11000    223.48724   -450.11295    104542.77   -8402.5287    570.91027    -8973.439    49.040519    1.2977724 
   11100    235.29149   -573.44984    104542.77   -8354.3297    601.06486   -8955.3945    48.679299    1.2977724 
   11200    238.39443   -614.81069    104542.77   -8340.5741    608.99149   -8949.5656    48.074141    1.2977724 
   11300    236.99014   -605.26487    104542.77   -8365.2646    605.40415   -8970.6687    48.445932    1.2977724 
   11400    228.92086   -604.54997    104542.77   -8358.0751    584.79076   -8942.8659    49.059864    1.2977724 
   11500    247.20476   -415.59608    104542.77    -8348.382    631.49796   -8979.8799    49.188737    1.2977724 
   11600    254.37854   -511.31903    104542.77   -8296.5601    649.82376   -8946.3838    48.791787    1.2977724 
   11700    247.66257   -567.00985    104542.77   -8279.2179    632.66746   -8911.8853    48.981846    1.2977724 
   11800    249.10122   -509.95976    104542.77   -8270.4601    636.34257   -8906.8027     48.93009    1.2977724 
   11900    236.76563   -530.92546    104542.77   -8283.0325    604.83064   -8887.8632    49.551272    1.2977724 
   12000    244.42717   -629.29727    104542.77   -8277.2277    624.40247   -8901.6301    50.301968    1.2977724 
   12100    238.33348   -664.40464    104542.77   -8267.9955    608.83579   -8876.8313    50.559585    1.2977724 
   12200    238.38701   -598.36782    104542.77   -8278.3224    608.97253    -8887.295    50.374373    1.2977724 
   12300    239.28316   -737.43076    104542.77   -8274.3136    611.26181   -8885.5754    50.746261    1.2977724 
   12400    226.74086   -609.39321    104542.77   -8297.5248    579.22182   -8876.7466    50.923744    1.2977724 
   12500    244.65541   -495.72232    104542.77   -8274.9122    624.98551   -8899.8977    51.349837    1.2977724 
   12600    230.54218   -606.13539    104542.77   -8281.1211     588.9325   -8870.0536    51.815183    1.2977724 
   12700    239.26878   -771.74646    104542.77   -8262.3457    611.22507   -8873.5707    52.214018    1.2977724 
   12800    233.37137    -604.6165    104542.77   -8282.9946    596.15981   -8879.1544    52.546635    1.2977724 
   12900    232.96847    -512.6299    104542.77   -8281.8855    595.13059   -8877.0161    52.817433    1.2977724 
   13000    248.73126   -601.05586    104542.77    -8274.514     635.3975   -8909.9115    52.826887    1.2977724 
   13100    245.09053   -648.14277    104542.77   -8287.0044    626.09704   -8913.1014    52.657419    1.2977724 
   13200    238.10956   -515.58697    104542.77   -8314.8488    608.26378   -8923.1126    53.391231    1.2977724 
   13300    243.89474   -450.55223    104542.77   -8329.4631    623.04234   -8952.5054    54.161177    1.2977724 
   13400    231.86356   -519.25218    104542.77   -8331.8023    592.30802   -8924.1103    54.656324    1.2977724 
   13500    241.60657   -541.45564    104542.77   -8338.5915    617.19707   -8955.7885    55.157537    1.2977724 
   13600    237.48536   -559.00344    104542.77   -8320.1572    606.66923   -8926.8264    55.315292    1.2977724 
   13700    235.18934   -480.23704    104542.77   -8335.2501    600.80392    -8936.054    55.472917    1.2977724 
   13800    239.22311   -411.79543    104542.77   -8338.0264    611.10841   -8949.1349     55.49676    1.2977724 
   13900    230.73626   -608.74686    104542.77   -8340.0493    589.42828   -8929.4776    55.579934    1.2977724 
   14000    245.15024   -800.24637    104542.77   -8296.3846    626.24959   -8922.6342    56.158127    1.2977724 
   14100      238.306    -525.7764    104542.77   -8300.0053     608.7656   -8908.7709    56.405877    1.2977724 
   14200    247.10969   -669.38424    104542.77   -8313.0021     631.2551   -8944.2572     56.55346    1.2977724 
   14300    240.45335   -563.00272    104542.77   -8340.0987    614.25112   -8954.3499    57.141132    1.2977724 
   14400    229.78222   -517.45842    104542.77   -8376.2707    586.99113   -8963.2618    58.069205    1.2977724 
   14500    236.06202   -810.07208    104542.77   -8362.5084    603.03322   -8965.5416    58.146721    1.2977724 
   14600    230.01525   -511.73184    104542.77   -8355.4303    587.58642   -8943.0167    58.607393    1.2977724 
   14700     238.0447   -636.26046    104542.77   -8322.1765     608.0981   -8930.2746    58.001941    1.2977724 
   14800    243.44401   -676.45443    104542.77   -8299.6248    621.89093   -8921.5157    57.412842    1.2977724 
   14900    244.54073   -492.10696    104542.77   -8310.1692    624.69256   -8934.8617    58.188309    1.2977724 
   15000    241.12584    -392.9864    104542.77   -8328.9672    615.96904   -8944.9362    59.136132    1.2977724 
   15100    237.45845   -395.54937    104542.77   -8343.2256    606.60049   -8949.8261     59.36513    1.2977724 
   15200    237.75703   -490.62515    104542.77   -8343.6961    607.36323   -8951.0593     59.92809    1.2977724 
   15300    243.27049   -520.51086    104542.77   -8331.0593    621.44765   -8952.5069    60.061582    1.2977724 
   15400    233.74788   -570.28799    104542.77   -8335.7629    597.12164   -8932.8845    60.475906    1.2977724 
   15500    238.56697   -367.51583    104542.77   -8338.0459    609.43225   -8947.4782    60.223613    1.2977724 
   15600    242.88626   -541.02239    104542.77   -8302.0315    620.46611   -8922.4976    60.100058    1.2977724 
   15700    244.39979   -600.65623    104542.77   -8272.6992    624.33251   -8897.0317    60.295519    1.2977724 
   15800     249.8709   -485.19824    104542.77   -8278.5986    638.30876   -8916.9074    60.592331    1.2977724 
   15900    255.57906   -412.33699    104542.77   -8269.0322    652.89057   -8921.9228    61.112772    1.2977724 
   16000    237.22366   -569.41271    104542.77   -8294.3645    606.00071   -8900.3652    61.105534    1.2977724 
   16100    228.34108   -649.03929    104542.77   -8298.3485    583.30967   -8881.6582    61.898235    1.2977724 
   16200    256.06506   -537.75329    104542.77   -8261.9595    654.13207   -8916.0915    61.951332    1.2977724 
   16300     246.6598   -629.36285    104542.77   -8261.7644    630.10583   -8891.8702    61.333988    1.2977724 
   16400    245.07309   -554.96364    104542.77   -8289.4942    626.05249   -8915.5467    62.189216    1.2977724 
   16500    242.00779   -642.00552    104542.77   -8295.3694    618.22202   -8913.5915    62.219799    1.2977724 
   16600    254.29128   -679.60017    104542.77    -8259.348    649.60085   -8908.9488    63.243083    1.2977724 
   16700    252.43556   -595.28563    104542.77   -8248.1037    644.86032    -8892.964    63.703966    1.2977724 
   16800    235.16387   -558.36933    104542.77   -8273.6734    600.73886   -8874.4123    63.953163    1.2977724 
   16900      240.022   -624.21384    104542.77   -8271.2765    613.14921   -8884.4257    65.169434    1.2977724 
   17000    242.66273   -517.03626    104542.77   -8294.7979     619.8951    -8914.693     65.00336    1.2977724 
   17100    233.50263   -612.26754    104542.77   -8314.4961    596.49512   -8910.9913    64.923587    1.2977724 
   17200    242.65697    -686.6564    104542.77   -8310.7276    619.88039    -8930.608    64.822541    1.2977724 
   17300    229.41875   -608.25104    104542.77    -8334.503    586.06262   -8920.5657    64.525994    1.2977724 
   17400    231.35098   -422.02501    104542.77   -8348.5968    590.99862   -8939.5954    64.894225    1.2977724 
   17500    227.62992   -660.77876    104542.77   -8353.6931    581.49296   -8935.1861     65.58455    1.2977724 
   17600    240.80378   -555.40968    104542.77    -8305.268    615.14631   -8920.4143     65.96678    1.2977724 
   17700    234.30243    -540.6866    104542.77   -8323.0055    598.53827   -8921.5438    66.378068    1.2977724 
   17800    235.13742   -484.44866    104542.77   -8316.6244    600.67128   -8917.2957    66.453298    1.2977724 
   17900    237.25822    -461.7735    104542.77   -8291.6029    606.08899   -8897.6919    66.685875    1.2977724 
   18000    236.85472    -477.6177    104542.77   -8271.2318    605.05822     -8876.29    67.596929    1.2977724 
   18100    235.38745   -433.11946    104542.77   -8281.0351    601.31001   -8882.3451    67.852731    1.2977724 
   18200    241.52194   -610.57451    104542.77   -8273.7839     616.9809   -8890.7648    68.180841    1.2977724 
   18300    250.64314   -474.11929    104542.77   -8304.1764    640.28149   -8944.4579    67.640189    1.2977724 
   18400    245.14673   -493.66951    104542.77   -8293.4658     626.2406   -8919.7064    67.927376    1.2977724 
   18500    239.07004   -607.97417    104542.77   -8303.5843    610.71737   -8914.3017    68.116893    1.2977724 
   18600    236.40509   -596.94403    104542.77   -8293.9732    603.90961   -8897.8828    68.328577    1.2977724 
   18700    244.14326   -472.23056    104542.77   -8288.7067    623.67719   -8912.3839    68.436114    1.2977724 
   18800    244.45115   -676.56805    104542.77   -8300.1731    624.46371   -8924.6368    68.710825    1.2977724 
   18900    248.99716   -382.12932    104542.77   -8292.7601    636.07675   -8928.8369    68.340299    1.2977724 
   19000    234.39589   -619.13409    104542.77   -8301.4193    598.77701   -8900.1963    68.576815    1.2977724 
   19100    236.07051   -621.90766    104542.77   -8296.8919    603.05491   -8899.9468    68.998531    1.2977724 
   19200    249.14797   -426.73775    104542.77   -8258.9332    636.46199   -8895.3952     69.17629    1.2977724 
   19300    248.61235   -636.28545    104542.77   -8275.7089    635.09372   -8910.8026    69.757676    1.2977724 
   19400    249.86078   -450.06628    104542.77   -8236.7029    638.28292   -8874.9858    70.140021    1.2977724 
   19500    248.10549   -495.55251    104542.77   -8262.1409    633.79894   -8895.9398    70.557893    1.2977724 
   19600    249.16669   -524.32552    104542.77   -8238.4152    636.50981    -8874.925    70.417472    1.2977724 
   19700    250.69456   -514.76234    104542.77   -8255.0055    640.41284   -8895.4183     71.15698    1.2977724 
   19800    245.51699    -819.2929    104542.77   -8275.6375    627.18647   -8902.8239    71.323978    1.2977724 
   19900    256.34722   -556.65091    104542.77   -8260.7981    654.85287    -8915.651    71.738896    1.2977724 
   20000    243.30467    -432.7634    104542.77    -8279.826    621.53498    -8901.361    72.333403    1.2977724 
   20100    244.33527   -559.47041    104542.77   -8287.4844     624.1677   -8911.6521    72.287889    1.2977724 
   20200    256.70764   -477.74424    104542.77     -8283.62    655.77359   -8939.3935    73.378365    1.2977724 
   20300    243.59443   -630.37581    104542.77   -8291.1103    622.27517   -8913.3854    74.139724    1.2977724 
   20400    247.19859   -426.43512    104542.77   -8277.5802     631.4822   -8909.0624    74.904791    1.2977724 
   20500    234.50802   -636.17005    104542.77     -8280.27    599.06345   -8879.3335    75.293884    1.2977724 
   20600    236.41578   -492.56409    104542.77    -8322.195    603.93693   -8926.1319    75.844799    1.2977724 
   20700     232.3351   -571.43538    104542.77   -8341.9529     593.5126   -8935.4655    76.317654    1.2977724 
   20800    239.02987   -572.25629    104542.77    -8327.962    610.61476   -8938.5767     75.81808    1.2977724 
   20900    259.77974   -484.01217    104542.77   -8287.0661    663.62143   -8950.6875    75.821679    1.2977724 
   21000    234.52274   -468.18049    104542.77   -8338.2124    599.10106   -8937.3135    75.590512    1.2977724 
   21100    232.19248   -796.25569    104542.77   -8336.7194    593.14828   -8929.8677    75.632666    1.2977724 
   21200    242.20624   -579.24696    104542.77   -8314.7071    618.72896   -8933.4361    75.373671    1.2977724 
   21300    244.38515   -351.84472    104542.77   -8299.7339    624.29513   -8924.0291    75.663333    1.2977724 
   21400    243.53001   -515.19045    104542.77      -8309.4    622.11061   -8931.5106    75.261309    1.2977724 
   21500     241.8243   -416.54902    104542.77   -8293.3521    617.75328   -8911.1054    75.584202    1.2977724 
   21600     239.8626   -590.48835    104542.77   -8286.3773      612.742   -8899.1193    75.019325    1.2977724 
   21700    245.76435   -649.46202    104542.77   -8284.7886    627.81836    -8912.607    76.463061    1.2977724 
   21800    240.64928   -627.56903    104542.77   -8346.0858    614.75163   -8960.8375     77.01768    1.2977724 
   21900    241.91906   -393.07605    104542.77   -8336.2506    617.99534    -8954.246    77.432764    1.2977724 
   22000    232.73881   -711.35315    104542.77   -8340.4318    594.54392   -8934.9757     78.10233    1.2977724 
   22100    244.74033   -559.42852    104542.77   -8354.4377    625.20245   -8979.6402    77.601857    1.2977724 
   22200    242.67356   -362.13262    104542.77   -8381.5954    619.92276   -9001.5181    77.965153    1.2977724 
   22300    235.41796   -581.30933    104542.77   -8404.0226    601.38795   -9005.4106    78.575748    1.2977724 
   22400    236.52259   -645.89297    104542.77   -8354.8534    604.20977   -8959.0632    79.217034    1.2977724 
   22500    236.32328   -518.03218    104542.77   -8346.4326    603.70062   -8950.1332    78.867362    1.2977724 
   22600    236.95771   -538.73317    104542.77   -8334.0086    605.32131   -8939.3299    77.945747    1.2977724 
   22700    237.76143   -512.00447    104542.77   -8336.1434    607.37447   -8943.5179    78.079501    1.2977724 
   22800    237.39203   -530.26976    104542.77   -8352.6625    606.43081   -8959.0933    77.838372    1.2977724 
   22900    241.67709    -892.5093    104542.77   -8334.9134    617.37724   -8952.2906    77.123257    1.2977724 
   23000    243.33911   -577.72192    104542.77   -8343.3533    621.62296   -8964.9763     77.52623    1.2977724 
   23100    246.35842   -882.13854    104542.77   -8366.7257    629.33594   -8996.0617    77.304143    1.2977724 
   23200    246.34737   -699.83644    104542.77   -8342.6675     629.3077   -8971.9752    78.350603    1.2977724 
   23300    238.91324    -531.5463    104542.77   -8330.8979    610.31682   -8941.2148    78.878937    1.2977724 
   23400    246.81857   -469.64444    104542.77   -8317.6122    630.51142   -8948.1236    79.499069    1.2977724 
   23500    240.36378   -543.04706    104542.77   -8337.2467    614.02231    -8951.269    80.457225    1.2977724 
   23600    250.35636   -519.73719    104542.77    -8317.344     639.5489   -8956.8929    81.100125    1.2977724 
   23700    238.03609     -527.824    104542.77   -8332.2502     608.0761   -8940.3262    82.073024    1.2977724 
   23800    239.25578   -550.91971    104542.77   -8313.0823    611.19187   -8924.2742    82.838182    1.2977724 
   23900    238.18349   -569.30157    104542.77   -8353.0849    608.45265   -8961.5376    83.508339    1.2977724 
   24000    243.34471   -547.20862    104542.77   -8365.6102    621.63724   -8987.2474    84.284132    1.2977724 
   24100    240.83426   -350.72503    104542.77   -8340.8022    615.22416   -8956.0264    84.445941    1.2977724 
   24200    246.11773    -692.2007    104542.77   -8321.3444    628.72107   -8950.0655    84.198773    1.2977724 
   24300    243.62112   -518.35197    104542.77   -8343.5211    622.34336   -8965.8645    84.131752    1.2977724 
   24400    234.12599   -423.93873    104542.77   -8345.1213    598.08754   -8943.2088    83.773207    1.2977724 
   24500    239.40159   -708.17698    104542.77   -8341.5466    611.56435    -8953.111    82.771643    1.2977724 
   24600    232.89642   -418.29071    104542.77   -8363.6008    594.94652   -8958.5474    83.273842    1.2977724 
   24700    228.23161   -480.13337    104542.77    -8365.699    583.03001    -8948.729    84.003771    1.2977724 
   24800    244.97232   -538.43645    104542.77   -8361.7632    625.79506   -8987.5582    83.747566    1.2977724 
   24900    241.82203   -458.12199    104542.77   -8347.1958    617.74749   -8964.9433    84.028209    1.2977724 
   25000    234.90691   -584.58842    104542.77   -8384.3214    600.08242   -8984.4039    84.139996    1.2977724 
   25100    225.08643     -470.621    104542.77   -8390.8305    574.99549    -8965.826    83.903835    1.2977724 
   25200    238.92073   -728.78311    104542.77   -8397.8567    610.33595   -9008.1926    84.293267    1.2977724 
   25300    231.14209   -673.98954    104542.77   -8432.3503    590.46499   -9022.8153    84.783544    1.2977724 
   25400     240.4887    -369.4102    104542.77   -8394.2267    614.34143   -9008.5682     85.13622    1.2977724 
   25500    238.30979   -804.61674    104542.77   -8388.1197    608.77527    -8996.895    85.372815    1.2977724 
   25600     235.0854   -583.22964    104542.77   -8370.8667     600.5384   -8971.4051    85.497824    1.2977724 
   25700    238.92664    -681.7799    104542.77   -8351.7046    610.35105   -8962.0557    86.011319    1.2977724 
   25800    238.60961   -738.77114    104542.77   -8376.5272    609.54117   -8986.0684    85.397542    1.2977724 
   25900    239.73295   -416.26061    104542.77   -8316.6596    612.41083   -8929.0705    85.321603    1.2977724 
   26000    250.74843   -554.10105    104542.77    -8315.567    640.55045   -8956.1174    85.275853    1.2977724 
   26100    241.76993    -696.3514    104542.77   -8332.1066     617.6144    -8949.721     85.65712    1.2977724 
   26200    238.12714   -534.65771    104542.77   -8333.5164    608.30868   -8941.8251    85.753232    1.2977724 
   26300    240.60661   -544.91935    104542.77   -8362.4092    614.64264   -8977.0519     84.94462    1.2977724 
   26400    229.62467   -507.56996    104542.77   -8373.5122    586.58867   -8960.1009    84.843793    1.2977724 
   26500    239.52976   -544.40575    104542.77   -8359.8669    611.89176   -8971.7586    85.071547    1.2977724 
   26600    232.28519   -726.15873    104542.77   -8332.5275    593.38512   -8925.9127    86.073827    1.2977724 
   26700    247.76392   -580.12949    104542.77   -8312.0715    632.92635   -8944.9979    85.754052    1.2977724 
   26800    246.35381   -507.33652    104542.77   -8296.4071    629.32417   -8925.7313    84.902788    1.2977724 
   26900    239.93551   -648.43129    104542.77   -8340.9939    612.92827   -8953.9222    83.958412    1.2977724 
   27000    248.10824   -705.88969    104542.77   -8292.3946    633.80596   -8926.2006    83.558813    1.2977724 
   27100    250.05019   -559.59077    104542.77   -8314.3617    638.76677   -8953.1285    83.233133    1.2977724 
   27200     237.1342   -267.24184    104542.77   -8314.8328    605.77216   -8920.6049    83.600801    1.2977724 
   27300    236.45218   -601.34095    104542.77    -8319.274    604.02991    -8923.304    82.634113    1.2977724 
   27400     241.8381   -508.83498    104542.77   -8295.5556    617.78854   -8913.3441    83.007395    1.2977724 
   27500    237.97962   -642.87666    104542.77   -8318.9967    607.93185   -8926.9286    83.231448    1.2977724 
   27600    245.87582   -602.13079    104542.77   -8354.4258     628.1031   -8982.5289    82.670576    1.2977724 
   27700    232.22751   -622.36964    104542.77   -8357.3397    593.23777   -8950.5775    82.787272    1.2977724 
   27800    239.34243   -517.88125    104542.77   -8315.4043    611.41322   -8926.8175    82.956806    1.2977724 
   27900    239.81134   -819.47111    104542.77   -8340.3972    612.61107   -8953.0083    83.138914    1.2977724 
   28000    233.19701   -537.55659    104542.77   -8342.5586     595.7144    -8938.273    83.257593    1.2977724 
   28100    239.49162   -668.38179    104542.77   -8336.3078    611.79434   -8948.1021    83.949618    1.2977724 
   28200     231.5546   -511.62386    104542.77   -8328.8073    591.51878   -8920.3261    84.646472    1.2977724 
   28300    247.04428   -597.16129    104542.77   -8342.6878      631.088   -8973.7758    85.127764    1.2977724 
   28400    241.40355   -588.34714    104542.77   -8362.6717    616.67846   -8979.3502    86.122639    1.2977724 
   28500    244.13771   -502.60019    104542.77   -8357.7721    623.66301   -8981.4351    85.772452    1.2977724 
   28600    236.56042   -731.87964    104542.77   -8371.8045    604.30643   -8976.1109    86.815163    1.2977724 
   28700    243.43607   -617.91564    104542.77   -8367.4555    621.87065   -8989.3262    87.439766    1.2977724 
   28800    239.98439   -524.53289    104542.77   -8358.2892    613.05314   -8971.3423      87.4788    1.2977724 
   28900     235.1084   -647.56627    104542.77   -8378.3764    600.59715   -8978.9736    87.716782    1.2977724 
   29000    240.13729   -409.48605    104542.77   -8366.6113    613.44374    -8980.055    87.615463    1.2977724 
   29100    239.23498   -428.22297    104542.77   -8344.5355    611.13872   -8955.6742    88.275638    1.2977724 
   29200    246.27392   -403.44027    104542.77   -8357.5572    629.12008   -8986.6773     88.30631    1.2977724 
   29300    245.98349   -511.30877    104542.77   -8349.0983    628.37817   -8977.4765    88.364758    1.2977724 
   29400    239.53826    -491.5516    104542.77    -8360.814    611.91347   -8972.7275    88.194867    1.2977724 
   29500    246.10467   -621.63947    104542.77   -8359.6572    628.68772    -8988.345     88.65406    1.2977724 
   29600    236.32138    -577.4151    104542.77   -8374.2805    603.69578   -8977.9763    87.923899    1.2977724 
   29700    242.22852    -633.0812    104542.77   -8362.8388    618.78589   -8981.6247    89.157059    1.2977724 
   29800    242.77338   -518.09518    104542.77   -8372.9548    620.17776   -8993.1325    88.953456    1.2977724 
   29900     239.7859   -523.52678    104542.77   -8399.3711    612.54609   -9011.9172     88.62865    1.2977724 
   30000    234.12765    -445.8614    104542.77   -8385.2994    598.09178   -8983.3911    88.639787    1.2977724 
   30100    229.13347   -622.40498    104542.77   -8417.5384    585.33388   -9002.8723    88.504569    1.2977724 
   30200    230.54862    -509.3588    104542.77   -8399.1138    588.94895   -8988.0628    89.128179    1.2977724 
   30300      232.406   -235.53783    104542.77   -8378.5446    593.69372   -8972.2384    89.625432    1.2977724 
   30400    235.22395   -503.99378    104542.77   -8388.7959    600.89234   -8989.6882    89.890684    1.2977724 
   30500    228.95868   -554.35186    104542.77   -8409.2789    584.88735   -8994.1662    89.674038    1.2977724 
   30600    226.16786   -443.77916    104542.77   -8437.2143    577.75805   -9014.9724    89.611244    1.2977724 
   30700    223.82583   -665.22139    104542.77   -8404.1917    571.77521   -8975.9669    89.009015    1.2977724 
   30800    234.59604   -481.30555    104542.77   -8404.6903    599.28831   -9003.9786    89.466308    1.2977724 
   30900    237.08994   -453.29841    104542.77   -8383.1947    605.65912   -8988.8538    89.421058    1.2977724 
   31000    246.24508   -612.52622    104542.77   -8344.9462     629.0464   -8973.9926    89.691585    1.2977724 
   31100    239.24702   -619.45253    104542.77   -8358.1081    611.16948   -8969.2776    89.889742    1.2977724 
   31200    247.63745   -533.87996    104542.77   -8359.9795     632.6033   -8992.5828    89.589694    1.2977724 
   31300    243.99274   -447.14428    104542.77    -8343.608    623.29267   -8966.9006    90.144822    1.2977724 
   31400    240.69321   -605.14632    104542.77    -8321.221    614.86384   -8936.0848    89.551627    1.2977724 
   31500    234.87763   -404.33389    104542.77   -8350.3792    600.00765   -8950.3868    90.289021    1.2977724 
   31600    243.92637   -719.89567    104542.77   -8337.9506    623.12315   -8961.0737    90.808987    1.2977724 
   31700    243.00746   -661.15528    104542.77   -8354.5065    620.77574   -8975.2822    91.106396    1.2977724 
   31800    246.49126   -442.32274    104542.77    -8338.176    629.67528   -8967.8512    91.065922    1.2977724 
   31900     242.7618   -533.16018    104542.77   -8360.2917    620.14817   -8980.4398    91.467944    1.2977724 
   32000     242.5141   -549.32848    104542.77   -8370.5228    619.51541   -8990.0382    91.870159    1.2977724 
   32100    242.42936   -545.61604    104542.77   -8383.8986    619.29893   -9003.1976     91.96335    1.2977724 
   32200    232.79114   -611.96135    104542.77   -8389.9482    594.67758   -8984.6258    92.209937    1.2977724 
   32300    230.43278   -581.53689    104542.77   -8419.6999    588.65302   -9008.3529    92.106712    1.2977724 
   32400    240.64934   -589.58186    104542.77   -8396.8887    614.75177   -9011.6405    92.030748    1.2977724 
   32500    240.65172   -686.65869    104542.77   -8414.7922    614.75787   -9029.5501     91.87381    1.2977724 
   32600    239.49065   -309.51791    104542.77   -8388.7683    611.79186   -9000.5602     92.03643    1.2977724 
   32700    240.60197   -811.11721    104542.77   -8371.0402    614.63079    -8985.671    91.770263    1.2977724 
   32800    235.02527   -455.27296    104542.77   -8395.1153     600.3848   -8995.5001    91.997826    1.2977724 
   32900     255.8772   -570.17965    104542.77   -8350.9657    653.65217   -9004.6179    91.491144    1.2977724 
   33000    235.73077   -705.53021    104542.77   -8387.7325    602.18704   -8989.9195    91.651796    1.2977724 
   33100     235.1575   -568.72607    104542.77   -8394.5404    600.72258   -8995.2629    92.093117    1.2977724 
   33200    239.51627   -425.65132    104542.77   -8409.3884    611.85729   -9021.2457    91.627949    1.2977724 
   33300    234.26856   -632.48043    104542.77   -8408.9998    598.45172   -9007.4515    92.660943    1.2977724 
   33400    231.00438    -474.4131    104542.77   -8395.7364    590.11322   -8985.8496    93.138836    1.2977724 
   33500    221.47254   -550.48575    104542.77   -8408.1759     565.7636   -8973.9395    93.684214    1.2977724 
   33600    239.81633   -447.33901    104542.77   -8389.6381    612.62382   -9002.2619    94.599942    1.2977724 
   33700    228.40293   -591.98725    104542.77   -8410.1824    583.46766     -8993.65    94.751668    1.2977724 
   33800    239.01975   -429.04279    104542.77   -8399.4763     610.5889   -9010.0652    94.509164    1.2977724 
   33900    244.64669    -518.9179    104542.77   -8363.5238    624.96323    -8988.487    94.082001    1.2977724 
   34000    251.46631   -751.60832    104542.77   -8365.8834    642.38431   -9008.2677    93.798772    1.2977724 
   34100    241.50402    -507.9392    104542.77   -8406.7754    616.93511   -9023.7105    94.163821    1.2977724 
   34200    240.88947    -661.9476    104542.77    -8396.552     615.3652   -9011.9172    93.602406    1.2977724 
   34300    233.89252   -524.09294    104542.77   -8395.5398    597.49113    -8993.031    93.180368    1.2977724 
   34400    226.61762    -413.4498    104542.77   -8419.2191      578.907   -8998.1261    93.086863    1.2977724 
   34500    231.60055   -496.11046    104542.77    -8400.797    591.63615   -8992.4331    93.514066    1.2977724 
   34600    231.39722   -558.33943    104542.77   -8367.6558    591.11675   -8958.7726    93.674076    1.2977724 
   34700    235.07227   -373.10521    104542.77   -8374.7739    600.50486   -8975.2788    92.729609    1.2977724 
   34800    236.51544   -739.81427    104542.77   -8392.8421    604.19151   -8997.0336    92.991289    1.2977724 
   34900    240.89593   -645.55838    104542.77   -8362.7922    615.38173   -8978.1739    92.856832    1.2977724 
   35000    241.54095   -617.98779    104542.77   -8371.3855    617.02946   -8988.4149    93.000792    1.2977724 
   35100    249.86304   -584.94033    104542.77   -8367.5785    638.28868   -9005.8672    93.880029    1.2977724 
   35200    239.60851   -485.50679    104542.77   -8370.7864    612.09292   -8982.8793    94.106801    1.2977724 
   35300    250.63874    -529.6862    104542.77   -8385.7861    640.27026   -9026.0564    95.048994    1.2977724 
   35400    242.86052    -488.9453    104542.77   -8395.7375    620.40035   -9016.1378     95.84247    1.2977724 
   35500     247.8258   -594.21223    104542.77   -8419.1001    633.08444   -9052.1845    96.812543    1.2977724 
   35600    243.65279   -764.00353    104542.77   -8404.1969    622.42426   -9026.6211    97.535308    1.2977724 
   35700    228.86452   -508.06137    104542.77   -8394.0606    584.64682   -8978.7075    97.586539    1.2977724 
   35800    248.75002   -684.25897    104542.77   -8370.2195    635.44542   -9005.6649    97.305693    1.2977724 
   35900    251.72901   -531.74628    104542.77   -8345.8934    643.05541   -8988.9488    97.314186    1.2977724 
   36000    241.53188    -468.9692    104542.77   -8392.1327    617.00627    -9009.139    96.921951    1.2977724 
   36100    240.23804   -541.27706    104542.77   -8372.2953    613.70111   -8985.9965    96.429363    1.2977724 
   36200    237.81484   -692.14155    104542.77   -8392.5769    607.51091   -9000.0878    96.178379    1.2977724 
   36300    239.44636   -687.82565    104542.77   -8408.2627    611.67871   -9019.9414     96.05249    1.2977724 
   36400    237.52131   -493.26384    104542.77   -8395.4032    606.76107   -9002.1643    95.726315    1.2977724 
   36500    237.12333   -651.32035    104542.77   -8374.5563    605.74441   -8980.3007    95.603713    1.2977724 
   36600    245.38045   -547.95671    104542.77    -8370.709    626.83767   -8997.5467    94.950581    1.2977724 
   36700    242.74578   -462.70131    104542.77   -8365.7626    620.10724   -8985.8699    93.801348    1.2977724 
   36800    230.87497   -355.74831    104542.77   -8406.7847    589.78263   -8996.5673    94.020384    1.2977724 
   36900    235.28328   -741.70331    104542.77   -8419.0142    601.04389   -9020.0581    93.645975    1.2977724 
   37000    238.72138   -599.99508    104542.77   -8412.1161    609.82672   -9021.9429    93.273957    1.2977724 
   37100    244.62878   -431.93183    104542.77   -8410.0894    624.91749   -9035.0069    93.771904    1.2977724 
   37200    253.91769   -462.87714    104542.77   -8413.4925     648.6465    -9062.139    93.515743    1.2977724 
   37300    234.25463   -672.85196    104542.77   -8414.0914    598.41614   -9012.5075    93.439002    1.2977724 
   37400    233.26958   -641.82957    104542.77   -8418.5431     595.8998   -9014.4429    92.965875    1.2977724 
   37500    236.11352   -569.69653    104542.77   -8403.3506    603.16479   -9006.5154    93.072598    1.2977724 
   37600    244.32672   -473.59105    104542.77   -8402.5898    624.14585   -9026.7357    93.405323    1.2977724 
   37700    227.05468   -664.12544    104542.77   -8424.7812    580.02348   -9004.8047    93.925349    1.2977724 
   37800    231.27891    -469.2093    104542.77   -8444.3633    590.81451   -9035.1779    94.811506    1.2977724 
   37900    234.13882   -644.06841    104542.77   -8437.1705    598.12032   -9035.2908    94.261213    1.2977724 
   38000    251.45337    -568.0241    104542.77    -8401.354    642.35126   -9043.7052    94.351398    1.2977724 
   38100    235.20831   -492.97452    104542.77   -8393.1102    600.85238   -8993.9625    94.788206    1.2977724 
   38200    249.46173   -470.98308    104542.77   -8387.1772    637.26351   -9024.4407     95.45932    1.2977724 
   38300    244.50906   -555.78708    104542.77   -8389.3583    624.61165     -9013.97     95.08397    1.2977724 
   38400    250.02608   -416.76808    104542.77   -8405.4309    638.70519   -9044.1361    95.389641    1.2977724 
   38500    249.45277    -619.0404    104542.77    -8393.633    637.24062   -9030.8736    95.905083    1.2977724 
   38600    241.95649   -366.90302    104542.77   -8411.8463    618.09097   -9029.9373    95.262524    1.2977724 
   38700    238.88978   -705.87699    104542.77   -8407.8068     610.2569   -9018.0637    95.750247    1.2977724 
   38800    242.71185    -625.0866    104542.77   -8381.4844    620.02058    -9001.505    96.680111    1.2977724 
   38900    246.08742   -389.25718    104542.77   -8394.6709    628.64367   -9023.3145    96.429361    1.2977724 
   39000    247.42653   -600.37996    104542.77   -8382.9692    632.06449   -9015.0337    97.416504    1.2977724 
   39100     236.2887   -541.18889    104542.77   -8400.2403    603.61229   -9003.8526     97.33917    1.2977724 
   39200     235.7311   -539.02201    104542.77   -8403.6944    602.18786   -9005.8823     96.89624    1.2977724 
   39300    237.37942   -586.63595    104542.77    -8453.056    606.39861   -9059.4546    96.634674    1.2977724 
   39400    236.53658    -466.7679    104542.77   -8463.8755    604.24552    -9068.121    96.930541    1.2977724 
   39500    236.33898    -481.1731    104542.77   -8437.3709    603.74074   -9041.1117    97.419162    1.2977724 
   39600    239.40749   -757.87678    104542.77   -8421.9558    611.57942   -9033.5353    97.640685    1.2977724 
   39700    246.47714   -740.66011    104542.77   -8420.3174    629.63921   -9049.9566    97.881373    1.2977724 
   39800    230.84108   -591.74503    104542.77   -8409.2423    589.69605   -8998.9384    98.090215    1.2977724 
   39900    245.20706    -568.4863    104542.77   -8419.5443    626.39474    -9045.939    99.087745    1.2977724 
   40000    242.05784   -529.66971    104542.77   -8394.0778    618.34988   -9012.4277    99.028707    1.2977724 
   40100    247.77782   -659.91545    104542.77   -8417.9273    632.96187   -9050.8892    99.294375    1.2977724 
   40200    243.69587   -705.93676    104542.77   -8424.7673    622.53431   -9047.3016    98.528299    1.2977724 
   40300    239.79608   -530.48173    104542.77    -8406.497    612.57209   -9019.0691    98.403054    1.2977724 
   40400    229.91552   -569.01238    104542.77   -8418.4871    587.33166   -9005.8188     98.78734    1.2977724 
   40500    244.08484   -591.18913    104542.77   -8433.3134    623.52795   -9056.8414    98.518674    1.2977724 
   40600    248.28002   -657.42282    104542.77   -8386.4151    634.24478   -9020.6599    98.324069    1.2977724 
   40700    242.15107   -652.73331    104542.77   -8429.9263    618.58804   -9048.5144    98.859782    1.2977724 
   40800    234.35083   -578.55487    104542.77    -8442.224    598.66189   -9040.8859    99.810769    1.2977724 
   40900    242.93088   -476.64622    104542.77   -8407.3664    620.58009   -9027.9465    99.961942    1.2977724 
   41000    248.47532   -645.06552    104542.77   -8409.1204    634.74368   -9043.8641    99.732784    1.2977724 
   41100    230.19174   -656.52654    104542.77   -8447.3814    588.03727   -9035.4186    99.302322    1.2977724 
   41200    240.30177   -570.00411    104542.77   -8424.5433     613.8639   -9038.4072     98.60752    1.2977724 
   41300    244.64571   -352.94413    104542.77   -8398.4652    624.96073   -9023.4259    98.095205    1.2977724 
   41400    231.13793   -601.17799    104542.77   -8420.9671    590.45436   -9011.4215    97.820728    1.2977724 
   41500    250.12568   -766.47276    104542.77    -8408.639    638.95961   -9047.5986    97.656471    1.2977724 
   41600    241.08019    -505.3324    104542.77   -8418.1212    615.85242   -9033.9736    97.418568    1.2977724 
   41700    235.29163   -502.68628    104542.77   -8416.8456    601.06523   -9017.9108    97.157192    1.2977724 
   41800    237.60997   -545.69225    104542.77   -8451.0666    606.98755   -9058.0541    96.979097    1.2977724 
   41900    239.59238   -468.29752    104542.77   -8417.6608    612.05173   -9029.7126    97.170856    1.2977724 
   42000    232.03996   -598.05883    104542.77   -8435.4568    592.75865   -9028.2155    98.027157    1.2977724 
   42100    231.20835   -774.28288    104542.77   -8421.9731    590.63426   -9012.6074    98.521247    1.2977724 
   42200    235.15334   -713.62167    104542.77   -8441.4716    600.71195   -9042.1835    99.320296    1.2977724 
   42300    235.67255   -495.65632    104542.77   -8429.6292     602.0383   -9031.6675    99.767478    1.2977724 
   42400     228.9906   -599.75362    104542.77   -8420.2643    584.96891   -9005.2332    99.684081    1.2977724 
   42500    228.47398   -551.45931    104542.77   -8425.8234    583.64918   -9009.4726    99.408622    1.2977724 
   42600    241.78701   -383.84286    104542.77   -8409.4935    617.65803   -9027.1516    99.581595    1.2977724 
   42700    238.03728   -614.63827    104542.77   -8428.5189    608.07915   -9036.5981    99.640088    1.2977724 
   42800    225.29808   -560.61732    104542.77   -8454.9443    575.53617   -9030.4805    100.01603    1.2977724 
   42900    241.60815   -576.94567    104542.77   -8424.8211    617.20112   -9042.0223    100.41455    1.2977724 
   43000    243.75158   -406.53377    104542.77   -8447.0065    622.67662   -9069.6831    101.11365    1.2977724 
   43100    238.71788   -734.82436    104542.77   -8456.5728    609.81777   -9066.3905    101.90648    1.2977724 
   43200    240.33997    -463.7043    104542.77    -8445.431    613.96149   -9059.3924    101.94162    1.2977724 
   43300    230.97375   -399.12767    104542.77   -8440.4765    590.03495   -9030.5114    100.90744    1.2977724 
   43400    233.90899   -594.92118    104542.77   -8433.4235    597.53319   -9030.9567    101.07676    1.2977724 
   43500     248.0933   -581.45852    104542.77   -8394.7857    633.76779   -9028.5535    101.81525    1.2977724 
   43600    240.32922    -525.3449    104542.77   -8413.4179    613.93401    -9027.352    102.48517    1.2977724 
   43700    240.83246   -648.22356    104542.77   -8426.8037    615.21957   -9042.0233    102.89524    1.2977724 
   43800    230.42739    -570.3464    104542.77   -8438.0659    588.63926   -9026.7051    102.49008    1.2977724 
   43900    235.76073   -651.95602    104542.77   -8454.5918    602.26357   -9056.8554    101.84627    1.2977724 
   44000     237.0057   -667.01979    104542.77   -8451.6132    605.44392   -9057.0571    101.96537    1.2977724 
   44100    228.82596     -694.288    104542.77   -8478.7188    584.54832   -9063.2672    102.39507    1.2977724 
   44200    243.03477   -480.61021    104542.77   -8453.2841     620.8455   -9074.1296     102.7639    1.2977724 
   44300    233.63156   -473.36236    104542.77   -8451.6154    596.82448   -9048.4399    101.96361    1.2977724 
   44400    237.77346     -499.599    104542.77   -8456.4689    607.40518   -9063.8741    101.91903    1.2977724 
   44500    232.72393   -694.96679    104542.77   -8458.6484    594.50591   -9053.1543    102.72447    1.2977724 
   44600    244.58715   -535.10906    104542.77   -8457.2857    624.81113   -9082.0969    102.50486    1.2977724 
   44700    228.58278   -480.07737    104542.77   -8449.1694     583.9271   -9033.0965    102.90375    1.2977724 
   44800    231.50687    -552.4102    104542.77   -8448.5809    591.39686   -9039.9777    102.74579    1.2977724 
   44900    247.58543   -565.66178    104542.77   -8414.2929     632.4704   -9046.7633    103.01155    1.2977724 
   45000    242.45268   -628.58745    104542.77   -8410.2141    619.35851   -9029.5727    102.82275    1.2977724 
   45100    231.58105   -642.64637    104542.77   -8428.1144    591.58634   -9019.7007    102.07267    1.2977724 
   45200    236.79533   -606.99345    104542.77   -8376.5518    604.90652   -8981.4583    103.58724    1.2977724 
   45300    236.62205   -739.82159    104542.77   -8384.8597    604.46387   -8989.3235    104.03872    1.2977724 
   45400    255.61308   -637.05278    104542.77   -8402.6056    652.97746    -9055.583    104.40112    1.2977724 
   45500    242.61366   -483.37461    104542.77   -8376.9374    619.76975   -8996.7071     104.3337    1.2977724 
   45600    245.63023   -639.89414    104542.77   -8372.3393    627.47573    -8999.815    103.86734    1.2977724 
   45700    243.12855   -616.38013    104542.77   -8373.0678    621.08506   -8994.1529    103.68525    1.2977724 
   45800    243.85841   -559.88469    104542.77   -8384.8416    622.94952   -9007.7911    103.92758    1.2977724 
   45900    238.75124    -568.7438    104542.77   -8399.7729    609.90299   -9009.6759    104.05121    1.2977724 
   46000    240.50326   -611.94101    104542.77    -8376.602    614.37863   -8990.9806    104.12112    1.2977724 
   46100    250.10292   -554.87831    104542.77   -8374.8123    638.90147   -9013.7138    103.44476    1.2977724 
   46200    250.40972   -678.44128    104542.77   -8379.7021     639.6852   -9019.3873    104.29355    1.2977724 
   46300     237.9484   -449.91982    104542.77   -8378.1671     607.8521   -8986.0192    104.36952    1.2977724 
   46400    234.11631   -610.37746    104542.77   -8403.0792    598.06281    -9001.142    105.47891    1.2977724 
   46500    239.27995   -459.04549    104542.77   -8404.8106     611.2536   -9016.0642    106.03794    1.2977724 
   46600    238.28944    -530.4319    104542.77    -8404.212     608.7233   -9012.9353    105.77395    1.2977724 
   46700    238.16422   -576.88559    104542.77   -8406.8405    608.40342   -9015.2439    105.64211    1.2977724 
   46800    249.31377    -588.8064    104542.77   -8384.1619    636.88554   -9021.0474    105.24931    1.2977724 
   46900    235.77846   -617.78519    104542.77   -8407.2995    602.30886   -9009.6083    105.09317    1.2977724 
   47000    241.86285   -552.17614    104542.77   -8399.5961    617.85175   -9017.4478    104.74407    1.2977724 
   47100    245.29203   -646.84709    104542.77   -8420.4488    626.61178   -9047.0605    104.81442    1.2977724 
   47200    256.68485   -370.32243    104542.77    -8426.205    655.71536   -9081.9204    104.22869    1.2977724 
   47300    247.45175   -791.66239    104542.77   -8420.9262    632.12891   -9053.0551    103.75489    1.2977724 
   47400    231.31045   -539.75644    104542.77   -8462.3389    590.89509    -9053.234    104.02708    1.2977724 
   47500    229.32249   -414.27223    104542.77   -8444.3123    585.81672    -9030.129    104.10491    1.2977724 
   47600    241.18596   -442.97677    104542.77   -8437.0464     616.1226    -9053.169    103.50578    1.2977724 
   47700    234.82846   -556.10791    104542.77   -8425.9337    599.88203   -9025.8157    102.92499    1.2977724 
   47800    248.13199     -426.943    104542.77   -8423.0697    633.86663   -9056.9363    102.87824    1.2977724 
   47900    238.71889   -528.38678    104542.77   -8446.2168    609.82035   -9056.0371    103.38903    1.2977724 
   48000    240.12846   -575.59483    104542.77   -8460.5482    613.42117   -9073.9693    103.39943    1.2977724 
   48100    237.33611   -780.09313    104542.77   -8477.3096    606.28797   -9083.5975    103.38462    1.2977724 
   48200    245.32928   -509.83118    104542.77   -8474.0768    626.70695   -9100.7838    104.69654    1.2977724 
   48300    244.36544   -686.07448    104542.77     -8462.81    624.24476   -9087.0547    105.23764    1.2977724 
   48400    233.93663   -479.96579    104542.77   -8465.7069     597.6038   -9063.3107    105.64874    1.2977724 
   48500    242.78972   -412.44305    104542.77   -8463.3726    620.21949   -9083.5921    106.77976    1.2977724 
   48600    231.89146   -918.52658    104542.77   -8499.6717     592.3793    -9092.051    106.57633    1.2977724 
   48700    235.66007   -689.32328    104542.77   -8486.6158    602.00641   -9088.6222    106.14394    1.2977724 
   48800    233.61467   -433.29646    104542.77   -8466.7921    596.78135   -9063.5734    105.64919    1.2977724 
   48900    232.22498   -899.17491    104542.77    -8445.596    593.23131   -9038.8273    105.53747    1.2977724 
   49000    238.55059   -482.46077    104542.77    -8459.983    609.39042   -9069.3734    104.78708    1.2977724 
   49100    245.94017   -723.89085    104542.77   -8432.5844    628.26751   -9060.8519    105.54623    1.2977724 
   49200    242.99794   -549.31066    104542.77   -8406.6815    620.75142   -9027.4329    105.66079    1.2977724 
   49300    225.21985   -569.46554    104542.77   -8439.4129    575.33633   -9014.7492    105.46735    1.2977724 
   49400    236.59725   -558.43505    104542.77   -8434.4344     604.4005   -9038.8349    105.49783    1.2977724 
   49500    233.34255   -890.23554    104542.77   -8446.9015    596.08621   -9042.9877    105.04419    1.2977724 
   49600    247.52855   -402.09951    104542.77    -8441.269     632.3251   -9073.5941    105.35206    1.2977724 
   49700     243.5325   -536.78343    104542.77   -8422.0068    622.11697   -9044.1237    105.79632    1.2977724 
   49800    234.00114   -655.61183    104542.77   -8442.3484     597.7686    -9040.117    105.72109    1.2977724 
   49900    242.85411   -405.00307    104542.77   -8450.0394      620.384   -9070.4234    105.42008    1.2977724 
   50000    235.37331   -548.60951    104542.77   -8457.3212    601.27389   -9058.5951     105.1578    1.2977724 
Loop time of 158.899 on 12 procs for 50000 steps with 6374 atoms

Performance: 135.935 ns/day, 0.177 hours/ns, 314.665 timesteps/s
93.7% CPU use with 12 MPI tasks x no OpenMP threads

MPI task timing breakdown:
Section |  min time  |  avg time  |  max time  |%varavg| %total
---------------------------------------------------------------
Pair    | 19.067     | 46.687     | 93.571     | 443.0 | 29.38
Neigh   | 3.3594     | 4.3395     | 5.8652     |  45.9 |  2.73
Comm    | 37.024     | 84.767     | 113.3      | 337.8 | 53.35
Output  | 1.778      | 1.7899     | 1.8066     |   0.4 |  1.13
Modify  | 14.466     | 16.339     | 17.806     |  23.4 | 10.28
Other   |            | 4.976      |            |       |  3.13

Nlocal:        531.167 ave         654 max         452 min
Histogram: 5 1 1 1 0 0 0 0 2 2
Nghost:        1953.42 ave        2098 max        1837 min
Histogram: 1 2 2 1 2 0 1 1 0 2
Neighs:        0.00000 ave           0 max           0 min
Histogram: 12 0 0 0 0 0 0 0 0 0
FullNghs:      58294.2 ave       71004 max       49830 min
Histogram: 4 1 2 1 0 0 0 2 0 2

Total # of neighbors = 699530
Ave neighs/atom = 109.74741
Neighbor list builds = 2670
Dangerous builds = 0

# Create data file for import to other simulations
#
write_data data.${NAME}
write_data data.Ibeam_240K
System init for write_data ...


Total wall time: 0:02:38
