
# Set production fixes - Nose/Hoover
#
fix                 4 water temp/csvr ${START_TEMP} ${END_TEMP} 500.0 928347
fix                 4 water temp/csvr 240 ${END_TEMP} 500.0 928347
fix                 4 water temp/csvr 240 227 500.0 928347


## divide "droplet" into core and surface
#region		core_reg cylinder z 135 135 44.6 20 INF units box
#region		surface_reg cylinder z 135 135 44.6 20 INF units box side out
#group		core dynamic all region core_reg
#group		surface dynamic all region surface_reg

## compute pressure core
#compute        peratom_core core stress/atom NULL
#compute        p_core core reduce sum c_peratom_core[1] c_peratom_core[2] c_peratom_core[3]
#variable       press_core equal -(c_p_core[1]+c_p_core[2]+c_p_core[3])/(3*1249982.5)


## compute pressure surface
#compute        peratom_surf surface stress/atom NULL
#compute        p_surf surface reduce sum c_peratom_surf[1] c_peratom_surf[2] #c_peratom_surf[3]
#variable       press_surf equal -(c_p_surf[1]+c_p_surf[2]+c_p_surf[3])/(3*33365)

## compute total pressure of drop
compute        peratom water stress/atom NULL
compute        p water reduce sum c_peratom[1] c_peratom[2] c_peratom[3]
variable       press equal -(c_p[1]+c_p[2]+c_p[3])/(3*50320)


# compute order parameter
compute        3 all orientorder/atom nnn NULL cutoff 3.5

# compute center of mass of bridge
compute 	4 water com

# Run simulation
thermo_style        custom step c_2 press vol etotal ke pe v_press c_1[4] c_4[*]
thermo              200
dump		     1 water custom 400 ${DIR}/prod.${NAME}.dump id type x y z vx vy vz c_3[*] c_peratom[*]
dump		     1 water custom 400 run_18/prod.${NAME}.dump id type x y z vx vy vz c_3[*] c_peratom[*]
dump		     1 water custom 400 run_18/prod.ibeam_cooling_18.dump id type x y z vx vy vz c_3[*] c_peratom[*]
run                 ${STEPS}
run                 5200000
Neighbor list info ...
  update every 1 steps, delay 0 steps, check yes
  max neighbors/atom: 2000, page size: 100000
  master list distance cutoff = 6.67472
  ghost atom cutoff = 6.67472
  binsize = 3.33736, bins = 48 13 9
  2 neighbor lists, perpetual/occasional/extra = 1 1 0
  (1) pair sw, perpetual
      attributes: full, newton on
      pair build: full/bin/atomonly
      stencil: full/bin/3d
      bin: standard
  (2) compute orientorder/atom, occasional, copy from (1)
      attributes: full, newton on
      pair build: copy
      stencil: none
      bin: none
Per MPI rank memory allocation (min/avg/max) = 6.177 | 6.738 | 7.299 Mbytes
Step c_2 Press Volume TotEng KinEng PotEng v_press c_1[4] c_4[1] c_4[2] c_4[3] 
       0     248.2129   -402.12416    181563.75   -13255.329    1021.0282   -14276.358   -898.20284    30.231796     78.71817    25.144672    16.363402 
     200    248.08286   -331.09568    181563.75   -13301.366    1020.4933   -14321.859   -618.09073    31.747719    78.717792    25.147573    16.341611 
     400    234.21706   -315.90276    181563.75   -13301.261    963.45605   -14264.717     -592.711     33.40019    78.722041    25.150532    16.336161 
     600    230.00252   -425.87557    181563.75   -13379.783    946.11947   -14325.902   -959.50188    33.889413    78.723859    25.156201    16.345625 
     800    231.26968   -460.80878    181563.75   -13397.619    951.33196   -14348.951   -1091.2663    34.839766    78.728033    25.156217    16.344414 
    1000     238.9202   -321.61968    181563.75    -13286.83    982.80252   -14269.633   -566.16666    35.731732    78.728542    25.157794     16.36299 
    1200    231.18049   -335.24072    181563.75   -13372.744    950.96509   -14323.709   -640.15861    37.397553    78.727459    25.155432    16.383807 
    1400    241.06927   -342.00949    181563.75   -13267.493    991.64274   -14259.136   -674.42743    38.571576    78.729485    25.154988    16.382358 
    1600    240.35966   -307.09405    181563.75   -13259.966    988.72376    -14248.69   -492.29177    39.617565    78.732166    25.154818     16.37601 
    1800    242.33521   -418.89315    181563.75   -13285.771     996.8502   -14282.621   -925.04389    41.486693    78.731762    25.153079    16.370296 
    2000    247.56047   -363.86676    181563.75   -13209.702    1018.3444   -14228.046   -806.98279    42.573592    78.734854    25.152374    16.358719 
    2200    246.00523   -438.27094    181563.75   -13224.752    1011.9469   -14236.699   -951.10836    43.404844     78.73494    25.154899    16.372006 
    2400    232.06064   -444.82467    181563.75    -13287.37    954.58558   -14241.956   -1030.3396    44.349431    78.735975    25.159017    16.413818 
    2600    238.06906   -303.97532    181563.75   -13304.454    979.30133   -14283.755   -545.88955     45.69185     78.73437    25.165208    16.420325 
    2800    243.76787   -221.59693    181563.75   -13285.397    1002.7435   -14288.141   -305.11827    48.097029    78.735205    25.169633    16.413706 
    3000    232.14296   -240.24722    181563.75   -13345.206    954.92423    -14300.13   -299.05015    49.768853     78.72971    25.173035    16.411802 
    3200    243.40796   -247.06199    181563.75   -13333.206     1001.263   -14334.469   -273.09983    50.660548    78.727256    25.175553    16.416954 
    3400    244.03283   -403.24249    181563.75   -13318.121    1003.8334   -14321.955   -869.02985    51.714573    78.727403    25.174466     16.41695 
    3600     237.1566   -207.43177    181563.75   -13315.797     975.5479   -14291.345   -185.80759    52.514764    78.726115    25.169711    16.405994 
    3800    240.30844   -413.32004    181563.75   -13326.015    988.51307   -14314.528   -911.65823    54.498875    78.725259     25.16711    16.389683 
    4000    242.74522   -344.74671    181563.75    -13357.14    998.53681   -14355.677   -679.25027    55.171364    78.726947    25.168571    16.374195 
    4200    250.64389    -274.4415    181563.75   -13281.395    1031.0281   -14312.423   -388.40674    56.417197    78.728514    25.171037    16.375414 
    4400    241.99593   -335.51334    181563.75   -13257.875    995.45458   -14253.329    -641.5234    59.135592    78.731431    25.170284    16.410863 
    4600    237.50746    -470.9058    181563.75   -13305.667    976.99119   -14282.658   -1103.3177    60.786885     78.73357    25.165749    16.411725 
    4800    235.97671     -397.664    181563.75   -13277.272    970.69441   -14247.966   -902.65048    60.994085    78.732758    25.161942     16.41889 
    5000    237.81201   -229.01798    181563.75   -13317.122    978.24394   -14295.366   -252.88704    61.206951    78.732609    25.161808     16.40215 
    5200    227.96117   -544.43413    181563.75   -13308.478    937.72237     -14246.2   -1385.8541    62.960621    78.735193    25.158022    16.375692 
    5400    235.73769    -243.7863    181563.75   -13287.813    969.71118   -14257.524   -289.69274     64.41311    78.733125    25.159145    16.408556 
    5600    230.72235   -547.91173    181563.75   -13331.599    949.08051    -14280.68   -1355.7906    66.727568    78.731609    25.158373    16.436801 
    5800    243.47469   -424.63282    181563.75   -13186.465    1001.5375   -14188.003   -948.11783    67.358525    78.731491    25.161528    16.440375 
    6000    231.91607   -344.54379    181563.75   -13371.366    953.99091   -14325.357    -638.1869    67.791432    78.736983    25.161359    16.421918 
    6200    239.49069   -268.78123    181563.75   -13302.614    985.14924   -14287.763   -364.29172    68.626063    78.735357    25.163904    16.425204 
    6400    234.94622   -472.94555    181563.75   -13287.767    966.45549   -14254.223   -1094.9189    69.655966    78.735903    25.168114    16.406416 
    6600    234.67643   -268.91319    181563.75   -13360.084    965.34568   -14325.429   -366.56308    70.542499    78.735698    25.167406    16.421214 
    6800    237.29859   -180.38478    181563.75   -13332.977    976.13198   -14309.109    -71.39796    73.766475    78.735481     25.16926    16.425305 
    7000    232.36923   -372.62885    181563.75   -13346.838    955.85497   -14302.693   -729.71411    74.865514    78.734468    25.168466    16.435699 
    7200    240.25328   -333.32464    181563.75   -13280.577    988.28617   -14268.863   -657.87832     75.20577    78.732706    25.166907     16.40508 
    7400    227.08742   -474.45662    181563.75   -13378.469    934.12818   -14312.597   -1129.7011    76.540825    78.733566     25.16281    16.401614 
    7600     234.9713   -337.10788    181563.75    -13410.84    966.55864   -14377.399   -644.82712    78.300267     78.73157    25.161363    16.394899 
    7800    240.17627   -494.05738    181563.75   -13297.254    987.96939   -14285.224   -1200.2084     78.90942    78.730047    25.160242    16.399067 
    8000    234.29014   -205.36505    181563.75   -13283.841    963.75667   -14247.597   -135.24301    80.190468    78.729202    25.161666    16.396564 
    8200    240.39337   -341.33736    181563.75   -13335.903    988.86243   -14324.765   -684.81791    81.236021    78.730075    25.166037     16.40659 
    8400    234.97178   -305.23441    181563.75   -13373.527    966.56063   -14340.087   -540.72082      84.0861     78.72761    25.164919    16.389641 
    8600    245.84553   -373.22559    181563.75   -13311.481      1011.29   -14322.771   -748.92691    84.208194    78.727183     25.16699    16.391921 
    8800    244.28398   -308.29293    181563.75   -13325.703    1004.8665   -14330.569   -488.44037    85.527016    78.727108    25.168563    16.360155 
    9000    246.37709   -531.26455    181563.75    -13326.59    1013.4766   -14340.067   -1309.8662    86.412722    78.724045     25.17098    16.367869 
    9200    230.59625   -336.21124    181563.75   -13374.519    948.56181   -14323.081   -633.86369    86.969271    78.721897    25.171942    16.383373 
    9400    236.01357   -261.22799    181563.75    -13375.21    970.84605   -14346.056   -387.66213    88.694198    78.722536    25.173496    16.348285 
    9600    226.69273    -418.5623    181563.75   -13403.902    932.50459   -14336.407   -901.30686    89.704224    78.723736    25.175505    16.335201 
    9800     238.2597   -474.59817    181563.75    -13349.04    980.08553   -14329.125   -1116.9095    90.881486    78.726801    25.172003    16.322218 
   10000    246.15123   -330.68383    181563.75   -13251.968    1012.5475   -14264.515   -603.54661    92.134797    78.726409    25.171578    16.330485 
   10200     240.2983   -223.78392    181563.75   -13285.094    988.47136   -14273.566   -238.47462    96.947838     78.72358    25.168403    16.360463 
   10400    238.99266   -429.57448    181563.75   -13283.512    983.10058   -14266.612   -959.08437    98.513541    78.721625    25.166306    16.370723 
   10600    248.25302   -211.08951    181563.75   -13264.576    1021.1932   -14285.769   -197.16039     96.96394    78.719732    25.168536    16.381002 
   10800    235.19554   -359.55824    181563.75   -13273.409    967.48106    -14240.89   -698.77509    97.541765    78.714627     25.16711    16.361989 
   11000    236.74301   -260.77221    181563.75   -13313.842     973.8466   -14287.688    -364.8697    99.240519    78.712125    25.167754    16.359892 
   11200    234.37083   -416.16914    181563.75   -13299.022    964.08859   -14263.111   -900.33743    102.88625    78.710369    25.168856    16.371799 
   11400     245.8754   -551.57705    181563.75   -13279.429    1011.4129   -14290.842   -1406.1115    104.50542    78.709395    25.167322    16.365645 
   11600    245.91044   -227.17622    181563.75   -13255.034     1011.557   -14266.591   -250.75863    104.70784    78.709872    25.161527    16.368419 
   11800    241.34105   -492.99665    181563.75   -13260.697    992.76074   -14253.458   -1151.7898    106.05174    78.709676     25.15715    16.385466 
   12000    248.34541   -503.36857    181563.75   -13199.041    1021.5733   -14220.615   -1225.9892    108.35503    78.710315    25.153919    16.392106 
   12200    252.40643   -368.61804    181563.75   -13244.332    1038.2784   -14282.611   -755.19377    109.90337    78.710766    25.151581    16.382424 
   12400    247.92684   -373.42252    181563.75   -13183.897    1019.8515   -14203.748   -772.99484    112.47667     78.71135    25.155097     16.41409 
   12600    240.88971   -441.02522    181563.75   -13153.034    990.90413   -14143.938   -992.92127    114.05699    78.709065    25.159733    16.434323 
   12800    237.19993   -312.01736    181563.75   -13259.429    975.72616   -14235.155   -509.39598    114.88955    78.710422    25.159433    16.456586 
   13000    237.63549   -240.06419    181563.75   -13290.465    977.51784   -14267.983    -290.1483    116.75696    78.708608    25.159489    16.445682 
   13200    239.27587   -411.82714    181563.75   -13228.288    984.26556   -14212.553    -922.6253    119.91513    78.711408    25.156793    16.448957 
   13400    248.27252   -216.80346    181563.75   -13220.816    1021.2735    -14242.09   -190.55459    120.80596    78.713345    25.160245    16.423461 
   13600     247.2885   -234.52142    181563.75   -13240.607    1017.2256   -14257.832   -309.34441    120.62701    78.717783    25.161101    16.428768 
   13800    231.91908   -320.41428    181563.75   -13297.526    954.00326   -14251.529   -603.18755    120.92275    78.715402    25.161734    16.442903 
   14000    240.41876   -522.89617    181563.75    -13277.68    988.96685   -14266.647   -1253.4674    122.18299    78.719903    25.162401    16.437447 
   14200    235.73381   -270.69718    181563.75   -13302.923    969.69523   -14272.618   -365.97825    125.50653    78.721163    25.160772    16.394488 
   14400    235.56151   -367.89842    181563.75   -13346.935    968.98647   -14315.921   -736.56176    128.54889    78.724053    25.164031    16.400926 
   14600    233.15989   -199.37195    181563.75   -13321.078    959.10738   -14280.186   -147.32998     129.0742      78.7238    25.166615    16.393729 
   14800    240.89506   -347.81944    181563.75   -13283.592    990.92614   -14274.518   -659.20316    130.43059    78.724475    25.169554    16.391157 
   15000    242.07649      -470.68    181563.75   -13296.528    995.78598   -14292.314    -1068.572    134.28707    78.724556    25.168432    16.390642 
   15200    236.46487    -261.6411    181563.75   -13361.513    972.70246   -14334.215   -386.27714    135.23049    78.724946      25.1662    16.372215 
   15400    245.99966   -400.53772    181563.75   -13305.374     1011.924   -14317.299   -880.09076    134.05627    78.724819    25.162164    16.359456 
   15600    236.64598   -420.75208    181563.75   -13363.458    973.44747   -14336.905   -967.62682    133.49105     78.72509    25.165163    16.380288 
   15800    248.45638   -250.47149    181563.75   -13265.775    1022.0297   -14287.804   -326.21711    131.98103    78.724388    25.167314    16.388715 
   16000    243.92963   -352.35475    181563.75   -13332.661    1003.4089    -14336.07   -696.90328    134.18746    78.726121    25.168767    16.395603 
   16200    240.44204   -267.08845    181563.75   -13251.759    989.06263   -14240.822   -368.00309    135.48268     78.72765    25.170406       16.437 
   16400    246.04945    -351.5957    181563.75   -13260.363    1012.1288   -14272.492    -681.6052    134.51669    78.729937    25.172175    16.424595 
   16600    242.29162   -367.25341    181563.75   -13290.667    996.67092   -14287.338    -746.8869    135.83756    78.726911    25.173425    16.417665 
   16800    240.19801   -491.25954    181563.75   -13278.924    988.05881   -14266.982   -1199.9371    136.63988    78.726208    25.175921    16.435547 
   17000    236.89941   -176.97675    181563.75   -13286.335    974.48997   -14260.825   -32.466162    137.41268    78.726399    25.176854    16.455069 
   17200    244.03453    -426.6375    181563.75   -13316.392    1003.8404   -14320.233   -939.27927    140.41689    78.726374    25.178308    16.460362 
   17400    237.15727   -390.07198    181563.75   -13287.412    975.55068   -14262.963   -828.53616    141.46927    78.722721    25.180421    16.475597 
   17600    249.62471   -520.87643    181563.75   -13226.155    1026.8357   -14252.991   -1302.1928    143.50372    78.721676    25.178488    16.476494 
   17800    242.69786   -439.17746    181563.75   -13252.484      998.342   -14250.826   -995.19221    144.83311     78.72148     25.18168    16.480423 
   18000     241.2007   -354.43412    181563.75   -13287.059     992.1834   -14279.242   -651.04638     145.4011    78.722368    25.179277    16.492519 
   18200     240.2235   -483.70458    181563.75   -13291.452    988.16366   -14279.616   -1163.6136    145.76809    78.721875    25.182273    16.468264 
   18400     235.6774   -438.94597    181563.75    -13268.45    969.46319   -14237.913    -948.3118    146.91856    78.719767    25.180118    16.468027 
   18600    246.62372    -284.9973    181563.75   -13241.607    1014.4911   -14256.098   -487.67216    148.24439    78.719489    25.177163     16.43468 
   18800    233.99623   -340.36361    181563.75   -13230.314    962.54768   -14192.861   -629.83535     148.4922    78.721753    25.175764    16.432339 
   19000     245.4842   -367.28648    181563.75   -13236.629    1009.8036   -14246.433   -760.19783    150.07301     78.72039     25.17354    16.406809 
   19200    248.20153   -370.44178    181563.75   -13254.618    1020.9814   -14275.599   -752.49635    150.53307    78.722559    25.176978    16.430287 
   19400    245.36225    -348.0006    181563.75   -13254.031     1009.302   -14263.333   -670.69111    150.51617    78.721498    25.179309    16.417385 
   19600    240.43077   -487.08045    181563.75   -13319.984    989.01626       -14309    -1180.026    152.71168    78.722395    25.185154    16.403952 
   19800    247.37342   -366.49565    181563.75   -13311.386     1017.575   -14328.961   -722.60747     154.5496    78.725385    25.189765    16.392587 
   20000    234.95904   -339.54495    181563.75   -13357.152     966.5082    -14323.66   -630.25782    157.93718    78.726113    25.194054    16.405377 
   20200    235.05788   -235.22648    181563.75   -13321.803    966.91477   -14288.718   -254.84066    157.51536    78.721878    25.200447    16.390203 
   20400    237.26266   -410.14919    181563.75   -13358.861    975.98417   -14334.845   -908.35061    157.23519    78.719628     25.20253    16.394215 
   20600    240.07887   -211.18058    181563.75   -13320.677    987.56871   -14308.246    -160.1481    155.39573    78.718535    25.208357    16.386837 
   20800    233.58409   -380.99276    181563.75   -13319.925    960.85233   -14280.777   -754.91381    158.16879    78.720999    25.206508    16.394568 
   21000    245.26347   -200.12337    181563.75   -13293.224    1008.8957    -14302.12   -163.04438    156.24662    78.722134    25.207113    16.409426 
   21200    242.79693   -229.54155    181563.75   -13283.314    998.74949   -14282.063   -266.76397    159.12212    78.720961    25.207553    16.391863 
   21400    233.97858   -342.16379    181563.75   -13354.794    962.47505   -14317.269    -646.6593    160.02032    78.721808    25.208738    16.421339 
   21600    244.48931   -203.90909    181563.75   -13285.543    1005.7112   -14291.254   -160.84106    161.02669    78.723423    25.207875    16.451257 
   21800    243.97502   -353.58722    181563.75   -13257.405    1003.5956   -14261.001   -645.43064    160.32247    78.723206    25.203601    16.454516 
   22000     242.2138    -442.5265    181563.75   -13285.064     996.3508   -14281.415   -1007.9993    159.42836    78.724558    25.201447    16.459488 
   22200    243.48672   -296.86116    181563.75   -13299.837     1001.587   -14301.424    -510.6944    158.00295    78.728231     25.20069    16.477796 
   22400    242.89603   -223.22546    181563.75   -13312.637    999.15718   -14311.794    -255.0204    159.58885    78.726959    25.198972    16.500324 
   22600    229.65292    -440.7166    181563.75   -13322.876     944.6814   -14267.558   -1005.6981    160.76423    78.730897     25.20287    16.472845 
   22800    242.24369   -372.02955    181563.75   -13265.642    996.47374   -14262.116   -725.59021    163.15199    78.733294    25.205873    16.475044 
   23000    241.17962   -371.87515    181563.75   -13277.096    992.09668   -14269.192   -772.33057    162.55935    78.733383     25.20361    16.504358 
   23200    237.61709   -473.76389    181563.75   -13290.379    977.44215   -14267.821   -1146.0162    162.36128    78.734675    25.205078    16.513402 
   23400    249.60157   -505.03108    181563.75   -13289.989    1026.7405   -14316.729   -1224.4892    163.99172    78.736406    25.203236    16.500301 
   23600    241.17276   -308.87469    181563.75   -13352.732    992.06847     -14344.8   -567.78896    164.27194    78.739183    25.202473    16.463161 
   23800     235.3283   -401.45146    181563.75   -13375.944    968.02717   -14343.971   -878.62892    166.87759    78.741823    25.205381    16.455654 
   24000    243.98799   -407.89932    181563.75   -13317.264     1003.649   -14320.912    -877.2306    166.74976    78.748512    25.208388    16.471846 
   24200    244.78835   -285.46553    181563.75   -13308.853    1006.9413   -14315.795   -456.91803    167.42729    78.751997    25.211392    16.489175 
   24400    247.07569   -299.03118    181563.75   -13305.341    1016.3503   -14321.692   -472.22209    167.38421    78.755054    25.210548     16.47388 
   24600     240.3187   -280.29732    181563.75    -13334.91    988.55527   -14323.465   -428.48155    168.53983    78.758067    25.207415    16.473673 
   24800    234.91878   -408.36886    181563.75   -13305.653    966.34259   -14271.996   -863.03974    168.92474    78.759745     25.20994     16.44324 
   25000    233.22099   -139.91686    181563.75   -13323.621     959.3587    -14282.98    64.041646    169.37402    78.758744    25.212883    16.439428 
   25200    243.03786   -330.28878    181563.75   -13296.324    999.74058   -14296.065   -615.76181    168.53071    78.756187    25.214132    16.426438 
   25400    235.50021   -292.59739    181563.75   -13303.848    968.73434   -14272.583    -451.3813    170.21469    78.754386    25.213899    16.429628 
   25600    250.04797   -296.81854    181563.75   -13284.431    1028.5768   -14313.007   -535.77551    171.02404    78.753342    25.214242    16.450659 
   25800    234.34046   -395.52973    181563.75   -13284.223    963.96365   -14248.186   -905.22076    171.55851    78.751675    25.211516    16.417196 
   26000    233.13535   -489.24915    181563.75   -13299.814    959.00643    -14258.82   -1176.6985    173.63611    78.750886    25.213148    16.383773 
   26200    239.72899   -442.10209    181563.75    -13268.55    986.12948    -14254.68   -1047.5166    175.34921     78.75193    25.210895     16.39998 
   26400    233.61089    -299.1851    181563.75   -13307.992    960.96256   -14268.954   -484.65513      175.277    78.750368    25.211127    16.396123 
   26600    239.81676   -287.71588    181563.75   -13303.372    986.49053   -14289.863    -494.8932    177.50516    78.751063    25.213977    16.417434 
   26800     243.8154   -389.21285    181563.75   -13221.799     1002.939   -14224.738   -793.91856    179.83943    78.749813    25.214147    16.377337 
   27000    248.63994   -340.47884    181563.75   -13258.619    1022.7848   -14281.403   -657.92987    180.69026    78.751738    25.210643    16.386492 
   27200    247.95022   -377.74883    181563.75   -13244.349    1019.9477   -14264.297   -753.31439    182.14893    78.751544    25.213868    16.409389 
   27400    246.95232   -343.89602    181563.75   -13240.609    1015.8428   -14256.451   -705.42625    181.25956    78.751153    25.221578    16.389492 
   27600     244.8492   -336.21747    181563.75   -13256.646    1007.1916   -14263.838     -632.542     183.4516    78.753493    25.222366    16.360321 
   27800    230.55664    -159.1788    181563.75   -13355.188    948.39887   -14303.587    3.9388652    184.02252    78.755652    25.226829    16.360673 
   28000    230.77922   -240.78007    181563.75   -13290.332    949.31445   -14239.647    -292.7198    185.15092    78.757396    25.226321    16.332234 
   28200    240.49686   -414.69945    181563.75   -13240.263    989.28814   -14229.551   -888.80194    186.68855    78.758415    25.224924    16.335777 
   28400    239.66391   -378.10319    181563.75    -13242.14    985.86176   -14228.001   -766.50708    186.88374      78.7578    25.226439    16.308464 
   28600    239.41161   -467.71552    181563.75   -13260.224    984.82392   -14245.048   -1083.2109    187.45276    78.755966    25.224694     16.28191 
   28800    229.70269   -340.64232    181563.75   -13336.465    944.88611   -14281.351   -621.07533    186.52076    78.760802    25.221108    16.310822 
   29000    235.55564   -398.30817    181563.75   -13300.547    968.96234    -14269.51   -851.15705    187.66691    78.759966    25.219808    16.298062 
   29200    238.96418   -432.02011    181563.75   -13292.985    982.98342   -14275.969   -1001.5886    190.43332     78.75522    25.216537     16.28331 
   29400    237.00477   -232.56733    181563.75   -13277.909    974.92334   -14252.832   -247.43216    190.97114    78.755697    25.216143    16.262751 
   29600    236.95615   -369.22233    181563.75   -13300.763    974.72337   -14275.486   -757.64548    193.64855    78.752334    25.218116    16.285234 
   29800     244.6621   -400.50337    181563.75   -13259.263    1006.4219   -14265.685   -876.41257    193.71348    78.749812    25.219561    16.266676 
   30000     241.5323   -386.44009    181563.75   -13268.466    993.54743   -14262.014   -820.40125    193.71086    78.749495    25.217377    16.281305 
   30200    237.94752   -422.34127    181563.75   -13307.497    978.80136   -14286.299   -984.46856    195.59752    78.749254    25.215521    16.296018 
   30400    237.87168    -239.4539    181563.75   -13342.364    978.48939   -14320.853    -280.2033    195.37019    78.747936     25.21755    16.300683 
   30600    227.09546   -321.30364    181563.75   -13332.235    934.16124   -14266.396   -602.32017    195.11505    78.747474    25.217034    16.302664 
   30800    238.04194   -262.03194    181563.75   -13303.922    979.18976   -14283.112    -399.1073    197.44926    78.753195    25.216473    16.300731 
   31000    235.21496   -126.50912    181563.75    -13286.36    967.56094   -14253.921    109.87991    196.92937     78.75631    25.212697    16.333492 
   31200    240.72018   -459.74853    181563.75     -13272.7    990.20677   -14262.907   -1037.8023    198.25529    78.757474    25.209778    16.316382 
   31400    236.29178   -343.27193    181563.75   -13275.962    971.99045   -14247.953   -719.80719      197.878    78.756978    25.206672    16.316341 
   31600    250.32325   -187.89104    181563.75   -13217.247    1029.7092   -14246.956   -107.51354     197.7464    78.759057    25.201178    16.309589 
   31800    244.86013   -365.32771    181563.75   -13290.202    1007.2365   -14297.439   -710.80028    199.37435    78.757953    25.200657    16.309562 
   32000    246.35299   -235.77131    181563.75   -13275.233    1013.3774   -14288.611   -296.34023    201.83146    78.761388    25.200101    16.307554 
   32200    233.20883   -286.18757    181563.75   -13322.479     959.3087   -14281.788    -468.0759    202.21191    78.763153    25.196625    16.316731 
   32400    237.99057   -373.89877    181563.75   -13316.208    978.97848   -14295.187   -759.02946    204.34201     78.76144    25.193683    16.295296 
   32600    239.41808   -103.30714    181563.75     -13283.8    984.85054   -14268.651    234.17663    206.56545    78.761956    25.195384    16.313667 
   32800    238.14499   -377.80882    181563.75   -13284.927    979.61366   -14264.541   -816.06121    206.01205    78.755259    25.196575     16.32192 
   33000     235.4221   -309.04983    181563.75    -13255.49    968.41301   -14223.903   -553.18583    208.07716    78.751439    25.195952    16.322552 
   33200     234.8248   -321.70647    181563.75   -13239.299      965.956   -14205.255   -529.75124    210.11177    78.749862    25.198846    16.324396 
   33400    236.49375   -417.43374    181563.75   -13250.683    972.82129   -14223.505   -917.73632    211.53492    78.745321    25.199251    16.306235 
   33600    233.49922    -293.7849    181563.75   -13296.757    960.50321    -14257.26   -451.57443    211.08424    78.740562    25.196661    16.306039 
   33800    248.73527   -300.22946    181563.75   -13248.274     1023.177   -14271.451   -518.93658    211.79755    78.739856    25.193823    16.304773 
   34000    238.98973   -546.58689    181563.75    -13268.06    983.08854   -14251.149   -1373.7375    214.10287    78.739906    25.196332    16.284773 
   34200    235.16792   -503.22199    181563.75   -13297.699    967.36744   -14265.066   -1207.1057    215.46685    78.740125    25.198231    16.312052 
   34400    233.52061   -309.90714    181563.75   -13288.188     960.5912   -14248.779   -520.37984    216.68756    78.738457    25.195705    16.316414 
   34600    242.04071   -268.29083    181563.75   -13290.906    995.63878   -14286.545   -409.32172    217.72459    78.735918    25.192909    16.316413 
   34800     236.5763   -546.33651    181563.75   -13271.424    973.16083   -14244.585   -1407.6374    219.37437    78.740025    25.186805    16.315764 
   35000    235.87373   -468.71416    181563.75   -13309.089     970.2708   -14279.359   -1074.4693    220.04645    78.740438    25.186149    16.324699 
   35200    241.47399   -254.84315    181563.75   -13260.845    993.30758   -14254.152   -335.29731    219.56927    78.744106    25.182257    16.344318 
   35400    235.29357   -389.37937    181563.75   -13242.702    967.88432   -14210.586   -777.35652    220.32633    78.744675    25.179238    16.327369 
   35600    240.92779   -356.79895    181563.75   -13308.231    991.06079   -14299.292   -715.67477    222.05474    78.746628    25.179913    16.332472 
   35800    248.95567    -398.9791    181563.75   -13266.577    1024.0836   -14290.661   -831.73757    223.17848    78.746248    25.179672    16.339107 
   36000    236.83119   -370.11408    181563.75   -13320.377    974.20933   -14294.586    -764.0758    224.09195    78.748422    25.177904    16.345058 
   36200    238.50797     -407.562    181563.75   -13315.493     981.1068     -14296.6   -886.95312    226.36753    78.748459    25.180191    16.338833 
   36400    242.56618   -281.19513    181563.75   -13271.924    997.80033   -14269.725   -425.68713    226.83788    78.750248    25.185805    16.370203 
   36600    234.97484   -607.16538    181563.75   -13316.817     966.5732    -14283.39   -1602.0962    228.62449    78.751364    25.188508    16.355225 
   36800    235.05578   -412.27066    181563.75   -13355.759    966.90615   -14322.665   -892.60329    229.20644    78.751226    25.192872    16.370611 
   37000       238.14   -564.92237    181563.75   -13321.637    979.59313   -14301.231   -1439.7866    229.68208    78.756477    25.192619    16.355951 
   37200    233.42822   -547.13623    181563.75   -13369.356    960.21113   -14329.567   -1451.9229    229.77184    78.760901    25.192616    16.346318 
   37400    244.05234   -427.94629    181563.75   -13302.282    1003.9136   -14306.196   -958.25771    230.19508    78.759714    25.193982     16.34645 
   37600     238.4004   -350.78656    181563.75   -13274.882    980.66431   -14255.547   -656.60546    231.25401     78.75961    25.189907    16.313523 
   37800     240.2308   -377.59138    181563.75   -13308.722    988.19369   -14296.916   -756.48457    230.81753    78.759547    25.184842    16.283969 
   38000    244.09394   -367.58174    181563.75    -13300.69    1004.0848   -14304.775   -769.78635    230.12008    78.759521    25.179819    16.271826 
   38200    243.36091   -204.28922    181563.75   -13279.729    1001.0695   -14280.798   -185.13073    230.52907    78.763356    25.182668    16.288433 
   38400    248.63408   -227.83119    181563.75   -13257.751    1022.7607   -14280.512   -275.00732    231.59704    78.761782    25.180155    16.289353 
   38600    245.33983   -414.51438    181563.75   -13281.517    1009.2098   -14290.727   -900.86955    232.96693    78.762405    25.182413     16.28786 
   38800    237.92779   -247.59614    181563.75   -13293.618    978.72023   -14272.338   -350.79201     231.3933     78.75944    25.180986    16.303272 
   39000    240.26735   -409.44625    181563.75   -13275.793    988.34403   -14264.137   -871.30041    233.95422    78.754367    25.182378    16.300591 
   39200     230.1658   -387.66684    181563.75   -13379.752    946.79113   -14326.543    -846.1177    233.83922    78.752576    25.180531    16.307776 
   39400    241.28704   -387.31896    181563.75   -13323.094    992.53855   -14315.632   -807.69898    233.33462    78.752862    25.179787     16.27343 
   39600    233.54332   -225.45394    181563.75   -13350.995    960.68462    -14311.68   -197.40374    233.59783    78.750766    25.179983    16.256962 
   39800    246.34666   -350.89867    181563.75   -13246.788    1013.3514   -14260.139   -676.93928    235.99497    78.751778    25.177234    16.271155 
   40000    236.02008   -291.58004    181563.75   -13328.643    970.87281   -14299.516   -455.80234     235.2534    78.751499    25.176231    16.278796 
   40200    239.09126   -317.58933    181563.75   -13367.889    983.50617   -14351.395   -534.18713    235.61284     78.74943     25.17403    16.286365 
   40400     246.7939   -445.64054    181563.75   -13237.492    1015.1911   -14252.683   -1023.8645    236.48391    78.748591    25.176102    16.325761 
   40600    227.95992   -390.27394    181563.75   -13405.849    937.71721   -14343.566    -827.8566    238.58024    78.748657    25.174909    16.363364 
   40800    235.80563   -320.67676    181563.75    -13338.19    969.99067    -14308.18   -577.30022    239.34449    78.750068    25.172665    16.367151 
   41000     246.8179   -471.79414    181563.75    -13297.09    1015.2898   -14312.379   -1086.0252     241.4579    78.750236    25.171309    16.357735 
   41200    242.44155   -216.82746    181563.75    -13285.93    997.28766   -14283.217   -185.21407    242.87843    78.748552    25.170723    16.373964 
   41400    239.21477    -269.2437    181563.75    -13256.05    984.01424   -14240.064    -394.9098    243.21564    78.747456    25.168051    16.395921 
   41600    245.14304   -573.80564    181563.75   -13205.127    1008.4003   -14213.527   -1468.2181    246.16245    78.749944     25.16504    16.402074 
   41800    241.39012   -144.89105    181563.75   -13289.229    992.96257   -14282.191    18.729276    247.34649    78.749329    25.167009     16.38682 
   42000    232.35429   -394.51676    181563.75   -13281.639    955.79353   -14237.433   -786.07857    247.84441     78.74652    25.170404    16.402882 
   42200    241.34588   -563.71628    181563.75   -13272.067     992.7806   -14264.848   -1444.7226    249.68942    78.746711    25.169078    16.396521 
   42400    230.53951   -436.45918    181563.75   -13261.256     948.3284   -14209.584   -982.56437      247.481    78.746899    25.171688    16.395263 
   42600    234.99139   -295.92747    181563.75   -13244.005    966.64129   -14210.646   -486.11866    249.63712     78.74567    25.173658    16.408644 
   42800    237.88957   -382.47051    181563.75   -13223.516      978.563   -14202.079   -782.54302    251.59916    78.744397    25.174667    16.421793 
   43000    247.27058   -320.36587    181563.75   -13221.323     1017.152   -14238.475   -579.54519    254.51198    78.744341    25.173288      16.4213 
   43200    244.61168   -405.58748    181563.75   -13236.695    1006.2145    -14242.91   -823.97534    254.65933    78.743272    25.172228    16.443377 
   43400     240.3276   -487.34919    181563.75   -13287.608    988.59189     -14276.2   -1172.6267    254.30905    78.747582    25.170155      16.4311 
   43600    229.69141   -377.77102    181563.75   -13308.396    944.83973   -14253.236   -750.08846    257.87754    78.750404     25.16899    16.412511 
   43800     240.7679   -413.60947    181563.75   -13252.441    990.40306   -14242.844    -893.3237    260.30613    78.754188    25.171569    16.395435 
   44000     239.8608   -267.82023    181563.75   -13292.418     986.6717   -14279.089    -367.5448    260.90808    78.760077    25.176887     16.40207 
   44200    239.78386   -346.91779    181563.75   -13247.321    986.35521   -14233.677   -675.17785    261.16972    78.765221    25.177664    16.397566 
   44400    243.78944   -297.09714    181563.75    -13190.38    1002.8322   -14193.212   -512.79048     264.1992     78.76676    25.176983    16.412311 
   44600    245.37536   -424.80362    181563.75    -13283.36    1009.3559   -14292.716   -929.64714    264.92427    78.768315    25.179444    16.401105 
   44800    236.95744   -355.77405    181563.75   -13262.044    974.72865   -14236.773   -690.04935    264.53615    78.770619    25.187532    16.394209 
   45000    242.43609   -440.64621    181563.75   -13253.667    997.26519   -14250.932    -985.7001    265.46081    78.774844    25.193924    16.372067 
   45200    251.59148   -254.36402    181563.75   -13188.607     1034.926   -14223.533   -372.06379    267.53929    78.776134    25.197702    16.366818 
   45400    243.53604   -382.54041    181563.75   -13164.835    1001.7899   -14166.625   -815.02046    270.43309    78.777966    25.194451    16.381241 
   45600     244.0273   -551.99708    181563.75   -13189.298    1003.8107   -14193.109   -1418.1835    270.58831    78.782694    25.197108    16.384443 
   45800    241.19039   -365.68065    181563.75   -13248.406    992.14096   -14240.547   -703.45371    269.85936    78.782086    25.196264    16.369963 
   46000    249.61176   -318.65744    181563.75   -13233.519    1026.7824   -14260.302   -548.90373    270.78762    78.779535     25.19051    16.390711 
   46200    235.52034   -523.40039    181563.75   -13231.679    968.81715   -14200.496   -1324.3105    273.54735    78.778549    25.190087    16.377022 
   46400    245.80092   -305.54249    181563.75   -13208.897    1011.1065   -14220.003   -548.06593    274.63623     78.77903    25.188894    16.369013 
   46600    244.01125   -324.01516    181563.75   -13262.625    1003.7446    -14266.37   -608.33244    275.32303    78.778389    25.192237    16.372368 
   46800     240.1251   -197.79884    181563.75    -13197.99    987.75889   -14185.749   -136.74212     277.1748     78.78033    25.193629    16.387803 
   47000     255.2398   -418.81037    181563.75   -13181.205    1049.9335   -14231.138   -915.76656    279.08618    78.783379    25.195104    16.381988 
   47200    240.94884   -477.59841    181563.75   -13277.345    991.14736   -14268.493    -1096.804    281.55146    78.782765    25.198277    16.378824 
   47400    241.58304   -434.91388    181563.75    -13276.82    993.75615   -14270.576   -942.03429    280.71884     78.77937    25.199439    16.356699 
   47600    236.19923   -289.33148    181563.75   -13279.952    971.60975   -14251.562   -494.09103    280.94273    78.777579    25.201424    16.380988 
   47800    233.57664     -368.113    181563.75   -13279.923    960.82167   -14240.745   -758.12686     282.6688    78.773735    25.201914    16.368655 
   48000    236.76986   -258.00641    181563.75   -13272.807    973.95705   -14246.764   -324.15781    284.44919    78.771615    25.203507    16.372648 
   48200    234.56689   -308.77786    181563.75    -13249.19    964.89511   -14214.085   -524.24692    286.04681    78.769544    25.202715    16.361905 
   48400    238.57022   -282.87657    181563.75   -13287.038    981.36288   -14268.401   -467.14675    286.20853    78.769169    25.203731    16.348408 
   48600    241.75052   -386.31162    181563.75   -13262.501    994.44507   -14256.946   -849.82401    287.70388    78.768878    25.200218    16.316386 
   48800    246.20181   -230.71168    181563.75   -13277.615    1012.7555    -14290.37   -261.42739     287.3411    78.771745    25.199012    16.312963 
   49000    242.95797   -357.71585    181563.75    -13234.75    999.41195   -14234.162   -721.82983    290.90735    78.772568    25.201828    16.322088 
   49200    241.99057   -227.55086    181563.75   -13259.164    995.43253   -14254.597   -244.51693    289.93813    78.772956    25.201054     16.31589 
   49400    241.09331   -302.58872    181563.75   -13262.437    991.74163   -14254.179   -500.40569    292.71762    78.773134    25.199148    16.315107 
   49600    240.64306   -507.72811    181563.75    -13306.98    989.88954   -14296.869   -1219.0999    293.91598    78.773286    25.194776    16.295493 
   49800    239.38991   -379.95904    181563.75   -13331.001    984.73467   -14315.736   -818.14572    294.61549    78.776274    25.191375    16.312259 
   50000    235.51879   -395.07533    181563.75   -13325.787    968.81076   -14294.598   -857.49207    295.63379    78.775202    25.190405     16.31218 
   50200    238.65612   -376.94385    181563.75   -13244.787    981.71622   -14226.503   -764.90988    296.20419    78.776374    25.188472    16.277955 
   50400    252.86247   -429.26488    181563.75   -13275.121    1040.1543   -14315.276    -912.8847    298.31804    78.776281    25.181104    16.286353 
   50600    238.13631   -208.55739    181563.75   -13356.192    979.57797    -14335.77   -162.21483    297.96827    78.778042    25.178409    16.288667 
   50800     231.8041   -274.30645    181563.75   -13362.885    953.53029   -14316.416    -413.1622    301.65838    78.778857    25.170845    16.268031 
   51000    238.60416   -275.88383    181563.75   -13275.262    981.50249   -14256.765   -425.74366    304.40618    78.777347    25.164386    16.270841 
   51200    242.98066   -325.22064    181563.75   -13362.685    999.50528    -14362.19   -583.83406    304.50115    78.776414    25.165422    16.273051 
   51400    242.33519   -208.96056    181563.75   -13303.962    996.85011   -14300.812   -199.52419    303.93308    78.777336    25.168147    16.260913 
   51600    240.13163   -381.91707    181563.75   -13291.556    987.78574   -14279.342   -792.99032    304.42279    78.775979    25.173073    16.266014 
   51800    239.65339   -508.00961    181563.75   -13270.981    985.81851   -14256.799   -1202.3271    305.93744    78.776948    25.170943    16.284029 
   52000    230.75458   -474.33051    181563.75   -13261.569    949.21311   -14210.782   -1148.4993    308.30416    78.777478    25.173841    16.269832 
   52200    237.27006   -176.51181    181563.75   -13272.099    976.01462   -14248.113   -65.885932    309.28647    78.777522    25.181181    16.271299 
   52400    242.81485   -382.50019    181563.75   -13275.311    998.82322   -14274.134   -826.29461    310.05649    78.774841    25.181693     16.29235 
   52600    237.51235   -306.66157    181563.75   -13278.919    977.01131    -14255.93   -523.38209    311.79226    78.775415    25.184277    16.282807 
   52800    231.48808   -432.66644    181563.75   -13345.702    952.23035   -14297.932   -968.86121    312.98575    78.778726    25.183404    16.288559 
   53000    234.70824   -476.72849    181563.75    -13354.25    965.47655   -14319.726   -1132.7971    314.58051    78.777024    25.183754    16.296822 
   53200    237.33503    -266.5673    181563.75    -13338.69    976.28188   -14314.972   -355.13694    314.13641    78.777716    25.184648    16.274068 
   53400    237.23799   -491.84883    181563.75    -13280.18    975.88273   -14256.063   -1148.7302    315.67651    78.780097    25.185116    16.270852 
   53600    244.66389   -416.74808    181563.75   -13230.592    1006.4293   -14237.022   -895.32758    318.20792    78.778125    25.183247     16.27199 
   53800    244.24155   -251.77758    181563.75    -13261.74     1004.692   -14266.432   -334.42659      316.261     78.77699    25.181827    16.279485 
   54000     248.4335   -503.03604    181563.75   -13207.153    1021.9356   -14229.089   -1241.2807    317.35192    78.774458    25.179941     16.28525 
   54200    228.56968   -415.61144    181563.75   -13295.232    940.22545   -14235.457   -907.69202    316.66585    78.772115    25.180053    16.301042 
   54400    239.43293   -457.11507    181563.75   -13265.733    984.91164   -14250.644   -1060.0043    317.76356    78.773242    25.176468    16.305419 
   54600    240.70617   -410.14531    181563.75    -13243.02    990.14915   -14233.169   -885.15262    317.42879    78.772082    25.177266    16.287663 
   54800    249.76469   -366.43161    181563.75   -13179.253    1027.4115   -14206.664   -718.99163    318.74964    78.771172    25.179552    16.297816 
   55000    239.99346   -665.05113    181563.75     -13238.7    987.21738   -14225.917   -1768.9899    320.81003    78.770787    25.181796       16.285 
   55200    242.16313   -296.29354    181563.75   -13228.348    996.14236    -14224.49   -475.04526    321.40675    78.771451    25.181264    16.297278 
   55400    240.94623   -433.97247    181563.75   -13205.599    991.13662   -14196.735   -1008.3212    323.31695    78.771384     25.18021    16.308977 
   55600    246.06126   -383.36206    181563.75   -13246.138    1012.1774   -14258.316   -796.88554    323.64237    78.773248    25.181215    16.326426 
   55800     241.3805    -373.2054    181563.75   -13274.691      992.923   -14267.614   -800.22521     325.3167    78.774524    25.181667    16.347277 
   56000    228.12702   -403.89325    181563.75   -13307.994    938.40456   -14246.399   -929.32994    325.19625    78.778434     25.17866     16.34395 
   56200    242.52822   -228.33131    181563.75   -13237.902    997.64416   -14235.546   -258.24568     326.6553    78.781114    25.179165    16.366966 
   56400    235.17182   -360.58515    181563.75   -13243.553    967.38348   -14210.936   -728.70631    326.84604    78.781343    25.177712    16.387039 
   56600    237.76017   -433.54961    181563.75   -13322.882     978.0307   -14300.912   -950.27977    330.08429     78.78105    25.178355    16.385144 
   56800    230.72087   -338.89746    181563.75   -13360.037    949.07442   -14309.112    -637.0865      330.414    78.784042    25.180327    16.375761 
   57000    231.24871    -282.9632    181563.75   -13354.927    951.24571   -14306.173   -428.44945    330.01621    78.787741    25.182489     16.37492 
   57200    235.12119   -206.43721    181563.75   -13354.229    967.17522   -14321.404   -161.67254    331.05841    78.789917    25.183123    16.367057 
   57400    245.80066   -333.02569    181563.75   -13322.562    1011.1054   -14333.667   -628.37636    332.53066    78.788506    25.183849    16.346577 
   57600    244.25962   -189.03941    181563.75   -13258.612    1004.7663   -14263.378   -77.010163    331.11429    78.792296    25.183737    16.363841 
   57800    234.00144   -401.94029    181563.75   -13261.613     962.5691   -14224.182   -886.47711    332.28774    78.788129     25.17709    16.392063 
   58000    240.59839   -325.30907    181563.75   -13261.529    989.70577   -14251.235   -602.48047    333.29556    78.788616    25.173215    16.421535 
   58200    239.62526   -396.07144    181563.75   -13287.129    985.70279   -14272.832   -892.80487    334.90968    78.789127    25.171641    16.446462 
   58400    236.14841   -259.25312    181563.75   -13291.341     971.4007   -14262.741   -404.76779    335.28257    78.791819    25.169457    16.446511 
   58600    237.14886   -365.70186    181563.75   -13287.694    975.51606    -14263.21   -744.81725     335.5786    78.794299    25.166952    16.473373 
   58800    236.13306   -371.14261    181563.75   -13282.145    971.33757   -14253.483    -779.8343    337.18829     78.79628    25.170963    16.452413 
   59000    237.28947    -470.4143    181563.75   -13294.175    976.09448   -14270.269   -1108.5083    339.66048     78.79838    25.176473     16.45461 
   59200    236.87408   -322.82719    181563.75   -13294.661    974.38577   -14269.047   -648.44709    339.84813    78.798845    25.179074    16.444234 
   59400    243.66481   -445.46008    181563.75   -13295.455    1002.3196   -14297.775   -983.71375    338.44745    78.796999    25.183414    16.465873 
   59600    243.76337    -402.8813    181563.75    -13238.85     1002.725   -14241.575    -892.8977    338.47436    78.795722    25.182084    16.448079 
   59800    239.83492   -404.31881    181563.75   -13221.658    986.56521   -14208.224   -877.34646     338.0065    78.797681    25.181255    16.464522 
   60000    233.51797   -365.34568    181563.75   -13284.796    960.58034   -14245.376   -731.38777    339.03314    78.797998    25.179994    16.491915 
   60200    244.09636   -313.11974    181563.75   -13220.146    1004.0948   -14224.241   -540.83792    341.57072    78.792674    25.178508    16.486532 
   60400    243.65842   -364.58291    181563.75   -13291.037    1002.2933    -14293.33   -735.85742    341.28936     78.78944    25.176808     16.47216 
   60600    245.14473   -384.51499    181563.75   -13276.223    1008.4072    -14284.63    -796.5767    342.42487    78.787717    25.178372    16.444193 
   60800    244.22233   -376.81642    181563.75   -13308.779    1004.6129   -14313.392   -746.13755    342.83095    78.786724      25.1779    16.469318 
   61000    241.24382   -253.50198    181563.75   -13382.469    992.36075   -14374.829   -347.16295    342.21123    78.785361    25.176012    16.448061 
   61200    245.83561   -488.03403    181563.75   -13368.018    1011.2492   -14379.267   -1135.2279    344.63021    78.784009    25.174668    16.465952 
   61400    235.99893   -356.57007    181563.75   -13384.807    970.78582   -14355.593   -695.95884    345.66757    78.782629    25.179775    16.466303 
   61600    233.66457   -304.35973    181563.75   -13380.399     961.1834   -14341.583   -510.08242    345.87419    78.784467    25.184119    16.479226 
   61800    246.24339   -391.54523    181563.75   -13347.383    1012.9266    -14360.31   -800.09512    346.83443    78.787107    25.187073    16.478552 
   62000    231.30915   -491.29718    181563.75    -13362.62    951.49433   -14314.114   -1220.4685    349.52007    78.786131    25.192301    16.464844 
   62200     240.8659   -504.09234    181563.75   -13295.178    990.80618   -14285.984   -1236.2516    348.53132    78.786109    25.198721    16.467945 
   62400    242.20739   -232.90645    181563.75   -13253.605    996.32441    -14249.93   -213.65908     348.0266    78.784454     25.19832    16.451492 
   62600    237.96048   -273.59658    181563.75   -13317.563    978.85469   -14296.418   -390.72639    347.57036    78.783591    25.198854    16.440528 
   62800    240.65815    -440.0486    181563.75   -13294.993    989.95159   -14284.945   -1003.2356    350.68568    78.789357    25.201929    16.456139 
   63000    237.37267   -260.79421    181563.75   -13250.583    976.43673    -14227.02   -363.50661    351.26194     78.78738    25.199301    16.448547 
   63200    237.73305   -334.88608    181563.75   -13330.794    977.91915   -14308.713   -625.20687    352.55592    78.788339    25.190104    16.473563 
   63400    240.22067   -380.23513    181563.75   -13267.175    988.15202   -14255.327   -777.43277    351.39183    78.786749     25.18955    16.472683 
   63600    246.24512   -158.10785    181563.75   -13213.044    1012.9337   -14225.978    18.768575    354.59672    78.786427    25.188273    16.445079 
   63800    242.37767   -451.11042    181563.75   -13240.982    997.02486   -14238.007   -1020.5508     358.2058     78.78844    25.189302    16.460363 
   64000    239.90383   -102.91716    181563.75   -13286.538    986.84871   -14273.387    220.83302    357.16605    78.788853    25.190432     16.44793 
   64200    243.10688   -348.00467    181563.75   -13283.418    1000.0245   -14283.442   -712.51713    357.18794    78.784799    25.190572    16.436355 
   64400    245.00721   -409.41661    181563.75     -13255.7    1007.8415   -14263.542   -891.27382    359.32449     78.78453    25.192663    16.445765 
   64600    239.22966   -67.365551    181563.75   -13265.072    984.07548   -14249.147     325.0324    356.92172    78.784985    25.193122    16.470585 
   64800    234.55858   -425.00623    181563.75   -13259.559    964.86091    -14224.42    -955.8105    359.14962    78.786834    25.195028    16.461953 
   65000     229.0322   -509.25774    181563.75   -13326.311    942.12803   -14268.439   -1289.8004    360.20303    78.787048    25.196497    16.478687 
   65200    245.63042   -276.72938    181563.75   -13315.815    1010.4051    -14326.22   -417.40391    360.98059    78.789611    25.194151    16.466242 
   65400    251.55993   -370.84135    181563.75   -13186.499    1034.7963   -14221.295   -791.91301    361.18128    78.789822    25.199687    16.460489 
   65600    241.29403    -276.9411    181563.75   -13259.404    992.56732   -14251.972   -383.83846    361.69701    78.791551    25.199668    16.460166 
   65800    239.52236   -265.96483    181563.75   -13209.067     985.2795   -14194.347   -395.73452      362.976    78.791391    25.199094    16.446345 
   66000    238.90596   -329.39303    181563.75   -13253.132    982.74393   -14235.876   -614.72219    362.93927    78.792483    25.198012    16.425128 
   66200    240.20189   -398.79452    181563.75   -13256.179    988.07476   -14244.253   -831.55275    364.85913    78.791637    25.203766    16.410979 
   66400    235.04442   -359.12309    181563.75    -13314.67    966.85941    -14281.53   -729.97713    363.87583    78.795516    25.206286    16.410638 
   66600    243.73925   -433.55641    181563.75   -13304.773    1002.6258   -14307.399   -993.62178    364.70241    78.798164    25.205289    16.399496 
   66800    235.33562   -338.50087    181563.75   -13318.836    968.05729   -14286.893   -639.71648    365.32819    78.798517    25.205595     16.40502 
   67000    231.12236   -355.97864    181563.75   -13348.345    950.72596   -14299.071   -710.57875    366.26618    78.799146    25.208765    16.388822 
   67200    235.88031   -389.09156    181563.75   -13356.674    970.29785   -14326.971   -828.36775    368.00729    78.800566    25.211515    16.405442 
   67400    232.81602   -405.76123    181563.75   -13304.609    957.69284   -14262.302   -909.08889    370.83228    78.799231    25.207979    16.416512 
   67600    241.68099   -360.14945    181563.75   -13331.688    994.15906   -14325.847   -757.66763    368.98386    78.797701     25.21089    16.411729 
   67800    240.50049   -283.18508    181563.75   -13288.618    989.30306   -14277.921   -404.14369    370.91095    78.798704    25.217067    16.404512 
   68000    230.77754   -307.26806    181563.75   -13273.212    949.30753   -14222.519    -548.2374    370.80632    78.799729    25.221119      16.3747 
   68200    239.03855   -373.01445    181563.75   -13267.588    983.28934   -14250.878   -801.41502    371.65134    78.799848    25.219836    16.350258 
   68400    249.12566   -353.08555    181563.75   -13203.427    1024.7828    -14228.21   -715.93866    373.24427    78.799398    25.216955     16.35076 
   68600    235.54145   -211.60358    181563.75   -13281.199    968.90395   -14250.103   -182.30949    373.68046    78.799342    25.218801    16.326696 
   68800    240.31295    -549.5789    181563.75    -13227.24    988.53161   -14215.771   -1403.1126    376.27319    78.795654    25.218735    16.340058 
   69000     230.4125   -531.64409    181563.75   -13213.347    947.80594   -14161.153   -1351.5272    378.67147     78.79463     25.21741    16.335288 
   69200    242.17545   -293.87969    181563.75   -13242.605    996.19302   -14238.798   -417.91994    378.05669    78.794566    25.218607    16.316946 
   69400    232.88537   -310.26567    181563.75   -13282.406    957.97814   -14240.384   -562.92565     376.8394    78.794843    25.214011     16.31259 
   69600    244.72509   -571.44732    181563.75   -13218.197     1006.681   -14224.878   -1470.5985    379.14491    78.792495    25.213809    16.305255 
   69800     240.3063   -398.45661    181563.75   -13247.726    988.50427   -14236.231    -854.4183    380.44455    78.791407    25.214084     16.26098 
   70000    238.61514   -520.53795    181563.75   -13303.328    981.54766   -14284.876   -1293.1776    381.67825    78.788141    25.210686    16.237691 
   70200    244.43867   -444.71844    181563.75   -13302.512    1005.5029   -14308.015   -1046.2065    382.53021    78.789289    25.211936    16.239423 
   70400     242.7341   -457.50729    181563.75   -13293.578    998.49108   -14292.069   -1074.3344    383.32503    78.790672    25.208512    16.263898 
   70600    243.14006   -240.45829    181563.75   -13298.188     1000.161   -14298.349   -296.28267    382.72076    78.791102    25.208471    16.229624 
   70800    232.87265   -377.26451    181563.75   -13289.167    957.92581   -14247.093    -783.1194    384.63503    78.787981     25.20871    16.192404 
   71000    243.44285   -316.36332    181563.75   -13219.301    1001.4065   -14220.707   -597.16828    384.30263     78.78949    25.204177    16.215324 
   71200     261.1783   -360.95166    181563.75   -13131.026    1074.3616   -14205.388   -690.02254    385.02408    78.789281    25.199705    16.226575 
   71400    240.56315   -273.36365    181563.75   -13270.011     989.5608   -14259.571   -407.91919    383.86647    78.786966    25.202772    16.260685 
   71600    233.43817   -410.78763    181563.75   -13293.376    960.25209   -14253.628   -930.09319    383.09628    78.782902    25.205064    16.259488 
   71800    233.62112   -234.79518    181563.75   -13290.972    961.00465   -14251.976   -235.48341    384.65353    78.783429    25.206518    16.292521 
   72000    241.98965   -252.75253    181563.75    -13239.66    995.42876   -14235.089   -348.63377    384.03231    78.786304    25.209479    16.272488 
   72200    239.44719   -382.33322    181563.75   -13255.144     984.9703   -14240.114   -731.97187    381.58782    78.789423    25.214584    16.286616 
   72400    242.75396   -323.21517    181563.75   -13237.836    998.57273   -14236.409   -555.54667     383.5984    78.789863    25.213571    16.288314 
   72600    243.00782   -296.52706    181563.75   -13241.256    999.61699   -14240.873   -490.37756    384.59046    78.789172    25.211834     16.28812 
   72800    237.09158   -306.50916    181563.75    -13307.47    975.28045   -14282.751   -546.20454    385.58795    78.787515    25.211755    16.294391 
   73000    241.40657   -320.31737    181563.75   -13269.924    993.03026   -14262.954   -585.99864    387.81122    78.785673    25.211586    16.284651 
   73200     243.8309   -393.18962    181563.75   -13200.832    1003.0028   -14203.835   -816.32639    388.24315    78.785868    25.213509     16.30145 
   73400    239.17025   -434.58723    181563.75    -13240.98    983.83111   -14224.812   -987.07012    389.56576    78.790066    25.213808    16.283809 
   73600      233.563   -373.46879    181563.75   -13227.067    960.76557   -14187.832   -795.99123    389.95674    78.796388    25.214059    16.297669 
   73800    248.43718   -404.46193    181563.75   -13161.264    1021.9508   -14183.215   -863.11484    389.70651    78.795468    25.212737    16.270974 
   74000    247.44207   -273.74807    181563.75   -13152.735    1017.8574   -14170.593   -449.31297    389.54133    78.794784    25.209101    16.268843 
   74200    244.57866    -321.5414    181563.75   -13152.694    1006.0787   -14158.773   -560.39936    391.81156    78.797601    25.199407    16.283508 
   74400    240.79488   -374.43538    181563.75   -13207.581    990.51403   -14198.095   -802.56243    394.49937     78.79653    25.200923    16.276501 
   74600    239.96794   -281.13973    181563.75   -13246.427    987.11243   -14233.539   -423.54926     395.7969    78.796001    25.201315    16.259013 
   74800    241.64379   -375.84709    181563.75   -13202.527    994.00604   -14196.533   -744.93531    395.85122    78.799137    25.204677    16.242831 
   75000    241.67355   -429.33037    181563.75   -13241.405    994.12846   -14235.533   -1003.8363    397.18709    78.800111    25.203777    16.252231 
   75200    244.07695   -284.66764    181563.75    -13241.46    1004.0149   -14245.474   -479.60123    394.39642    78.799969    25.202443    16.252211 
   75400    243.69509   -387.28482    181563.75   -13189.545    1002.4441   -14191.989   -836.46148    396.42408    78.800527      25.2082    16.233363 
   75600    236.98227   -533.77975    181563.75   -13242.027     974.8308   -14216.858   -1378.5377    399.29479    78.800964    25.200286    16.264619 
   75800    239.10852   -487.57969    181563.75   -13248.783    983.57715   -14232.361   -1167.1155    400.99061    78.802341    25.196509    16.285854 
   76000    241.79873   -372.70628    181563.75   -13267.693    994.64339   -14262.337   -749.75945    401.44317    78.801107    25.197268    16.307537 
   76200    239.48104   -211.97069    181563.75   -13335.967    985.10954   -14321.077   -225.01726    401.17363    78.799469    25.195523    16.308339 
   76400    236.58433   -425.21691    181563.75   -13362.957    973.19386   -14336.151   -938.96556    404.71926    78.800119    25.193745    16.328554 
   76600    239.14617   -336.56119    181563.75   -13294.178    983.73203    -14277.91   -685.41017    399.74444    78.802105    25.193237    16.358182 
   76800     250.5327   -359.48598    181563.75   -13248.856    1030.5707   -14279.427   -653.61679    401.58065    78.803229    25.196221     16.35326 
   77000     241.8859   -346.47371    181563.75    -13311.21    995.00196   -14306.212   -692.78086    401.87774    78.802513    25.201284    16.352635 
   77200    244.18224    -332.0067    181563.75    -13305.22     1004.448   -14309.668   -630.37255      402.323    78.802763    25.202455    16.340004 
   77400    241.73589   -470.52086    181563.75   -13327.876    994.38491   -14322.261   -1139.7373    404.77106    78.803035    25.200839    16.330775 
   77600    236.39841   -506.17482    181563.75   -13345.911    972.42907    -14318.34   -1225.1117    405.04367    78.805301    25.200483    16.347564 
   77800    245.74022   -275.94759    181563.75   -13320.176    1010.8568   -14331.033   -411.56082    403.84844    78.806279    25.200221    16.379486 
   78000    236.23551   -370.17844    181563.75   -13362.887    971.75898   -14334.646   -719.06155    404.32033    78.806768    25.201201    16.368726 
   78200    245.39386   -404.96901    181563.75   -13321.571     1009.432   -14331.003   -897.54292    405.61412    78.806025    25.203252    16.383261 
   78400    240.92664   -425.01395    181563.75   -13316.657    991.05603   -14307.713   -947.41703    407.49948    78.803332    25.203866    16.389131 
   78600    233.33549   -222.64379    181563.75   -13370.958    959.82971   -14330.787   -245.69411    405.27027    78.803136    25.202002     16.36415 
   78800    244.72784   -282.41881    181563.75   -13335.167    1006.6924   -14341.859   -432.32498    406.57113    78.804645    25.202519    16.370301 
   79000    248.53247   -347.23197    181563.75   -13313.846    1022.3428   -14336.189   -644.53675    408.94167    78.806413    25.202024    16.393505 
   79200    244.69435   -401.97022    181563.75   -13284.532    1006.5546   -14291.087    -881.9223     410.7459    78.809796    25.199667    16.386445 
   79400    237.31199   -303.07649    181563.75   -13328.613    976.18713     -14304.8   -542.90428    409.52041    78.811777    25.198896    16.404111 
   79600    235.90344   -213.35652    181563.75   -13286.486    970.39301   -14256.879    -183.2436    408.93762    78.813011    25.196984    16.418895 
   79800    239.34339   -364.54755    181563.75   -13290.234    984.54331   -14274.778   -734.31859    411.46728    78.814958    25.194156     16.42068 
   80000    238.19443   -408.67043    181563.75   -13317.612    979.81704   -14297.429   -860.25166     412.4475     78.81324     25.19523    16.397086 
   80200    246.83237   -129.99698    181563.75   -13298.737    1015.3493   -14314.087    127.61656     410.5207    78.814424    25.194216    16.374783 
   80400     243.0974   -327.09888    181563.75    -13311.74     999.9855   -14311.725   -588.74034    413.71008    78.818825    25.191606    16.356281 
   80600     244.0014   -401.60497    181563.75   -13250.454    1003.7041   -14254.158   -871.63716    415.51162    78.820485    25.188545    16.320357 
   80800    239.25008   -434.31262    181563.75   -13310.509    984.15949   -14294.668   -951.89367     414.9828    78.820796    25.188012    16.327633 
   81000    250.82716   -147.53236    181563.75   -13223.583     1031.782   -14255.365    17.968336    415.36378    78.823316    25.189108    16.319112 
   81200    237.44805    -352.0252    181563.75   -13246.232     976.7468   -14222.978   -683.92305    416.58859    78.825554    25.194564    16.312207 
   81400    230.89202    -414.3852    181563.75   -13297.083    949.77844   -14246.861   -869.72964    416.76574    78.821184    25.195779    16.312912 
   81600    237.74439    -389.7272    181563.75   -13265.549    977.96581   -14243.514   -791.89932    419.82424    78.816486    25.195046     16.32093 
   81800    233.24927   -496.26342    181563.75   -13250.505    959.47504    -14209.98   -1211.3024    419.64193    78.817399    25.196215    16.307048 
   82000    243.37508   -389.05897    181563.75   -13231.795    1001.1278   -14232.923   -833.12566    420.71646    78.818563    25.195227    16.303598 
   82200    241.31373   -285.18181    181563.75   -13280.368    992.64835   -14273.017   -481.41542    421.61685    78.822554    25.193115    16.327863 
   82400    233.87632   -472.32791    181563.75   -13308.849    962.05442   -14270.904   -1092.2101    424.89516     78.82608    25.195232     16.36236 
   82600    239.65661    -370.6791    181563.75   -13282.561    985.83177   -14268.393   -732.28629    424.76195    78.828339    25.202086    16.381236 
   82800      246.455   -404.01635    181563.75   -13294.265     1013.797   -14308.062     -888.711    424.68505    78.829294     25.20611    16.358897 
   83000     231.9457   -392.97836    181563.75   -13309.836    954.11277   -14263.948   -895.65079    426.39316    78.828642    25.209831    16.349023 
   83200    244.28327   -292.72883    181563.75   -13297.627    1004.8636   -14302.491   -447.69359    426.29373    78.827199     25.21541    16.344497 
   83400    235.61639   -168.13701    181563.75   -13331.287    969.21224   -14300.499   -1.9639035    425.89883    78.824864    25.215954    16.316845 
   83600    235.46481   -328.85817    181563.75   -13309.055    968.58872   -14277.644   -643.24873    426.99243    78.827292    25.216983    16.318541 
   83800    237.01255    -516.6873    181563.75   -13385.527    974.95535   -14360.482    -1267.618    427.48836    78.832602    25.215228    16.334952 
   84000    244.16923   -415.16182    181563.75   -13379.806    1004.3945     -14384.2   -897.90805    428.62231    78.837314    25.214355    16.335201 
   84200    231.73255   -436.95961    181563.75   -13377.488    953.23597   -14330.724      -1033.7    428.78864    78.838764    25.216167     16.31034 
   84400    235.83824   -439.88536    181563.75   -13354.341    970.12482   -14324.466    -951.3339    430.64895    78.840017    25.213458    16.300481 
   84600    239.58112   -448.24481    181563.75   -13312.309    985.52123    -14297.83   -1030.5921    430.28368    78.842363    25.213707    16.300864 
   84800    238.39302   -273.06506    181563.75   -13357.451    980.63393   -14338.084    -401.1756    432.44436    78.842329     25.21201    16.297088 
   85000    242.23761    -426.9948    181563.75   -13370.234    996.44873   -14366.682   -935.68382    432.00257    78.843605    25.211467    16.304563 
   85200     247.0207   -415.60822    181563.75   -13292.298    1016.1241   -14308.422   -889.33495    432.61876    78.844485    25.210515    16.310305 
   85400    234.53752   -341.92886    181563.75   -13366.831     964.7743   -14331.605   -645.93572    433.79755    78.842208    25.210106     16.31929 
   85600     230.5971   -351.55182    181563.75    -13366.66     948.5653   -14315.225   -710.22318    431.66984     78.84796    25.208749    16.347632 
   85800    242.19991   -424.26764    181563.75    -13325.82    996.29364   -14322.114   -939.13831    432.15419    78.852007     25.21057    16.375028 
   86000    241.51734   -244.19687    181563.75   -13308.665    993.48588   -14302.151   -302.62641    431.82309    78.852133    25.219075    16.362913 
   86200    232.28484   -344.39565    181563.75   -13338.317    955.50784   -14293.824   -647.96631    432.32879    78.850111    25.217578    16.369983 
   86400    244.87069    -353.7613    181563.75   -13345.516      1007.28   -14352.796    -707.1715     433.1528    78.849493    25.214941    16.370463 
   86600    241.29057   -492.29294    181563.75   -13312.536    992.55306   -14305.089   -1180.5121    434.52501    78.850607     25.21548    16.355171 
   86800    236.76487   -405.48031    181563.75   -13318.943    973.93651   -14292.879   -843.10085    433.03021    78.849183     25.21633    16.367015 
   87000    236.31877     -408.602    181563.75   -13339.343    972.10149   -14311.445   -911.14537     436.0014    78.849119    25.217529    16.397563 
   87200    238.74508   -308.93899    181563.75   -13316.752    982.08215   -14298.834   -556.35899    435.64066    78.848082    25.221476    16.378799 
   87400    241.66696   -347.17061    181563.75   -13299.703    994.10136   -14293.805   -632.12829    434.46119    78.846902    25.220429    16.357526 
   87600    241.08255   -509.35349    181563.75   -13290.392    991.69736   -14282.089    -1224.244    437.49803    78.845625    25.222083    16.334131 
   87800    237.03406   -329.31183    181563.75   -13342.685    975.04384   -14317.729   -608.25152    437.34546    78.845188    25.220157    16.340439 
   88000    240.76369   -544.09968    181563.75   -13281.859    990.38574   -14272.245   -1365.7805    442.25253    78.845218    25.218148    16.358598 
   88200    237.60058    -363.0012    181563.75   -13257.717    977.37422   -14235.091   -730.96272    442.98685    78.846506    25.223522    16.407176 
   88400    246.06445   -389.66725    181563.75   -13291.585    1012.1905   -14303.775   -812.81666    444.44756    78.848278    25.229192    16.411291 
   88600    235.35137   -283.96901    181563.75   -13360.877    968.12207   -14328.999    -448.0982    442.96382    78.848317    25.232943    16.415285 
   88800    232.04176   -317.42148    181563.75   -13385.165    954.50791   -14339.673   -540.81805    444.25806    78.851064    25.233447    16.420961 
   89000    229.39931   -496.01359    181563.75   -13423.207    943.63816   -14366.845   -1188.4231    446.28415    78.851262    25.230303    16.422741 
   89200    235.51454   -466.90147    181563.75   -13406.657    968.79329   -14375.451   -1053.5013    447.71534    78.850929    25.225758    16.394134 
   89400     242.5806   -247.85584    181563.75   -13358.815    997.85963   -14356.675   -316.81704    446.92484    78.849523    25.220919    16.359727 
   89600     231.0569   -294.18755    181563.75   -13429.806     950.4567   -14380.263   -448.91143    448.29203    78.848377    25.216168    16.334635 
   89800    245.49896   -426.31817    181563.75   -13332.224    1009.8644   -14342.088   -907.40899    449.18136    78.846746    25.209441    16.346593 
   90000    243.53102   -498.77098    181563.75   -13258.734    1001.7692   -14260.503    -1199.066     452.2312    78.848934    25.204069    16.360519 
   90200    238.20016   -400.66364    181563.75   -13338.252    979.84063   -14318.092    -875.7719    455.03753    78.850666    25.199602    16.376647 
   90400    232.87401   -254.69675    181563.75   -13388.473    957.93139   -14346.404   -381.73181    455.94339    78.851625    25.198401     16.37778 
   90600    245.97806   -402.61764    181563.75   -13298.283    1011.8351   -14310.119   -831.86006    456.14313    78.849569    25.200681    16.322398 
   90800    248.67813   -278.19797    181563.75   -13277.836    1022.9419   -14300.778   -433.61441    456.29282    78.849827    25.200962    16.301327 
   91000    244.98235    -225.1226    181563.75    -13327.21    1007.7393   -14334.949   -199.83193    458.36506    78.850642     25.19779    16.306382 
   91200    233.07556   -450.56504    181563.75   -13362.616    958.76049   -14321.376   -1005.5823    459.84707    78.854204    25.197463     16.30463 
   91400    234.12918   -451.38042    181563.75   -13441.311    963.09457   -14404.406   -1041.9051    459.92339     78.85428     25.20151    16.303631 
   91600    250.64861   -307.76439    181563.75   -13342.076    1031.0475   -14373.123   -548.42253    462.19348     78.85697    25.204912    16.321747 
   91800    239.50931   -309.01709    181563.75   -13364.362    985.22582   -14349.588   -527.16505     462.2287    78.856852    25.210491    16.332567 
   92000    241.37807   -371.33048    181563.75   -13357.975    992.91299   -14350.888    -758.6347    465.55066    78.854206    25.213357    16.324198 
   92200     235.7037   -433.44304    181563.75   -13376.253    969.57139   -14345.824   -942.82858    470.19141    78.849229    25.214445    16.328639 
   92400    246.28507   -400.93726    181563.75   -13321.113    1013.0981   -14334.211   -851.75321    473.55185    78.848395    25.210282    16.344578 
   92600    235.02565   -317.60208    181563.75   -13376.169    966.78223   -14342.952   -527.16447    475.12499    78.845945    25.214751    16.344448 
   92800    237.85003   -467.21243    181563.75   -13408.089    978.40033   -14386.489   -1056.1877    475.15861    78.840086    25.218594    16.359995 
   93000    234.35977   -426.32997    181563.75     -13425.5    964.04311   -14389.543   -913.21018    473.08037    78.839307    25.218745    16.335221 
   93200    240.10989   -403.68981    181563.75   -13403.428    987.69632   -14391.125    -817.0315    470.26284    78.838083     25.21833    16.327616 
   93400    233.75029   -336.81357    181563.75    -13403.91    961.53598   -14365.446   -593.98897     469.2008    78.835349     25.21682    16.338405 
   93600    236.07353   -260.82312    181563.75   -13365.214     971.0927   -14336.307   -373.75247    469.93372    78.833237    25.217145    16.338371 
   93800    245.55545   -325.86912    181563.75   -13297.334    1010.0967   -14307.431   -635.61476    471.58325    78.833301    25.215055    16.322734 
   94000    244.17947   -450.89413    181563.75   -13330.603    1004.4366   -14335.039   -1076.7009    471.96379     78.83577    25.209772     16.33041 
   94200     249.1799   -385.34613    181563.75   -13273.774     1025.006    -14298.78   -810.61298    471.47823     78.83782    25.208261    16.328686 
   94400    248.49251   -221.21752    181563.75   -13272.334    1022.1784   -14294.513   -209.54105    468.22718     78.83693    25.211657    16.360933 
   94600    250.80131    -401.9763    181563.75   -13290.539    1031.6757   -14322.215    -850.9648    468.09953    78.837707    25.210169    16.352719 
   94800    248.46506   -408.65784    181563.75   -13269.518    1022.0655   -14291.584   -908.85894    466.43908    78.836813    25.213217    16.358143 
   95000    240.73525   -557.02473    181563.75   -13337.209    990.26875   -14327.478   -1422.1869     466.3408    78.836821     25.21437    16.334886 
   95200    238.88304   -448.61149    181563.75   -13300.938    982.64965   -14283.588   -1031.8148    467.94414    78.835058    25.214848    16.340673 
   95400    239.89298    -429.9882    181563.75   -13272.218    986.80405   -14259.022   -996.89458    469.09536    78.832749    25.214021    16.322497 
   95600    243.95955   -298.33019    181563.75   -13277.128     1003.532    -14280.66   -527.46007    469.94729    78.831956    25.220022    16.341292 
   95800    236.84759   -492.92525    181563.75    -13307.03    974.27678   -14281.307    -1201.151    468.49507    78.829842    25.219194    16.320406 
   96000    238.36694   -261.77872    181563.75   -13345.421    980.52669   -14325.948   -338.30696    467.10699    78.826228    25.215862    16.342648 
   96200    237.05878   -418.67607    181563.75   -13349.682    975.14551   -14324.828   -901.18849    470.30675    78.825871     25.21269    16.346737 
   96400    235.71549   -466.89566    181563.75   -13292.288    969.61989   -14261.907   -1102.7686    470.93239    78.823645    25.214794    16.360668 
   96600    230.07016   -460.54829    181563.75   -13316.305    946.39773   -14262.703   -1055.3548    470.45192    78.824776      25.2105    16.351802 
   96800     250.8917   -235.43013    181563.75   -13243.047    1032.0475   -14275.094   -312.25513    467.89964    78.823512    25.209915    16.334486 
   97000    247.22462   -184.78392    181563.75   -13249.368    1016.9629   -14266.331   -76.662982    468.37097    78.824852    25.214493    16.334153 
   97200    245.88024   -283.90782    181563.75   -13183.751    1011.4328   -14195.184   -461.61054    467.38359    78.825841    25.214339     16.32264 
   97400    231.70414   -291.15999    181563.75    -13295.75     953.1191   -14248.869   -459.48646    468.67557    78.827759    25.211797    16.328041 
   97600    231.75136   -356.58587    181563.75   -13255.583    953.31337   -14208.897    -713.6894    468.11064    78.828691    25.215077    16.319851 
   97800    235.56735   -398.75311    181563.75    -13275.28    969.01049    -14244.29   -889.06281    468.84406     78.82904     25.21585     16.32446 
   98000    235.53564   -405.15885    181563.75   -13318.722    968.88008   -14287.602   -900.56415    472.20058    78.829855    25.215287    16.329557 
   98200    243.65887   -456.44402    181563.75   -13305.317    1002.2951   -14307.612   -1016.0065    474.45222    78.829466    25.214024    16.328478 
   98400    247.75529   -210.09559    181563.75   -13278.699    1019.1458   -14297.845   -225.68601    474.30592    78.830363    25.214217    16.294929 
   98600    245.72719   -284.94748    181563.75   -13260.918    1010.8032   -14271.722   -422.76847    475.43834    78.826726    25.211849    16.283268 
   98800    248.23939   -310.31115    181563.75   -13170.598    1021.1372   -14191.735   -546.86105    476.37229    78.822663    25.215148    16.285567 
   99000    243.10087   -457.06499    181563.75   -13209.796    999.99976   -14209.795   -1051.5783    478.96712    78.823597    25.220683    16.286679 
   99200    239.67959   -326.88607    181563.75   -13223.195    985.92626   -14209.121   -583.25775    479.65455    78.819922    25.221491    16.300892 
   99400     240.3125   -397.62815    181563.75   -13216.777    988.52977   -14205.307   -837.32168    479.24038    78.821211    25.217781     16.29727 
   99600     241.1545    -285.6202    181563.75   -13205.752    991.99333   -14197.746   -486.80422    477.14496    78.822344    25.218516    16.346086 
   99800    245.62358    -318.8548    181563.75   -13204.852     1010.377   -14215.229   -589.70528    480.37927    78.822281    25.218115     16.38233 
  100000    247.02921   -356.67056    181563.75     -13244.1    1016.1591    -14260.26   -702.21696     482.8928    78.822581    25.215988    16.411665 
  100200    244.94189    -510.1111    181563.75   -13168.399    1007.5728   -14175.972    -1221.722    486.15958    78.818758    25.215534    16.427909 
  100400    242.29452   -335.83453    181563.75   -13219.957    996.68284    -14216.64   -606.06304    488.78226    78.818346    25.214207    16.439101 
  100600    242.36079   -412.28289    181563.75   -13282.809    996.95544   -14279.764   -895.72026    491.41933    78.818918    25.217076    16.450566 
  100800    242.23518   -326.12288    181563.75    -13252.23    996.43872   -14248.669   -593.67428    495.53473    78.814546    25.218927    16.398045 
[...]
 5175800    223.17436   -379.99616    181563.75   -14758.916    918.03174   -15676.948   -702.43176    4837.9587     78.82844    26.021158    16.322533 
 5176000    227.37303   -313.01788    181563.75   -14714.697    935.30304       -15650   -485.35624    4837.2269    78.827585    26.020249    16.319189 
 5176200    228.26101   -310.98213    181563.75    -14729.17    938.95576   -15668.125    -480.6906    4834.6954    78.828568    26.019156    16.325533 
 5176400    231.78269   -317.48838    181563.75   -14776.652    953.44223   -15730.094   -487.78963     4837.162    78.827896    26.019015    16.323759 
 5176600     226.3282   -368.19497    181563.75   -14725.912     931.0051   -15656.917   -673.18545    4838.8463    78.826655    26.018633    16.323782 
 5176800    230.78405   -298.20941    181563.75   -14748.413    949.33433   -15697.748   -452.40691    4834.6017    78.826679     26.01835    16.322889 
 5177000    223.39036     -323.419    181563.75    -14753.84    918.92022   -15672.761   -507.80462    4836.7579    78.826597    26.017501    16.324506 
 5177200    230.45387   -474.17748    181563.75   -14705.698    947.97613   -15653.675   -1074.2534    4838.8572    78.826058    26.017546    16.321032 
 5177400    226.25943    -324.8442    181563.75   -14731.413    930.72222   -15662.135   -514.70672    4836.1499    78.826352    26.016918    16.328065 
 5177600    230.41957   -357.93062    181563.75   -14737.402    947.83503   -15685.237   -657.93748    4837.0598    78.826655    26.015743    16.323223 
 5177800    224.36039   -395.17118    181563.75   -14750.391    922.91048   -15673.302   -747.02539    4837.3101     78.82685    26.014608      16.3224 
 5178000    217.45491   -369.04322    181563.75   -14734.814    894.50467   -15629.319   -684.65343    4838.9681    78.826394    26.013465    16.321968 
 5178200    229.51747   -340.85756    181563.75   -14750.045    944.12423    -15694.17   -601.19183    4835.3134    78.826345    26.013255    16.320907 
 5178400    225.25572   -313.81735    181563.75   -14722.245    926.59342   -15648.838   -495.10475    4836.2049    78.826034    26.012027    16.316109 
 5178600    224.93778   -410.55046    181563.75   -14712.284     925.2856    -15637.57   -829.83093    4838.7313    78.824682    26.011581     16.32108 
 5178800    226.70958   -351.55956    181563.75   -14693.499    932.57392   -15626.072   -636.25875    4836.9188    78.824357    26.011325    16.321555 
 5179000    230.76682   -261.48336    181563.75   -14689.631    949.26344   -15638.894   -284.21029    4833.6866    78.825644    26.010313     16.32363 
 5179200    225.98282   -417.09103    181563.75   -14728.188    929.58437   -15657.772    -845.0141    4838.8102    78.825493    26.008818    16.323123 
 5179400    223.76175   -384.88401    181563.75   -14737.644    920.44795   -15658.092   -734.20087    4837.9167    78.824847    26.007873    16.320553 
 5179600    228.65549    -257.3756    181563.75   -14758.792    940.57844   -15699.371   -296.28655    4833.0352    78.825033    26.008728    16.326087 
 5179800    226.45902   -313.73454    181563.75   -14717.279    931.54324   -15648.822    -473.4478    4836.9947    78.825117    26.008577    16.326636 
 5180000    223.76964   -467.22034    181563.75   -14747.432     920.4804   -15667.913   -1048.3807    4838.3223     78.82613    26.008137    16.325538 
 5180200    224.17428   -335.28093    181563.75   -14730.737    922.14492   -15652.882   -560.56108     4835.978     78.82632    26.009521    16.328835 
 5180400    229.93671   -292.42178    181563.75   -14716.405    945.84875   -15662.254   -414.19281    4834.7396    78.825795    26.009218    16.332138 
 5180600    224.01788   -382.14362    181563.75   -14776.313    921.50155   -15697.814   -730.86619    4839.0347    78.825232    26.009754    16.324632 
 5180800    225.31579   -423.75776    181563.75   -14748.827    926.84052   -15675.667   -879.40446    4838.5662    78.825469    26.010179    16.325082 
 5181000    221.87791   -286.61889    181563.75   -14753.345    912.69873   -15666.044    -368.8004    4835.3556    78.824182    26.009763    16.326559 
 5181200    219.96481   -321.60123    181563.75   -14723.086    904.82916   -15627.915   -521.75014    4835.8072    78.823479    26.009352    16.326901 
 5181400    223.41774   -456.55876    181563.75   -14709.193    919.03288   -15628.226   -985.42387     4839.238    78.823742    26.009605    16.321035 
 5181600    231.32776   -300.43943    181563.75   -14713.729    951.57087     -15665.3   -466.28098    4835.7542    78.822989    26.009847    16.322621 
 5181800    223.66776   -266.25786    181563.75   -14686.512    920.06134   -15606.574   -338.75263    4834.4452    78.823502    26.009435    16.322368 
 5182000    218.46794   -370.25659    181563.75    -14763.69    898.67179   -15662.362   -681.70432    4838.9847    78.823024    26.008983    16.322268 
 5182200    215.04234   -368.50489    181563.75   -14839.049    884.58049   -15723.629   -623.58831    4838.3382    78.823908      26.0082     16.32479 
 5182400    222.59784   -221.97257    181563.75   -14739.112     915.6602   -15654.772    -153.6904    4833.1492    78.824305     26.00754    16.321967 
 5182600    234.94012   -305.12451    181563.75   -14711.666    966.43039   -15678.097   -452.43653    4836.4639    78.824403    26.008063    16.324266 
 5182800    221.71747   -460.82538    181563.75   -14741.918    912.03879   -15653.957   -1024.8507    4839.3995    78.822791    26.007257    16.321423 
 5183000    225.64768   -267.55865    181563.75   -14735.021    928.20576   -15663.226   -314.71021    4834.3774     78.82211    26.007373    16.323381 
 5183200    224.87667   -339.56022    181563.75   -14701.224    925.03421   -15626.258   -586.76195    4837.1035    78.822653    26.006665    16.323225 
 5183400    225.28089   -400.84679    181563.75   -14755.882    926.69696   -15682.579   -786.84428     4838.737    78.821841    26.007134    16.321422 
 5183600     219.9547   -419.03233    181563.75   -14736.482     904.7876    -15641.27   -855.95826    4838.0027    78.821353    26.007098    16.326749 
 5183800    215.28188   -261.67445    181563.75   -14761.427    885.56586   -15646.993   -308.47382     4835.334     78.82104    26.007518    16.325859 
 5184000    225.11459   -354.60271    181563.75    -14748.96    926.01289   -15674.973   -641.87053    4836.8041    78.821124    26.006555    16.321599 
 5184200     224.4145   -456.27733    181563.75   -14741.798    923.13306   -15664.931   -992.26941    4838.5415    78.820967     26.00681    16.322907 
 5184400    226.43957   -233.63399    181563.75   -14750.561    931.46322   -15682.025   -161.52121    4834.6524    78.821056    26.007179    16.320994 
 5184600    218.85282   -329.19124    181563.75    -14718.72    900.25499   -15618.975   -548.65894    4835.8553    78.820854    26.007007    16.323802 
 5184800    228.67602   -443.65908    181563.75   -14681.336    940.66289   -15621.999   -950.33864    4839.5887    78.820357    26.005634    16.325681 
 5185000    231.23687   -314.05832    181563.75   -14678.234    951.19701   -15629.431   -467.19799     4836.896    78.819714    26.005265    16.325843 
 5185200    230.09929   -233.14709    181563.75   -14726.006    946.51753   -15672.523   -158.20832     4833.493    78.819222     26.00604    16.319608 
 5185400    224.37403   -415.97183    181563.75   -14738.736    922.96659   -15661.703    -871.9498    4838.9577     78.81957    26.006357    16.322731 
 5185600    222.19929   -386.63917    181563.75    -14791.75    914.02075    -15705.77   -768.62804    4838.5396    78.819828    26.006196     16.32064 
 5185800     230.8031   -234.07674    181563.75   -14735.168    949.41267    -15684.58   -175.87317    4835.4188    78.819727    26.005654    16.321676 
 5186000    220.93646   -338.02755    181563.75    -14698.86     908.8261   -15607.686    -586.2441    4837.0447    78.819106    26.005151    16.323341 
 5186200    226.55806   -434.17169    181563.75   -14682.196    931.95065   -15614.147    -943.0778    4837.7562    78.818912    26.005446    16.323606 
 5186400    225.73823   -350.76953    181563.75   -14752.866    928.57824   -15681.444   -636.32413    4835.2312    78.817945    26.006077    16.323385 
 5186600    231.87219   -295.56656    181563.75   -14738.868    953.81038   -15692.679   -408.28398    4838.6321    78.816877    26.004966    16.326086 
 5186800    226.98518   -392.79555    181563.75   -14697.895    933.70758   -15631.603   -708.03779    4836.4428    78.816501    26.004944    16.324893 
 5187000    227.54285   -377.25968    181563.75   -14740.726     936.0016   -15676.728   -709.15642    4836.7976    78.815288    26.004747    16.320581 
 5187200    226.78362   -302.76055    181563.75   -14721.518    932.87847   -15654.397    -476.8097    4835.6257    78.815961    26.004565    16.322785 
 5187400    221.99674   -347.36363    181563.75   -14768.711    913.18756   -15681.899   -616.44992    4835.6324    78.815168    26.004957    16.320952 
 5187600    224.59507   -320.12553    181563.75   -14750.584    923.87584    -15674.46   -484.19367    4836.7345    78.815091    26.003829    16.321564 
 5187800    226.97895   -310.83024    181563.75   -14728.696    933.68196   -15662.378   -481.34174    4836.9028    78.814775    26.004327    16.322469 
 5188000    224.93353   -340.86645    181563.75    -14752.62     925.2681   -15677.888   -583.06045     4835.678    78.813592    26.003894    16.321638 
 5188200    228.79497   -317.45098    181563.75   -14723.495    941.15219   -15664.647   -458.99532    4837.9689    78.812933    26.004182    16.327653 
 5188400    223.78521   -395.07134    181563.75   -14736.025    920.54447    -15656.57   -784.46125    4839.4271    78.811093     26.00426    16.322974 
 5188600     226.8513   -357.11615    181563.75   -14761.034    933.15688   -15694.191   -637.85599    4836.3163    78.811638    26.003541    16.324144 
 5188800    233.38197   -337.44506    181563.75   -14719.515     960.0209   -15679.536   -579.77845    4836.6126    78.810808    26.002172    16.322886 
 5189000    225.69588   -345.29097    181563.75   -14733.263    928.40403   -15661.667   -574.78662    4836.9927     78.81122    26.001066    16.321197 
 5189200    225.31329    -355.9833    181563.75    -14712.48    926.83023    -15639.31   -626.44411    4835.4912    78.811417    25.999927    16.322132 
 5189400    225.09139   -334.38498    181563.75   -14738.314    925.91746   -15664.231   -554.06613    4836.1034    78.811719    25.998334    16.324992 
 5189600    224.21002   -374.90952    181563.75   -14748.772    922.29192   -15671.064   -712.19065    4837.3168    78.811914    25.997653    16.320257 
 5189800    220.46725   -419.44753    181563.75   -14753.459    906.89597   -15660.355   -921.22206    4837.2593    78.811128    25.996624    16.320963 
 5190000    234.34361   -383.46017    181563.75   -14734.447    963.97662   -15698.423   -729.42143    4838.1563     78.81113    25.994844    16.323801 
 5190200    224.10368   -338.48594    181563.75    -14764.57     921.8545   -15686.425    -593.1342    4834.9229    78.810821    25.992935    16.328504 
 5190400    227.96596   -387.08022    181563.75   -14720.429    937.74204   -15658.171   -740.29392    4837.9356    78.809813    25.993225    16.324766 
 5190600    232.46786   -322.50935    181563.75   -14702.791     956.2607   -15659.052   -454.45678    4839.0711    78.809381    25.993043    16.329128 
 5190800    227.99383   -298.41004    181563.75   -14727.234    937.85671   -15665.091   -424.63956    4835.0245    78.807871    25.994487    16.327944 
 5191000    218.44871   -320.99899    181563.75    -14773.33    898.59269   -15671.922   -517.35529    4835.8539     78.80688    25.995089    16.321114 
 5191200    227.13854   -406.23969    181563.75   -14753.314    934.33844   -15687.652     -807.416    4838.0853    78.805968     25.99498    16.327977 
 5191400    225.08565   -263.83757    181563.75   -14737.692    925.89386   -15663.586    -284.9341    4835.9675    78.805174    25.995077    16.326986 
 5191600    228.10961   -372.37964    181563.75   -14738.669    938.33296   -15677.002   -729.78337    4836.5714    78.804881      25.9959    16.323991 
 5191800    222.02084    -484.6748    181563.75   -14751.219    913.28668   -15664.505   -1094.9295    4840.4689    78.804931    25.995542    16.326644 
 5192000    229.21956   -357.73743    181563.75   -14716.448    942.89875   -15659.347   -635.84163    4838.1177    78.803777    25.995811    16.324923 
 5192200    232.89027   -250.67001    181563.75   -14656.158    957.99829   -15614.157   -258.62132    4836.6589    78.803573    25.995994     16.32034 
 5192400    234.13249   -341.04475    181563.75   -14650.061    963.10819   -15613.169   -587.16254    4839.1681    78.802744    25.995556    16.322142 
 5192600     222.6356   -375.74256    181563.75   -14730.432    915.81553   -15646.248   -694.10553    4838.9061     78.80253    25.995476    16.321746 
 5192800    231.11901   -383.15184    181563.75   -14749.803    950.71218   -15700.515   -752.88245    4835.6865    78.801452    25.995284    16.323602 
 5193000    226.91552   -346.52327    181563.75   -14724.864    933.42106   -15658.285   -635.25346     4836.951    78.802723     25.99404    16.323882 
 5193200    228.75335   -335.14094    181563.75   -14722.013    940.98099   -15662.994   -511.41852     4839.911    78.801874     25.99415    16.327765 
 5193400    218.55536   -366.74681    181563.75   -14787.888    899.03139    -15686.92   -677.28369    4837.7137    78.800849    25.994705    16.327951 
 5193600    229.31364   -343.61145    181563.75   -14727.531    943.28576   -15670.817   -613.48314    4835.8256    78.800375    25.994868    16.321048 
 5193800    226.10213   -408.58921    181563.75   -14755.549    930.07517   -15685.624   -812.92745    4838.0423    78.801168    25.994482    16.323914 
 5194000    230.08233   -343.76216    181563.75   -14703.832    946.44776   -15650.279   -582.20623    4837.9743    78.800226    25.994125    16.324685 
 5194200    226.35254   -332.49542    181563.75   -14724.399     931.1052   -15655.505   -581.19733    4836.7902    78.799798    25.994765     16.32429 
 5194400    237.17659   -337.74567    181563.75    -14695.31    975.63015    -15670.94   -567.46937    4837.7218    78.798645    25.995683    16.321268 
 5194600    220.83606   -357.17876    181563.75   -14740.489    908.41309   -15648.902   -642.66424    4837.3667    78.798826    25.995271    16.319703 
 5194800    228.72121   -357.73341    181563.75   -14709.383    940.84877   -15650.231   -622.37704    4837.5116    78.798307    25.995009    16.322396 
 5195000    230.59878   -287.36163    181563.75   -14710.918     948.5722    -15659.49   -390.42887    4837.0304    78.797961    25.994504    16.321752 
 5195200    226.66248   -359.22651    181563.75   -14761.438    932.38016   -15693.818   -620.66672    4837.4039    78.798157    25.993659    16.320437 
 5195400    225.41818   -422.38762    181563.75   -14735.157    927.26172   -15662.419   -883.87346    4838.4418    78.797378    25.993539    16.322403 
 5195600    220.28252   -299.31029    181563.75   -14734.809     906.1361   -15640.945   -419.36659    4836.1037    78.797789     25.99323    16.321444 
 5195800    225.77266   -300.52708    181563.75   -14744.311    928.71986   -15673.031   -419.40948    4836.1084    78.798393    25.992898    16.318669 
 5196000    225.46409   -388.91892    181563.75   -14695.948    927.45058   -15623.399   -765.68929    4838.4442    78.798016    25.992017    16.323222 
 5196200    231.94127   -335.45081    181563.75   -14729.334    954.09455   -15683.428   -575.96418    4835.9951    78.797172    25.992276    16.326164 
 5196400    227.44057   -293.64207    181563.75   -14686.041    935.58085   -15621.622    -402.6171    4836.3678    78.797149    25.992824    16.320219 
 5196600    224.69194   -365.27398    181563.75   -14764.925     924.2743   -15689.199   -657.52593    4837.8288    78.796314    25.991115    16.323555 
 5196800    224.68247   -352.90854    181563.75   -14743.902    924.23537   -15668.138   -633.05137    4836.1564    78.796087    25.991894    16.325353 
 5197000    225.21236   -265.51578    181563.75   -14719.014    926.41506   -15645.429   -275.53383     4834.082     78.79553    25.991939    16.324387 
 5197200     228.3665   -328.39058    181563.75   -14729.369    939.38969   -15668.758   -506.33907    4836.8789    78.795106    25.991452     16.32264 
 5197400    237.31487    -430.9023    181563.75   -14667.113    976.19895   -15643.312   -911.93497    4838.2197     78.79436    25.992754    16.322395 
 5197600    233.47292   -400.33199    181563.75   -14710.702    960.39504   -15671.097   -776.87791    4837.4564    78.794384    25.992154    16.323321 
 5197800    224.34416   -293.17604    181563.75   -14710.214    922.84373   -15633.058   -420.44677    4835.0389    78.795242    25.992042    16.321429 
 5198000    233.19587   -389.22565    181563.75   -14682.167    959.25538   -15641.423   -752.34566    4836.6349    78.796065    25.991951    16.317478 
 5198200    225.17704   -335.26488    181563.75   -14722.332    926.26979   -15648.602   -538.00225    4837.1567    78.795363    25.991665    16.318133 
 5198400    217.56978   -302.89844    181563.75   -14746.475    894.97717   -15641.452   -475.01155    4835.7096    78.795985    25.991559    16.322265 
 5198600    226.95288   -309.62741    181563.75   -14726.741    933.57471   -15660.316   -475.82003    4837.2848    78.795823    25.992752    16.326801 
 5198800    219.73744   -378.07099    181563.75   -14770.785    903.89388   -15674.679   -686.99629    4837.6494    78.795832    25.993594    16.324331 
 5199000    225.44455   -324.11618    181563.75   -14745.011    927.37018   -15672.381   -527.08928    4835.3728    78.794795    25.994032    16.326722 
 5199200    223.75808   -287.28433    181563.75   -14740.415    920.43284   -15660.848   -386.95161    4835.0651    78.795549    25.992926    16.320001 
 5199400    218.11446   -423.36408    181563.75     -14771.2    897.21775   -15668.417   -868.93231    4837.2764    78.795134    25.993482    16.321722 
 5199600    218.39317   -472.44162    181563.75   -14772.375    898.36419    -15670.74   -1090.9929    4838.0446    78.794686    25.992671    16.319353 
 5199800    224.74869   -274.12397    181563.75   -14718.239    924.50776   -15642.747    -345.1328    4836.9223    78.796159    25.991709    16.322437 
 5200000    225.40428   -336.23469    181563.75   -14717.033    927.20454   -15644.238   -544.19431    4836.6336     78.79582    25.990786    16.323015 
Loop time of 6143.38 on 64 procs for 5200000 steps with 9253 atoms

Performance: 731.324 ns/day, 0.033 hours/ns, 846.439 timesteps/s
100.0% CPU use with 64 MPI tasks x no OpenMP threads

MPI task timing breakdown:
Section |  min time  |  avg time  |  max time  |%varavg| %total
---------------------------------------------------------------
Pair    | 0.53547    | 1626.9     | 4802.3     |3712.5 | 26.48
Neigh   | 7.3866     | 222.11     | 510.95     |1196.9 |  3.62
Comm    | 180.08     | 1635.7     | 4433.9     |3425.5 | 26.62
Output  | 160.09     | 160.15     | 160.37     |   0.3 |  2.61
Modify  | 134.17     | 2439.4     | 5733.2     |4736.2 | 39.71
Other   |            | 59.16      |            |       |  0.96

Nlocal:    144.578 ave 292 max 0 min
Histogram: 16 8 0 8 0 0 0 2 20 10
Nghost:    960.266 ave 1325 max 657 min
Histogram: 13 3 0 7 17 0 11 5 0 8
Neighs:    0 ave 0 max 0 min
Histogram: 64 0 0 0 0 0 0 0 0 0
FullNghs:  15523.7 ave 35423 max 0 min
Histogram: 24 8 0 0 0 0 0 11 14 7

Total # of neighbors = 993518
Ave neighs/atom = 107.373
Neighbor list builds = 513847
Dangerous builds = 0
write_data 		${DIR}/data.${NAME}_run
write_data 		run_18/data.${NAME}_run
write_data 		run_18/data.ibeam_cooling_18_run
Total wall time: 1:42:35
