

### IMPORT ATOMS ###
read_data ../Box_Setup/data.Ibeam_240K
  orthogonal box = (0 0 0) to (157.504 42.9242 26.8557)
  8 by 4 by 2 MPI processor grid
  reading atoms ...
  9253 atoms
  reading velocities ...
  9253 velocities
group water type 2
1381 atoms in group water
group graphite type 1
7872 atoms in group graphite


# Define potential
#
pair_style          sw
pair_coeff * * MLC_e.sw C mW

# Add velocity/set timestep
#

fix		1 graphite setforce 0.0 0.0 0.0
velocity 	graphite set 0.0 0.0 0.0
velocity            water create ${START_TEMP} ${SEED} rot yes dist gaussian
velocity            water create 240 ${SEED} rot yes dist gaussian
velocity            water create 240 2039 rot yes dist gaussian
timestep            5.0

# Define output
#
compute 1 water msd
compute 2 water temp


thermo	            100
thermo_style custom step c_2 press vol etotal ke pe c_1[4] density

# Neighbor lists
#
neigh_modify        delay 0 every 1 check yes


# Set fixes
#
fix                 2 water momentum 10 linear 1 1 1 rescale
fix                 3 all nve
fix                 4 water temp/csvr ${START_TEMP} ${START_TEMP} 500.0 928347
fix                 4 water temp/csvr 240 ${START_TEMP} 500.0 928347
fix                 4 water temp/csvr 240 240 500.0 928347

# Run 0.05 ns equilibration
#
dump                1 all custom 100 ${DIR}/eq.${NAME}.dump id type x y z vx vy vz
dump                1 all custom 100 run_18/eq.${NAME}.dump id type x y z vx vy vz
dump                1 all custom 100 run_18/eq.ibeam_cooling_18.dump id type x y z vx vy vz
run                 10000
Neighbor list info ...
  update every 1 steps, delay 0 steps, check yes
  max neighbors/atom: 2000, page size: 100000
  master list distance cutoff = 6.67472
  ghost atom cutoff = 6.67472
  binsize = 3.33736, bins = 48 13 9
  1 neighbor lists, perpetual/occasional/extra = 1 0 0
  (1) pair sw, perpetual
      attributes: full, newton on
      pair build: full/bin/atomonly
      stencil: full/bin/3d
      bin: standard
Per MPI rank memory allocation (min/avg/max) = 3.396 | 4.325 | 4.765 Mbytes
Step c_2 Press Volume TotEng KinEng PotEng c_1[4] Density 
       0          240   -344.39513    181563.75    -13284.54    987.24429   -14271.784            0    1.0922001 
     100    246.57878   -201.83474    181563.75   -13253.134    1014.3062   -14267.441    0.8489037    1.0922001 
     200     238.5314   -384.22734    181563.75   -13286.619    981.20317   -14267.822    1.2177745    1.0922001 
     300    245.16339   -195.15208    181563.75   -13270.018     1008.484   -14278.502    1.6230021    1.0922001 
     400    236.81565   -217.15094    181563.75   -13281.891    974.14539   -14256.037    2.0802698    1.0922001 
     500    237.08865   -171.34769    181563.75   -13282.526    975.26841   -14257.794    2.3488596    1.0922001 
     600     233.0515   -307.72741    181563.75   -13351.712    958.66151   -14310.374    2.7098034    1.0922001 
     700    232.36329   -346.32099    181563.75   -13342.762    955.83053   -14298.593    3.0039261    1.0922001 
     800    232.19443   -403.95806    181563.75   -13376.706    955.13594   -14331.842    3.3540256    1.0922001 
     900    231.99782   -244.63932    181563.75    -13340.33    954.32718   -14294.657    3.5943521    1.0922001 
    1000    247.79967   -315.42438    181563.75   -13302.782    1019.3284    -14322.11    4.0913818    1.0922001 
    1100    232.63413   -415.30247    181563.75   -13319.701    956.94465   -14276.645    4.7497766    1.0922001 
    1200    229.05318   -262.58386    181563.75   -13356.849    942.21436   -14299.064    5.4020667    1.0922001 
    1300    240.60774   -267.72739    181563.75   -13323.689    989.74422   -14313.433      5.85439    1.0922001 
    1400    255.93707   -370.25419    181563.75   -13277.045    1052.8017   -14329.846    6.0207004    1.0922001 
    1500    248.26695   -320.35389    181563.75    -13297.97    1021.2505   -14319.221    6.1560944    1.0922001 
    1600    237.58573   -301.16106    181563.75   -13287.911    977.31316   -14265.224      6.57172    1.0922001 
    1700    238.79268   -399.43726    181563.75   -13313.494    982.27796   -14295.772    6.9212142    1.0922001 
    1800    236.39932   -373.89719    181563.75   -13328.857    972.43284    -14301.29    7.2367725    1.0922001 
    1900    251.11519   -183.74343    181563.75    -13275.21    1032.9668   -14308.176    7.6491014    1.0922001 
    2000    251.99941   -246.83772    181563.75   -13255.469    1036.6041   -14292.073    7.8493003    1.0922001 
    2100    245.33536   -493.42691    181563.75   -13262.331    1009.1914   -14271.523    8.5598092    1.0922001 
    2200     247.0789   -444.14972    181563.75   -13262.671    1016.3635   -14279.035    9.0499812    1.0922001 
    2300    242.09139   -347.60778    181563.75   -13314.733    995.84726    -14310.58    9.5323602    1.0922001 
    2400    240.09894   -257.53996    181563.75   -13312.822    987.65126   -14300.474    10.026743    1.0922001 
    2500    238.15158   -456.47514    181563.75   -13302.772    979.64079   -14282.413    10.478554    1.0922001 
    2600    238.01632   -609.55198    181563.75   -13323.935     979.0844    -14303.02    10.660263    1.0922001 
    2700    240.33052   -198.53424    181563.75   -13300.082    988.60388   -14288.686    10.878982    1.0922001 
    2800    243.07216   -351.41594    181563.75   -13304.678    999.88168   -14304.559    11.121003    1.0922001 
    2900    240.07649   -380.44771    181563.75   -13356.556    987.55892   -14344.115    11.103634    1.0922001 
    3000    240.22896   -279.15906    181563.75    -13374.75    988.18613   -14362.936    11.215244    1.0922001 
    3100    238.02885   -300.28803    181563.75   -13381.428    979.13591   -14360.564    11.351301    1.0922001 
    3200    230.83104   -296.75889    181563.75   -13394.046     949.5276   -14343.573    11.998784    1.0922001 
    3300    239.74441    -425.0809    181563.75   -13336.524    986.19292   -14322.717    12.318538    1.0922001 
    3400    246.85187   -474.25033    181563.75   -13347.472    1015.4296   -14362.901    12.426529    1.0922001 
    3500    232.08213   -449.19227    181563.75   -13354.515    954.67399   -14309.189    12.856828    1.0922001 
    3600     243.6939   -414.50911    181563.75   -13325.267    1002.4392   -14327.706    13.171603    1.0922001 
    3700    238.57805   -211.36787    181563.75   -13360.188    981.39507   -14341.583    13.622776    1.0922001 
    3800    237.84403   -337.48371    181563.75   -13341.887    978.37565   -14320.263    14.257743    1.0922001 
    3900    234.53225   -408.48563    181563.75   -13353.661    964.75262   -14318.414    14.640625    1.0922001 
    4000    246.33871   -420.25126    181563.75   -13366.281    1013.3187   -14379.599    14.945238    1.0922001 
    4100    234.29772   -518.34512    181563.75   -13332.834    963.78787   -14296.622    15.294836    1.0922001 
    4200    235.05698   -418.28408    181563.75   -13295.142    966.91109   -14262.053    15.618354    1.0922001 
    4300       249.36   -415.97029    181563.75   -13222.518    1025.7468   -14248.264    15.988769    1.0922001 
    4400    251.14154   -71.549925    181563.75   -13227.256    1033.0752   -14260.331    15.979214    1.0922001 
    4500    238.98067   -400.26011    181563.75    -13279.24    983.05125   -14262.292    16.255571    1.0922001 
    4600    234.88542   -275.32708    181563.75    -13289.11    966.20538   -14255.316    16.843805    1.0922001 
    4700    240.37406   -401.05176    181563.75   -13281.174    988.78298   -14269.957    17.023522    1.0922001 
    4800    236.49684   -389.49659    181563.75   -13265.876    972.83397    -14238.71    17.620641    1.0922001 
    4900    238.44183   -269.09026    181563.75   -13292.769    980.83473   -14273.604    17.837744    1.0922001 
    5000    233.79794   -375.83818    181563.75   -13312.959    961.73202   -14274.691    17.930462    1.0922001 
    5100    239.87122   -448.04447    181563.75   -13314.218    986.71457   -14300.933    17.890349    1.0922001 
    5200     239.9736   -322.84405    181563.75   -13301.643     987.1357   -14288.778    18.146452    1.0922001 
    5300    234.28468   -293.82092    181563.75   -13336.305    963.73422    -14300.04    18.304721    1.0922001 
    5400    232.50421   -399.61441    181563.75   -13300.361    956.41022   -14256.771    18.946909    1.0922001 
    5500    231.64601   -433.75477    181563.75   -13323.039       952.88   -14275.919    19.031515    1.0922001 
    5600    235.77886   -363.69637    181563.75   -13329.309    969.88057   -14299.189    19.439998    1.0922001 
    5700    245.34745   -308.10942    181563.75   -13300.494    1009.2411   -14309.735    19.478024    1.0922001 
    5800    246.81303   -202.99345    181563.75   -13244.176    1015.2698   -14259.446    20.259964    1.0922001 
    5900    244.00081   -362.11047    181563.75   -13294.065    1003.7017   -14297.766    20.331046    1.0922001 
    6000    231.93732   -308.95509    181563.75   -13362.873    954.07832   -14316.951    20.695148    1.0922001 
    6100    243.96465   -459.13971    181563.75    -13346.52     1003.553   -14350.073    20.951501    1.0922001 
    6200    238.25827   -286.24871    181563.75   -13318.536    980.07964   -14298.616    21.365179    1.0922001 
    6300    242.79623   -197.98503    181563.75    -13292.31    998.74661   -14291.056    21.406934    1.0922001 
    6400    243.93591   -206.81925    181563.75   -13288.823    1003.4347   -14292.258      21.8418    1.0922001 
    6500    241.20785   -539.46822    181563.75   -13303.623    992.21278   -14295.836    22.621247    1.0922001 
    6600    241.28021   -535.75824    181563.75   -13340.998    992.51047   -14333.508    23.223755    1.0922001 
    6700    235.88246   -425.02405    181563.75   -13366.565    970.30671   -14336.872    23.443109    1.0922001 
    6800    234.52761   -225.00336    181563.75   -13346.678    964.73353   -14311.412    23.767677    1.0922001 
    6900    233.59079   -225.53939    181563.75    -13383.85    960.87988    -14344.73    23.937201    1.0922001 
    7000    227.33182   -437.92092    181563.75   -13380.052    935.13351   -14315.186    24.327557    1.0922001 
    7100    240.40422   -480.14474    181563.75   -13298.306    988.90705   -14287.213    24.685346    1.0922001 
    7200    239.48261   -305.40221    181563.75   -13309.117    985.11599   -14294.233    24.758956    1.0922001 
    7300    233.44303   -258.75916    181563.75   -13363.261    960.27209   -14323.533    24.583729    1.0922001 
    7400    228.77985   -210.27284    181563.75   -13360.125    941.08999   -14301.215    24.779579    1.0922001 
    7500    231.79963   -240.65729    181563.75   -13370.663    953.51193   -14324.175    24.567804    1.0922001 
    7600    234.73716   -420.52429    181563.75   -13377.701    965.59548   -14343.296    24.884819    1.0922001 
    7700    240.73816   -370.55717    181563.75    -13364.81    990.28074    -14355.09    25.198225    1.0922001 
    7800    248.32902   -425.04338    181563.75   -13331.876    1021.5058   -14353.382    25.157316    1.0922001 
    7900    243.50849   -360.56987    181563.75   -13334.716    1001.6765   -14336.393    25.300197    1.0922001 
    8000    233.12691   -552.60164    181563.75   -13330.033    958.97169   -14289.005    25.281565    1.0922001 
    8100    235.45153   -296.28808    181563.75   -13347.428    968.53408   -14315.962    25.107222    1.0922001 
    8200    225.82481    -350.8281    181563.75   -13366.965    928.93441     -14295.9     25.42358    1.0922001 
    8300    231.25671    -400.9744    181563.75   -13377.786    951.27863   -14329.065    25.784611    1.0922001 
    8400    238.77789   -279.18434    181563.75   -13384.973    982.21711    -14367.19    26.383155    1.0922001 
    8500    248.94313   -325.25687    181563.75   -13380.356     1024.032   -14404.388    26.894602    1.0922001 
    8600    244.76274    -404.2048    181563.75   -13349.592    1006.8359   -14356.428    27.119534    1.0922001 
    8700    232.76991   -323.26436    181563.75   -13408.157    957.50319    -14365.66    27.713913    1.0922001 
    8800    241.26862    -381.9524    181563.75   -13345.963    992.46277   -14338.426     27.92837    1.0922001 
    8900     231.6484   -458.72336    181563.75   -13370.155    952.88985   -14323.045    28.096744    1.0922001 
    9000    240.90022   -302.24373    181563.75   -13345.988    990.94737   -14336.936    28.062563    1.0922001 
    9100    232.91849   -422.96068    181563.75   -13332.337    958.11438   -14290.452    28.434425    1.0922001 
    9200    238.25811    -359.1529    181563.75   -13355.521    980.07899     -14335.6    28.872202    1.0922001 
    9300     232.0105   -339.83012    181563.75   -13366.061    954.37934    -14320.44    29.009823    1.0922001 
    9400    222.39875   -143.35375    181563.75   -13370.889    914.84125    -14285.73    29.241552    1.0922001 
    9500    237.58103   -416.62956    181563.75   -13344.215    977.29383   -14321.509    29.593638    1.0922001 
    9600    226.23578   -428.18058    181563.75   -13396.717    930.62493   -14327.342    29.703904    1.0922001 
    9700    239.01681    -369.4958    181563.75   -13319.016    983.19993   -14302.216    29.636807    1.0922001 
    9800    228.69004    -569.8797    181563.75   -13345.279    940.72058       -14286    29.842188    1.0922001 
    9900    241.05244   -364.22958    181563.75   -13294.559    991.57354   -14286.132    29.820743    1.0922001 
   10000     248.2129   -402.12416    181563.75   -13255.329    1021.0282   -14276.358    30.231796    1.0922001 
Loop time of 11.7756 on 64 procs for 10000 steps with 9253 atoms

Performance: 366.861 ns/day, 0.065 hours/ns, 849.216 timesteps/s
100.0% CPU use with 64 MPI tasks x no OpenMP threads

MPI task timing breakdown:
Section |  min time  |  avg time  |  max time  |%varavg| %total
---------------------------------------------------------------
Pair    | 0.0010577  | 3.3924     | 9.7168     | 173.0 | 28.81
Neigh   | 0.0080291  | 0.24261    | 0.60168    |  39.4 |  2.06
Comm    | 0.32436    | 3.0203     | 8.7982     | 151.2 | 25.65
Output  | 0.15728    | 0.15735    | 0.15805    |   0.0 |  1.34
Modify  | 0.26904    | 4.8521     | 11.169     | 207.3 | 41.20
Other   |            | 0.1108     |            |       |  0.94

Nlocal:    144.578 ave 294 max 0 min
Histogram: 19 5 0 8 0 0 0 3 20 9
Nghost:    962.734 ave 1346 max 657 min
Histogram: 13 3 1 17 6 0 14 2 0 8
Neighs:    0 ave 0 max 0 min
Histogram: 64 0 0 0 0 0 0 0 0 0
FullNghs:  15610.8 ave 35729 max 0 min
Histogram: 24 8 0 0 0 0 0 16 10 6

Total # of neighbors = 999088
Ave neighs/atom = 107.974
Neighbor list builds = 555
Dangerous builds = 0
write_data 	    ${DIR}/data.${NAME}_eq
write_data 	    run_18/data.${NAME}_eq
write_data 	    run_18/data.ibeam_cooling_18_eq

undump              1
unfix               4



################################################
#######         Run Simulation         #########
################################################

reset_timestep      0
timestep	    10.0
log                 ${DIR}/log.run_${NAME}
log                 run_18/log.run_${NAME}
log                 run_18/log.run_ibeam_cooling_18
