
### Dimensions ###


### IMPORT ATOMS ###
read_data ../Box_Setup/data.Ibeam_240K
  orthogonal box = (0 0 0) to (68.908 85.8483 27.9754)
  4 by 8 by 2 MPI processor grid
  reading atoms ...
  8493 atoms
  reading velocities ...
  8493 velocities
group water type 2
1689 atoms in group water
group graphite type 1
6804 atoms in group graphite


# Define potential
#
pair_style          sw
pair_coeff * * MLC_e.sw C mW

# Add velocity/set timestep
#

fix		1 graphite setforce 0.0 0.0 0.0
velocity 	graphite set 0.0 0.0 0.0
velocity            water create ${START_TEMP} ${SEED} rot yes dist gaussian
velocity            water create 240 ${SEED} rot yes dist gaussian
velocity            water create 240 17110 rot yes dist gaussian
timestep            5.0

# Define output
#
compute 1 water msd
compute 2 water temp


thermo	            100
thermo_style custom step c_2 press vol etotal ke pe c_1[4] density

# Neighbor lists
#
neigh_modify        delay 0 every 1 check yes


# Set fixes
#
fix                 2 water momentum 10 linear 1 1 1 rescale
fix                 3 all nve
fix                 4 water temp/csvr ${START_TEMP} ${START_TEMP} 500.0 928347
fix                 4 water temp/csvr 240 ${START_TEMP} 500.0 928347
fix                 4 water temp/csvr 240 240 500.0 928347

# Run 0.05 ns equilibration
#
dump                1 all custom 100 ${DIR}/eq.${NAME}.dump id type x y z vx vy vz
dump                1 all custom 100 run_11/eq.${NAME}.dump id type x y z vx vy vz
dump                1 all custom 100 run_11/eq.ibeam_cooling_11.dump id type x y z vx vy vz
run                 10000
Neighbor list info ...
  update every 1 steps, delay 0 steps, check yes
  max neighbors/atom: 2000, page size: 100000
  master list distance cutoff = 6.67472
  ghost atom cutoff = 6.67472
  binsize = 3.33736, bins = 21 26 9
  1 neighbor lists, perpetual/occasional/extra = 1 0 0
  (1) pair sw, perpetual
      attributes: full, newton on
      pair build: full/bin/atomonly
      stencil: full/bin/3d
      bin: standard
Per MPI rank memory allocation (min/avg/max) = 3.384 | 4.425 | 4.753 Mbytes
Step c_2 Press Volume TotEng KinEng PotEng c_1[4] Density 
       0          240   -298.97748    165492.15   -16025.669    1207.5858   -17233.255            0    1.1252403 
     100    247.79071   -515.19133    165492.15   -16003.323    1246.7856   -17250.108   0.91008048    1.1252403 
     200    241.46588   -362.82502    165492.15    -16054.37    1214.9615   -17269.331    1.3914752    1.1252403 
     300    247.07032   -503.67672    165492.15   -16049.997    1243.1609   -17293.158    1.9007646    1.1252403 
     400    239.25944    -493.0467    165492.15    -16066.26    1203.8596    -17270.12    2.5416534    1.1252403 
     500    241.87042   -231.27883    165492.15   -16075.223     1216.997    -17292.22    2.9838788    1.1252403 
     600    229.18567   -418.60813    165492.15   -16162.625    1153.1723   -17315.798    3.4430443    1.1252403 
     700    244.90068   -682.37116    165492.15       -16141    1232.2441   -17373.244    3.7176714    1.1252403 
     800    243.33322   -486.58509    165492.15   -16196.759    1224.3572   -17421.116    3.9449207    1.1252403 
     900    235.54278   -553.41329    165492.15   -16165.697    1185.1588   -17350.856    4.2355947    1.1252403 
    1000    234.94216   -509.92347    165492.15   -16115.438    1182.1367   -17297.574    4.6458178    1.1252403 
    1100    238.19214   -561.65669    165492.15   -16122.245    1198.4893   -17320.734    5.0307968    1.1252403 
    1200     233.3527   -389.46824    165492.15   -16161.079    1174.1392   -17335.218    5.3609373    1.1252403 
    1300    238.02583   -658.55957    165492.15   -16109.961    1197.6525   -17307.613    5.5436419    1.1252403 
    1400     252.4116   -247.61629    165492.15   -16031.776     1270.036   -17301.812    5.8096207    1.1252403 
    1500    241.45428   -396.83993    165492.15   -16028.196    1214.9032   -17243.099     6.274965    1.1252403 
    1600    240.36462   -594.77759    165492.15   -16010.164    1209.4204   -17219.585    6.6460623    1.1252403 
    1700    240.82637   -450.30764    165492.15   -16025.391    1211.7437   -17237.135    7.1844163    1.1252403 
    1800     242.2681    -351.0087    165492.15   -16035.595     1218.998   -17254.593    7.6338074    1.1252403 
    1900    249.29589    -542.9451    165492.15   -15955.039     1254.359   -17209.398    7.7730793    1.1252403 
    2000    252.21244   -451.78009    165492.15   -15948.005     1269.034   -17217.039      8.14977    1.1252403 
    2100    249.77073   -369.85143    165492.15   -15976.237    1256.7482   -17232.985    8.4320181    1.1252403 
    2200    253.45002   -314.41856    165492.15   -15986.148     1275.261   -17261.409    8.8808248    1.1252403 
    2300    247.01887   -494.67984    165492.15   -16037.529    1242.9019   -17280.431    9.3186691    1.1252403 
    2400    239.71246   -391.21539    165492.15   -16041.795     1206.139   -17247.934    9.4993762    1.1252403 
    2500    242.31957   -410.70575    165492.15   -16040.095    1219.2569   -17259.352     9.865105    1.1252403 
    2600    237.08044   -529.62154    165492.15   -16080.007    1192.8957   -17272.903    10.504682    1.1252403 
    2700     246.4742    -431.1221    165492.15   -16064.602    1240.1614   -17304.763    10.858847    1.1252403 
    2800    241.99504   -288.55991    165492.15   -16070.471     1217.624   -17288.095    11.505648    1.1252403 
    2900    232.97661   -380.63647    165492.15   -16117.986    1172.2468   -17290.233    11.747057    1.1252403 
    3000    225.98024   -416.98705    165492.15   -16131.171    1137.0439   -17268.215    12.305819    1.1252403 
    3100    234.62058   -386.15831    165492.15   -16120.742    1180.5186    -17301.26    12.657047    1.1252403 
    3200    241.59254   -620.48124    165492.15   -16116.801    1215.5988     -17332.4    12.822842    1.1252403 
    3300     237.4813   -372.62863    165492.15   -16091.769    1194.9127   -17286.682    12.984716    1.1252403 
    3400    240.63087    -520.6383    165492.15   -16091.846    1210.7601   -17302.606    13.696443    1.1252403 
    3500    242.07939   -292.49225    165492.15   -16092.555    1218.0485   -17310.604    14.213786    1.1252403 
    3600     244.8111   -286.73544    165492.15   -16093.136    1231.7933   -17324.929    14.779657    1.1252403 
    3700    236.41076   -426.99107    165492.15    -16123.35    1189.5261   -17312.876    14.962623    1.1252403 
    3800    237.85453   -511.66224    165492.15    -16101.26    1196.7906    -17298.05    15.292078    1.1252403 
    3900    238.83847   -370.79892    165492.15   -16118.205    1201.7414   -17319.946    15.723145    1.1252403 
    4000     236.5622    -381.2746    165492.15   -16141.231    1190.2881   -17331.519     15.75935    1.1252403 
    4100    240.70841   -548.66463    165492.15   -16111.222    1211.1502   -17322.372     16.19256    1.1252403 
    4200     246.8527   -455.70118    165492.15   -16077.585    1242.0659   -17319.651    16.773074    1.1252403 
    4300    244.13565   -649.62194    165492.15   -16001.085    1228.3947    -17229.48    17.252452    1.1252403 
    4400    247.35914   -278.77421    165492.15   -16009.454     1244.614   -17254.068    17.292605    1.1252403 
    4500    245.19455   -505.64717    165492.15   -16058.579    1233.7227   -17292.302    17.566925    1.1252403 
    4600    235.29385   -426.70343    165492.15   -16077.141    1183.9063   -17261.047    17.750174    1.1252403 
    4700    230.55264   -524.39723    165492.15   -16088.296    1160.0504   -17248.346    18.186984    1.1252403 
    4800    244.23723   -636.96586    165492.15   -16049.181    1228.9058   -17278.086    18.501513    1.1252403 
    4900    242.61833   -204.93994    165492.15   -16074.334    1220.7602   -17295.094    18.582313    1.1252403 
    5000    241.70014   -499.43807    165492.15   -16123.303    1216.1402   -17339.443    19.210107    1.1252403 
    5100    229.82176   -589.37491    165492.15   -16142.985    1156.3728   -17299.358    19.257006    1.1252403 
    5200    238.79149   -288.47582    165492.15   -16109.762     1201.505   -17311.267    19.706412    1.1252403 
    5300    238.64565   -429.39219    165492.15    -16170.69    1200.7712   -17371.461    19.627479    1.1252403 
    5400    239.32214   -558.95827    165492.15   -16140.902     1204.175   -17345.077    19.892113    1.1252403 
    5500    234.02846   -443.15064    165492.15   -16158.207    1177.5393   -17335.746    20.224201    1.1252403 
    5600    232.07041   -389.93695    165492.15   -16180.357    1167.6872   -17348.045    20.629711    1.1252403 
    5700     241.2715   -550.86958    165492.15   -16156.133    1213.9834   -17370.116    21.184082    1.1252403 
    5800    240.14155   -389.79506    165492.15   -16073.248     1208.298   -17281.546    21.516114    1.1252403 
    5900    233.20461   -470.53588    165492.15   -16084.808     1173.394   -17258.202    22.154375    1.1252403 
    6000    229.06662   -518.24506    165492.15   -16166.057    1152.5733    -17318.63    22.424281    1.1252403 
    6100    237.50698   -428.15461    165492.15   -16157.504    1195.0419   -17352.546    22.644073    1.1252403 
    6200    239.98722   -662.82262    165492.15   -16119.729    1207.5214    -17327.25    22.962899    1.1252403 
    6300    239.96134   -552.76155    165492.15   -16091.417    1207.3912   -17298.808    23.462478    1.1252403 
    6400    237.98859   -583.49875    165492.15   -16080.059    1197.4651   -17277.524     24.28915    1.1252403 
    6500    232.78168   -548.01523    165492.15   -16104.173     1171.266   -17275.439    24.655974    1.1252403 
    6600     234.6112   -485.40839    165492.15    -16127.79    1180.4714   -17308.262    25.025574    1.1252403 
    6700    242.46506   -424.01658    165492.15   -16174.627     1219.989   -17394.616    25.477811    1.1252403 
    6800    233.51972   -523.44291    165492.15   -16138.149    1174.9795   -17313.129    26.088901    1.1252403 
    6900     234.3058   -583.19508    165492.15   -16176.968    1178.9348   -17355.903    26.675606    1.1252403 
    7000    235.06417   -404.68885    165492.15   -16174.048    1182.7506   -17356.799    27.040812    1.1252403 
    7100     240.7107   -404.87523    165492.15   -16110.986    1211.1617   -17322.148    27.583681    1.1252403 
    7200    230.31353   -607.14609    165492.15   -16111.726    1158.8473   -17270.573    27.905169    1.1252403 
    7300    231.38362   -498.13976    165492.15   -16172.381    1164.2315   -17336.613    27.924241    1.1252403 
    7400    237.08602    -499.9792    165492.15   -16171.683    1192.9238   -17364.606    28.043262    1.1252403 
    7500    233.45656   -633.85666    165492.15   -16191.414    1174.6618   -17366.075    28.206484    1.1252403 
    7600    232.09967   -561.48203    165492.15   -16202.178    1167.8344   -17370.012     28.57587    1.1252403 
    7700    232.44858   -484.06663    165492.15    -16190.65      1169.59    -17360.24    28.759766    1.1252403 
    7800    242.45351   -561.29611    165492.15   -16138.131    1219.9309   -17358.062    28.801877    1.1252403 
    7900     242.2939   -660.41573    165492.15   -16119.307    1219.1278   -17338.434    29.069268    1.1252403 
    8000    242.78838   -301.84379    165492.15   -16110.445    1221.6158   -17332.061    29.384732    1.1252403 
    8100    239.31366   -359.59901    165492.15   -16137.881    1204.1324   -17342.014    29.731284    1.1252403 
    8200    234.53061   -693.73847    165492.15   -16164.722    1180.0659   -17344.787    30.106546    1.1252403 
    8300    238.31294   -346.38617    165492.15   -16169.218    1199.0972   -17368.316    29.857851    1.1252403 
    8400    244.94246   -203.91002    165492.15   -16162.024    1232.4543   -17394.479    29.856992    1.1252403 
    8500     238.4389     -490.877    165492.15   -16193.096    1199.7309   -17392.827    30.055628    1.1252403 
    8600    238.87854    -260.9388    165492.15   -16137.792     1201.943   -17339.735     29.98043    1.1252403 
    8700    236.92158   -395.63185    165492.15   -16188.812    1192.0963   -17380.909    30.109311    1.1252403 
    8800    235.68002   -356.64417    165492.15   -16136.851    1185.8493     -17322.7    30.635956    1.1252403 
    8900    235.84598   -504.01934    165492.15   -16150.317    1186.6844   -17337.001    31.072146    1.1252403 
    9000    242.86511   -399.82945    165492.15   -16114.157    1222.0019   -17336.159    31.415926    1.1252403 
    9100    246.59375   -672.84116    165492.15    -16098.34    1240.7629   -17339.103    31.591808    1.1252403 
    9200     244.2591   -596.38227    165492.15   -16140.599    1229.0159   -17369.615    32.326916    1.1252403 
    9300    237.57374   -599.29678    165492.15   -16163.297    1195.3778   -17358.674    32.793577    1.1252403 
    9400    230.58878   -413.21134    165492.15   -16187.179    1160.2322   -17347.411    33.323238    1.1252403 
    9500    241.82937   -395.08501    165492.15   -16143.861    1216.7904   -17360.651    33.521523    1.1252403 
    9600    231.77523   -609.53707    165492.15   -16199.753    1166.2019   -17365.955    33.552963    1.1252403 
    9700    229.35674   -532.32387    165492.15   -16153.502     1154.033   -17307.535     33.22247    1.1252403 
    9800    239.98257   -421.45104    165492.15   -16152.576     1207.498   -17360.074    33.623515    1.1252403 
    9900     238.7701   -653.23717    165492.15   -16116.092    1201.3974    -17317.49    33.974694    1.1252403 
   10000    250.63931   -444.67267    165492.15   -16061.841    1261.1186    -17322.96    34.069049    1.1252403 
Loop time of 10.3549 on 64 procs for 10000 steps with 8493 atoms

Performance: 417.193 ns/day, 0.058 hours/ns, 965.724 timesteps/s
99.9% CPU use with 64 MPI tasks x no OpenMP threads

MPI task timing breakdown:
Section |  min time  |  avg time  |  max time  |%varavg| %total
---------------------------------------------------------------
Pair    | 0.0018581  | 3.5842     | 8.1507     | 152.9 | 34.61
Neigh   | 0.0080503  | 0.23895    | 0.5021     |  36.9 |  2.31
Comm    | 1.0436     | 4.4043     | 8.3834     | 110.4 | 42.53
Output  | 0.15013    | 0.1502     | 0.15093    |   0.0 |  1.45
Modify  | 0.39265    | 1.859      | 7.6591     | 157.1 | 17.95
Other   |            | 0.1183     |            |       |  1.14

Nlocal:    132.703 ave 258 max 0 min
Histogram: 16 0 9 7 0 0 0 2 19 11
Nghost:    926.641 ave 1147 max 658 min
Histogram: 6 9 1 0 4 18 10 0 4 12
Neighs:    0 ave 0 max 0 min
Histogram: 64 0 0 0 0 0 0 0 0 0
FullNghs:  13925.1 ave 30131 max 0 min
Histogram: 17 15 0 0 0 0 0 8 14 10

Total # of neighbors = 891206
Ave neighs/atom = 104.934
Neighbor list builds = 564
Dangerous builds = 0
write_data 	    ${DIR}/data.${NAME}_eq
write_data 	    run_11/data.${NAME}_eq
write_data 	    run_11/data.ibeam_cooling_11_eq

undump              1
unfix               4



################################################
#######         Run Simulation         #########
################################################

reset_timestep      0
timestep	    10.0
log                 ${DIR}/log.run_${NAME}
log                 run_11/log.run_${NAME}
log                 run_11/log.run_ibeam_cooling_11
