

### IMPORT ATOMS ###
read_data ../Box_Setup/data.Ibeam_240K
  orthogonal box = (0 0 0) to (157.504 42.9242 26.8557)
  10 by 5 by 2 MPI processor grid
  reading atoms ...
  9253 atoms
  reading velocities ...
  9253 velocities
group water type 2
1381 atoms in group water
group graphite type 1
7872 atoms in group graphite


# Define potential
#
pair_style          sw
pair_coeff * * MLC_e.sw C mW

# Add velocity/set timestep
#

fix		1 graphite setforce 0.0 0.0 0.0
velocity 	graphite set 0.0 0.0 0.0
velocity            water create ${START_TEMP} ${SEED} rot yes dist gaussian
velocity            water create 240 ${SEED} rot yes dist gaussian
velocity            water create 240 13344 rot yes dist gaussian
timestep            5.0

# Define output
#
compute 1 water msd
compute 2 water temp


thermo	            100
thermo_style custom step c_2 press vol etotal ke pe c_1[4] density

# Neighbor lists
#
neigh_modify        delay 0 every 1 check yes


# Set fixes
#
fix                 2 water momentum 10 linear 1 1 1 rescale
fix                 3 all nve
fix                 4 water temp/csvr ${START_TEMP} ${START_TEMP} 500.0 928347
fix                 4 water temp/csvr 240 ${START_TEMP} 500.0 928347
fix                 4 water temp/csvr 240 240 500.0 928347

# Run 0.05 ns equilibration
#
dump                1 all custom 100 ${DIR}/eq.${NAME}.dump id type x y z vx vy vz
dump                1 all custom 100 run_21/eq.${NAME}.dump id type x y z vx vy vz
dump                1 all custom 100 run_21/eq.ibeam_cooling_21.dump id type x y z vx vy vz
run                 10000
Neighbor list info ...
  update every 1 steps, delay 0 steps, check yes
  max neighbors/atom: 2000, page size: 100000
  master list distance cutoff = 6.67472
  ghost atom cutoff = 6.67472
  binsize = 3.33736, bins = 48 13 9
  1 neighbor lists, perpetual/occasional/extra = 1 0 0
  (1) pair sw, perpetual
      attributes: full, newton on
      pair build: full/bin/atomonly
      stencil: full/bin/3d
      bin: standard
Per MPI rank memory allocation (min/avg/max) = 3.369 | 4.254 | 4.745 Mbytes
Step c_2 Press Volume TotEng KinEng PotEng c_1[4] Density 
       0          240   -344.39513    181563.75    -13284.54    987.24429   -14271.784            0    1.0922001 
     100    237.07519   -357.53497    181563.75   -13249.622    975.21301   -14224.835   0.86328017    1.0922001 
     200    236.18328   -312.15649    181563.75   -13287.708    971.54412   -14259.252    1.4109231    1.0922001 
     300    242.49649   -244.83058    181563.75   -13271.123    997.51363   -14268.637      1.88128    1.0922001 
     400    240.07301   -397.32517    181563.75   -13277.125    987.54461    -14264.67    2.2629884    1.0922001 
     500    240.38554   -299.88702    181563.75    -13289.57     988.8302     -14278.4    2.5536485    1.0922001 
     600    229.46603    -430.2228    181563.75    -13373.99     943.9126   -14317.903    2.8773488    1.0922001 
     700     236.6632   -283.36548    181563.75   -13369.642    973.51832   -14343.161    3.1426621    1.0922001 
     800    238.32275   -266.11524    181563.75   -13417.072     980.3449   -14397.417      3.46598    1.0922001 
     900    230.98011   -360.80659    181563.75   -13383.292     950.1408   -14333.433    3.7985539    1.0922001 
    1000    233.72994   -262.93593    181563.75   -13327.678    961.45227    -14289.13    4.2431735    1.0922001 
    1100    243.71506   -202.56836    181563.75   -13340.717    1002.5262   -14343.243    4.4361452    1.0922001 
    1200    231.92584   -344.56517    181563.75   -13376.059    954.03109    -14330.09    4.7194557    1.0922001 
    1300    242.33719   -362.70462    181563.75   -13329.023    996.85837   -14325.881    4.9413671    1.0922001 
    1400    245.26308   -322.63529    181563.75   -13273.644    1008.8941   -14282.538    5.3748044    1.0922001 
    1500    244.97708   -440.38505    181563.75   -13285.779    1007.7176   -14293.497    5.6969999    1.0922001 
    1600    251.88889   -462.07329    181563.75   -13259.486    1036.1494   -14295.635    6.1498858    1.0922001 
    1700    245.98933   -247.43298    181563.75    -13281.86    1011.8815   -14293.742    6.3682588    1.0922001 
    1800    238.78107   -207.39979    181563.75   -13290.819     982.2302   -14273.049    6.6607861    1.0922001 
    1900    251.61837   -406.80493    181563.75   -13226.612    1035.0367   -14261.649    7.1380398    1.0922001 
    2000    250.15343   -533.65144    181563.75   -13201.751    1029.0106   -14230.761    7.5196083    1.0922001 
    2100    242.40408   -449.58501    181563.75   -13205.712     997.1335   -14202.845    7.7719896    1.0922001 
    2200    252.71092   -334.63412    181563.75   -13210.941    1039.5309   -14250.472    8.0771594    1.0922001 
    2300    248.87883   -301.43731    181563.75   -13260.928    1023.7675   -14284.696    8.4872036    1.0922001 
    2400    248.84618   -268.63653    181563.75   -13281.577    1023.6332    -14305.21     8.711017    1.0922001 
    2500    246.37405   -266.09581    181563.75   -13287.943     1013.464   -14301.407    9.0928644    1.0922001 
    2600    233.92395   -401.65911    181563.75   -13325.638    962.25035   -14287.888    9.5802002    1.0922001 
    2700    244.29288   -436.58457    181563.75   -13300.105    1004.9031   -14305.008    9.6501622    1.0922001 
    2800    246.59113   -399.23079    181563.75   -13307.039     1014.357   -14321.396    9.7129133    1.0922001 
    2900     236.9235   -383.02285    181563.75    -13357.45    974.58907   -14332.039    9.8156832    1.0922001 
    3000    234.17656    -273.1793    181563.75   -13379.783    963.28948   -14343.073    10.327128    1.0922001 
    3100    238.78459   -343.61289    181563.75   -13378.794    982.24466   -14361.039    10.554934    1.0922001 
    3200    230.26544   -416.14069    181563.75   -13394.644    947.20101   -14341.845    10.971085    1.0922001 
    3300    239.16617   -446.23277    181563.75   -13345.814    983.81433   -14329.628    11.220115    1.0922001 
    3400    227.43242   -350.57777    181563.75   -13355.009    935.54733   -14290.556    11.439725    1.0922001 
    3500    235.02544   -352.61465    181563.75   -13352.316    966.78136   -14319.097    11.743564    1.0922001 
    3600    242.94093   -344.31583    181563.75   -13328.937    999.34185   -14328.279    12.068686    1.0922001 
    3700    236.16615   -529.98141    181563.75   -13361.465    971.47368   -14332.938     12.54672    1.0922001 
    3800    240.64544    -304.2165    181563.75   -13348.043    989.89931   -14337.942    12.811514    1.0922001 
    3900    241.15304   -341.14061    181563.75    -13376.61    991.98735   -14368.597    13.150979    1.0922001 
    4000    238.93731   -362.17096    181563.75   -13381.661     982.8729   -14364.534    13.508774    1.0922001 
    4100     244.7971   -366.62732    181563.75   -13355.991    1006.9772   -14362.968    13.844957    1.0922001 
    4200    243.14607   -300.68698    181563.75   -13326.079    1000.1857   -14326.264    13.936093    1.0922001 
    4300     245.9512   -365.36592    181563.75    -13270.27    1011.7246   -14281.995    14.746007    1.0922001 
    4400    243.28739   -375.28077    181563.75   -13278.646     1000.767   -14279.413    15.174731    1.0922001 
    4500    244.18708   -428.44675    181563.75   -13317.311    1004.4679   -14321.779    15.598689    1.0922001 
    4600    237.89651   -446.04904    181563.75   -13332.023    978.59154   -14310.614    15.843518    1.0922001 
    4700    240.62557   -411.51165    181563.75   -13340.979    989.81759   -14330.796    16.308721    1.0922001 
    4800    246.47336   -313.95056    181563.75   -13333.328    1013.8726   -14347.201     16.81802    1.0922001 
    4900    241.80386   -319.12677    181563.75   -13359.208    994.66449   -14353.873    16.914087    1.0922001 
    5000    241.59371   -361.68428    181563.75   -13386.227    993.80005   -14380.027    17.009379    1.0922001 
    5100    237.30143   -335.28518    181563.75   -13388.206    976.14367    -14364.35    17.042598    1.0922001 
    5200    243.37659   -363.36137    181563.75   -13360.542     1001.134   -14361.676    16.873296    1.0922001 
    5300    222.73346   -359.02789    181563.75    -13397.05    916.21806   -14313.268    17.103195    1.0922001 
    5400    237.50926    -389.1579    181563.75   -13363.059    976.99861   -14340.057    17.068595    1.0922001 
    5500    232.31597   -342.69696    181563.75   -13387.416     955.6359   -14343.052    17.683705    1.0922001 
    5600    232.28481   -407.79279    181563.75   -13393.471    955.50772   -14348.979    18.148674    1.0922001 
    5700    238.08065   -298.73795    181563.75   -13347.895    979.34902   -14327.244    18.422906    1.0922001 
    5800    241.07105   -392.34432    181563.75   -13283.534    991.65008   -14275.184    18.476864    1.0922001 
    5900    240.55782   -499.55555    181563.75   -13313.829    989.53891   -14303.368    18.522254    1.0922001 
    6000    237.60024   -349.86902    181563.75   -13377.603    977.37282   -14354.976    18.646713    1.0922001 
    6100    241.92551   -267.54987    181563.75   -13366.783    995.16492   -14361.948    18.612375    1.0922001 
    6200    240.25644   -249.97257    181563.75   -13335.164    988.29918   -14323.463    19.182835    1.0922001 
    6300    238.52969   -145.87398    181563.75   -13311.632    981.19615   -14292.828     19.20596    1.0922001 
    6400    235.19667    -296.3682    181563.75   -13303.436    967.48571   -14270.921    19.868381    1.0922001 
    6500    241.86055   -380.04693    181563.75   -13316.353     994.8977   -14311.251     20.25562    1.0922001 
    6600    234.94652   -366.34362    181563.75   -13350.813     966.4567    -14317.27    20.407577    1.0922001 
    6700    234.40439   -293.72518    181563.75     -13371.4    964.22666   -14335.627    20.855747    1.0922001 
    6800     233.2754   -351.18648    181563.75   -13357.994    959.58254   -14317.576    21.348317    1.0922001 
    6900     237.2103   -267.80576    181563.75   -13399.288    975.76882   -14375.057      21.6362    1.0922001 
    7000    236.14328   -339.47808    181563.75   -13390.688    971.37959   -14362.068    22.046192    1.0922001 
    7100    246.50463   -209.36673    181563.75   -13306.978    1014.0012   -14320.979    22.693374    1.0922001 
    7200    241.59323   -292.69004    181563.75   -13322.395    993.79808   -14316.193    23.183721    1.0922001 
    7300    237.99558    -307.0865    181563.75   -13391.926    978.99905   -14370.925    23.502882    1.0922001 
    7400    239.90589    -332.7921    181563.75   -13410.917    986.85715   -14397.774    23.868099    1.0922001 
    7500    230.88599   -310.86148    181563.75   -13423.678    949.75365   -14373.431    23.978976    1.0922001 
    7600    230.69484   -402.61146    181563.75    -13432.54    948.96735   -14381.508    24.206721    1.0922001 
    7700    229.85264   -297.60367    181563.75    -13405.84    945.50294   -14351.343    24.357477    1.0922001 
    7800    228.97073   -396.37926    181563.75   -13355.098     941.8752   -14296.973    24.484834    1.0922001 
    7900    242.10209      -560.83    181563.75    -13352.61    995.89128   -14348.501    25.184675    1.0922001 
    8000    238.71582    -418.2276    181563.75    -13344.81    981.96178   -14326.772    24.962546    1.0922001 
    8100    237.13392   -312.52214    181563.75   -13355.834    975.45462   -14331.289    25.226569    1.0922001 
    8200     234.8939   -288.94366    181563.75   -13380.113    966.24025   -14346.353    25.263748    1.0922001 
    8300    233.25436   -482.97587    181563.75   -13391.872    959.49596   -14351.368    25.475713    1.0922001 
    8400    230.76715   -500.80183    181563.75   -13386.914    949.26481   -14336.179    25.915672    1.0922001 
    8500    234.70724   -536.58957    181563.75   -13367.508    965.47241   -14332.981    26.061885    1.0922001 
    8600    246.03411   -304.63893    181563.75   -13346.875    1012.0657    -14358.94    26.381111    1.0922001 
    8700    238.53982   -244.86107    181563.75   -13406.995    981.23781   -14388.232    26.475181    1.0922001 
    8800    242.95751   -388.17662    181563.75   -13361.005    999.41005   -14360.415    26.628209    1.0922001 
    8900    240.97819   -422.97167    181563.75   -13389.005    991.26809   -14380.273    26.611064    1.0922001 
    9000     241.1466   -452.43555    181563.75   -13354.861    991.96084   -14346.821    26.800395    1.0922001 
    9100    242.86192   -224.89706    181563.75   -13338.849    999.01685   -14337.865    27.265682    1.0922001 
    9200    234.72391   -292.22414    181563.75   -13369.721      965.541   -14335.262    27.521494    1.0922001 
    9300    235.26887   -221.74776    181563.75   -13378.377    967.78271    -14346.16    27.666958    1.0922001 
    9400    226.13897   -366.87634    181563.75   -13374.493     930.2267   -14304.719    27.671297    1.0922001 
    9500    236.70117   -360.27124    181563.75   -13352.031     973.6745   -14325.706    28.239223    1.0922001 
    9600    224.41536   -399.70615    181563.75    -13403.86     923.1366   -14326.997     28.69027    1.0922001 
    9700    235.57094   -376.56289    181563.75   -13347.117    969.02525   -14316.142    29.168411    1.0922001 
    9800    231.87664     -321.303    181563.75   -13374.049    953.82871   -14327.878    29.287502    1.0922001 
    9900    241.79449   -263.35868    181563.75   -13324.362    994.62594   -14318.988    29.331983    1.0922001 
   10000    244.58589    -165.5347    181563.75   -13272.388    1006.1084   -14278.496    29.638845    1.0922001 
Loop time of 15.7072 on 100 procs for 10000 steps with 9253 atoms

Performance: 275.032 ns/day, 0.087 hours/ns, 636.649 timesteps/s
97.6% CPU use with 100 MPI tasks x no OpenMP threads

MPI task timing breakdown:
Section |  min time  |  avg time  |  max time  |%varavg| %total
---------------------------------------------------------------
Pair    | 0.00096703 | 4.3914     | 13.162     | 235.2 | 27.96
Neigh   | 0.0051653  | 0.15596    | 0.36862    |  31.5 |  0.99
Comm    | 0.20292    | 2.9124     | 10.5       | 176.2 | 18.54
Output  | 0.14832    | 0.14854    | 0.15721    |   0.2 |  0.95
Modify  | 0.22732    | 7.9606     | 15.232     | 228.3 | 50.68
Other   |            | 0.1383     |            |       |  0.88

Nlocal:    92.53 ave 188 max 0 min
Histogram: 30 0 10 10 0 0 0 4 35 11
Nghost:    792.56 ave 1108 max 579 min
Histogram: 24 6 0 25 13 2 7 12 1 10
Neighs:    0 ave 0 max 0 min
Histogram: 100 0 0 0 0 0 0 0 0 0
FullNghs:  9994.66 ave 22950 max 0 min
Histogram: 34 16 0 0 0 0 0 24 21 5

Total # of neighbors = 999466
Ave neighs/atom = 108.015
Neighbor list builds = 550
Dangerous builds = 0
write_data 	    ${DIR}/data.${NAME}_eq
write_data 	    run_21/data.${NAME}_eq
write_data 	    run_21/data.ibeam_cooling_21_eq

undump              1
unfix               4



################################################
#######         Run Simulation         #########
################################################

reset_timestep      0
timestep	    10.0
log                 ${DIR}/log.run_${NAME}
log                 run_21/log.run_${NAME}
log                 run_21/log.run_ibeam_cooling_21
