LAMMPS data file via write_data, version 29 Oct 2020, timestep = 35684

2731 atoms
1 atom types

0.0 78.752 xlo xhi
0.0 80.00857099250479 ylo yhi
0.14315945105203554 29.856840548947968 zlo zhi

Masses

1 18.015

Atoms # atomic

28 1 23.526417151205404 1.430688151144314 0.9548528594418447 0 0 0
52 1 26.156547533952597 7.100648185696042 13.523106164423123 0 0 0
342 1 24.033392800787194 7.9423368743812 1.8660926519268686 0 1 1
851 1 23.308287404628143 13.34367322838028 2.941334016323231 0 0 1
31 1 25.103818109236293 15.401481446225082 3.5890022814272724 0 0 0
86 1 24.176376724401827 18.469557131346363 3.9849861201686445 0 0 1
516 1 22.100542946828945 1.498313201305064 3.4255468445531685 0 0 0
763 1 25.707859324923216 5.936341598870261 24.467620119464918 0 0 -1
79 1 23.76699709882306 3.085205064587765 5.27293820412731 0 0 0
25 1 25.385205460515376 5.2779276083252045 5.012105408797697 0 0 0
84 1 23.703779796768917 9.965337926694275 6.58227446305843 0 0 0
70 1 24.584758299395432 7.9057578703975 4.565782977048326 0 0 0
21 1 24.777819336779316 11.725104491614372 4.638656677581068 0 0 0
67 1 24.40742852958396 13.139058859246983 7.49289169147977 0 0 0
9 1 24.083257317359468 15.89087920554573 6.262653006787003 0 0 1
116 1 26.230359497270577 19.97397266090298 16.69297933276207 0 0 0
77 1 22.639921818374535 17.851504000437526 7.363840647066627 0 0 0
600 1 25.333180352622733 12.985071286835616 10.274680850793287 0 1 0
413 1 20.53439252164843 1.2237447075766983 8.35855136353837 0 1 0
401 1 23.107948847280735 2.3212887005968987 7.655901453156647 0 1 0
582 1 23.853070903819056 4.407234532817299 9.607680394890776 0 1 0
71 1 25.477624704478732 5.91341065448769 8.118262635969495 0 0 0
690 1 25.203412961433912 8.661528083955329 8.273286885125525 0 0 0
615 1 25.64268992908246 12.72063187505216 13.182063860290631 0 0 0
38 1 24.160998112896923 18.770152311183665 9.140348678081468 0 0 0
13 1 25.035535007882444 3.47971158057547 29.073201463053973 0 0 -1
72 1 22.327069294772773 1.5174775450644578 13.153454258329468 0 0 0
2103 1 25.44508486944914 0.16968075605715097 10.950362155694298 0 1 0
64 1 20.968593051626563 2.694009548051863 10.922487457911412 0 0 0
47 1 21.301486635645155 5.29397047085398 10.377753209810551 0 0 0
73 1 22.29372778231694 6.053392014673484 13.058510606169955 0 0 0
693 1 25.13263869954008 2.923199446656428 11.619093377528046 0 0 0
834 1 26.01239942503589 14.738118738725062 29.25882236676572 0 0 0
66 1 24.07245641981182 10.558211800841168 12.748646882383253 0 0 0
110 1 23.223800075730928 19.85537684233105 28.15136991312972 0 0 0
676 1 24.77980878431753 16.19636612332534 10.140254175617084 0 0 0
36 1 24.62824763962745 16.897584205284463 12.860477861720105 0 0 0
123 1 24.74151281922502 19.469617747381402 14.188636631990725 0 0 0
5 1 23.738978910342546 3.7676531033499803 13.84595021523683 0 0 0
74 1 24.654581382103334 2.6005808211854746 16.236418041213923 0 0 0
157 1 25.38257401583948 18.27423068705016 28.662124936575587 0 0 -1
82 1 23.875428740701878 8.221414461961867 14.15115637597765 0 0 0
51 1 23.91558935227256 14.652729330962709 14.236617694692566 0 0 0
11 1 25.29621192320726 3.966318186769831 26.245168651774392 0 0 0
33 1 23.906500298465595 17.22013321469448 24.541285367874135 0 0 0
101 1 25.340506373404544 19.087081927973212 22.853824252674574 0 0 0
76 1 25.8866280867623 16.939256100211733 1.4700895000368641 0 0 1
361 1 24.049613011537797 3.9270885601437713 18.736587126215674 0 0 0
46 1 25.663746374016085 6.436388274233409 18.38311523834993 0 0 0
85 1 24.481835749846976 8.303913860690088 16.87589630753268 0 1 0
1149 1 24.97228804085751 12.40199713424057 17.930481868405636 0 0 0
565 1 24.676957184112474 14.671104069141531 16.679964668680462 0 0 0
808 1 23.973735012834688 16.00613914825662 27.547661342080534 0 0 0
32 1 24.014735049927076 16.474318946225125 19.161922970080397 0 0 0
132 1 25.108009720756304 19.001944406763776 19.91288083224558 0 0 0
41 1 25.297321117349295 2.277890326913925 20.71138109640183 0 1 0
2 1 23.8141487816364 19.9717089345767 1.574711858998494 0 0 1
564 1 25.91738188832414 6.164099263052962 0.6103671161895526 0 0 0
34 1 25.593962438257524 12.37203620629716 20.616459847753823 0 0 0
59 1 24.80455242704307 15.019981126673704 21.227424935768813 0 0 0
16 1 24.1956154777398 14.428000967194935 23.86211375547321 0 0 -1
151 1 25.811190855101966 9.948386133177081 10.632303775863752 0 0 0
753 1 25.61911957761854 1.2663160094388615 24.73448039774147 0 0 0
87 1 24.413119753189356 12.540229395216466 0.41851746719674165 0 0 0
464 1 26.00309741538317 6.987906109383738 27.454811627068093 0 0 0
35 1 25.158657876112642 11.739701012899125 24.56883757479795 0 0 0
740 1 24.226543485490588 10.15865299453634 22.069818275792844 0 0 0
15 1 21.76244089778428 17.860565033629435 26.520547101239337 0 0 0
55 1 25.721782810263715 10.141830400241512 1.546052857605794 0 0 0
57 1 23.012410139815618 19.604458848812552 11.534707506643525 0 0 0
353 1 25.914483758008174 1.2772036266736597 4.331840962224337 0 1 0
39 1 25.918343084082682 4.86872715120857 21.814562512588875 0 0 0
14 1 22.339510021401335 21.68604509683216 3.1073552244956715 0 0 1
128 1 25.678479108859992 30.824609547911805 20.231710093741654 0 0 0
114 1 22.93805457954797 24.774744208501136 3.1151646210724175 0 0 0
1322 1 24.7478135691176 25.460272510259056 1.2357569593750437 0 0 1
98 1 23.363000046670255 28.668581470809134 3.1939448210482375 0 0 1
987 1 25.417095710179915 28.06575029446834 1.1856651757635628 0 0 1
1004 1 25.808353985664763 32.362866814135955 0.9488620463663013 0 0 0
136 1 21.7056235461558 34.18933928556869 1.4543696448910328 0 0 1
167 1 20.97535312666661 36.66599636922062 2.5881106778735896 0 0 1
882 1 24.36995614693517 34.790862993070725 0.7207663768446485 0 0 1
97 1 21.24794061460011 38.400424022128675 0.47196428984069655 0 0 1
910 1 25.363196153072323 26.34651738064505 9.491652175800553 0 0 0
83 1 24.349055901292267 24.696421727221427 5.474480066990754 0 0 0
881 1 21.094864203410292 27.281686322530902 3.958269901310461 0 0 0
142 1 23.101951740083113 25.888749712324806 7.599660032643888 0 0 1
42 1 24.38547315672831 28.1030703415981 5.797382193751489 0 0 0
168 1 21.81376535885719 32.871421164723806 3.9233958365471207 0 0 0
115 1 23.739639590376935 31.399131707703805 3.1830260768540297 0 0 1
880 1 25.77504395577125 32.01776566890232 4.953149354340359 0 0 1
993 1 24.87875973220361 34.96515191008511 6.007502486480454 0 0 0
1356 1 19.954925601123122 37.40199732391464 5.170469727085504 0 0 0
137 1 25.936252565910223 32.29773721753162 12.443844684661515 0 0 0
94 1 23.696291652676393 36.01856709418453 3.428250117618021 0 0 1
153 1 19.0355017637529 27.091062820608737 8.814941027525363 0 0 1
1313 1 21.09736137239917 27.418539218306957 6.746400824408715 0 0 0
449 1 23.962013711469705 23.59419467485935 10.094995263210548 0 0 0
979 1 24.924034295857503 25.187641047225526 13.232830855418051 0 0 0
931 1 21.82414156300686 29.82574585007477 7.783095346101523 0 0 0
134 1 24.44930266458724 30.37648848877009 7.289306963927463 0 0 1
125 1 23.429004612074973 40.00136589203483 17.925367577688437 0 0 0
166 1 20.72512851688354 32.164482443937864 6.688410003159869 0 0 0
145 1 21.263207509282832 34.08201300919894 8.688144412541192 0 0 0
1049 1 25.366955170141736 32.868522752605905 8.05362673230033 0 0 0
170 1 21.940166091499933 35.09781730177876 5.793862990229027 0 0 1
169 1 21.427668735252404 38.35873168617192 7.406602168797098 0 0 0
160 1 22.378811766724247 36.72050868087869 9.451900488475994 0 0 0
140 1 24.79538974484002 36.420464068079646 8.358007778049998 0 0 0
1594 1 24.268637688491943 38.97895501970657 6.952947973826392 0 0 0
1024 1 25.70692143137513 38.04936775024399 12.14264272162443 0 0 0
159 1 22.08365345621797 23.694873573141933 12.591613335282512 0 0 0
448 1 25.642331977233287 21.39707914997882 8.795391394360434 0 0 0
45 1 22.805828841172687 20.18821465994673 5.292310135199871 0 0 0
863 1 21.067324998196554 25.43599886121579 9.973017021352057 0 0 0
152 1 21.344459053857236 27.57975970178636 13.34584546015168 0 0 1
171 1 19.261012423551538 29.8203818204081 9.657380706814095 0 0 1
1311 1 20.17728792000174 29.754231472172528 12.422256059893595 0 0 0
164 1 23.41258898542593 27.03692614929683 11.746241868428104 0 0 0
89 1 22.29044471601536 30.455675962985268 10.550938988412321 0 0 0
921 1 24.536627062691448 29.840106481428737 12.239634557277478 0 0 0
161 1 23.31391763894352 33.04476411504258 9.92989276834236 0 0 0
143 1 23.768755381232996 34.0041019739859 12.61741841171923 0 0 0
1359 1 22.91740644695453 38.47057197258686 11.45962987612285 0 0 0
92 1 19.80809419037678 25.383720988539505 13.039697976447979 0 0 0
156 1 24.547869746441247 22.830044150567108 16.41559575469812 0 0 0
969 1 23.850984946738635 25.735108611669403 17.26033234741787 0 0 0
155 1 22.899901652665296 27.974634579996994 15.843825688098699 0 0 0
163 1 24.802637354196243 30.253539105265464 15.407601318683762 0 0 0
1088 1 22.5840680409546 34.38317645344622 15.167739463863652 0 0 0
20 1 25.083987041443017 22.186040772812916 6.243449399948874 0 0 0
112 1 23.739214214344344 36.64618828800234 15.862336717955502 0 0 0
1147 1 22.68451295762984 38.87971897215342 14.513074785206795 0 0 0
102 1 24.3206138517334 21.861362445436775 19.021985075047848 0 0 0
91 1 24.50145935396035 26.678535764258232 19.792780254635417 0 0 0
129 1 23.94416984661222 24.10947900493026 20.89305795045503 0 0 0
124 1 22.451564698295297 30.18150963204954 17.719944786075803 0 0 0
139 1 23.183748503763518 29.280964447722422 20.16685726316158 0 0 0
127 1 23.879538090680622 32.616813959765636 17.248122898395128 0 0 0
135 1 25.441250551524565 38.09651690301929 17.898663929129484 0 0 0
1072 1 25.56126856052957 23.763138199097984 22.889192080650098 0 0 0
99 1 22.728375836868885 21.80590876005937 14.498384238763062 0 0 0
1182 1 23.44189755488801 32.63861384288817 22.38567112851586 0 0 0
117 1 22.049333171163827 30.15759535943152 22.503740674683087 0 0 -1
113 1 24.432657440536204 33.586588967135825 19.86591218149191 0 0 0
118 1 24.878062367875216 36.17859630180097 20.298753143823813 0 0 0
202 1 24.45654427125818 39.68425648003872 23.42434991694051 0 0 0
185 1 23.784175713292342 36.940340811204194 22.801947393081864 0 0 -1
122 1 25.772924950189676 21.465149929963797 24.154763539707993 0 0 0
1206 1 24.736920596956658 21.818003424527085 26.681886195928378 0 0 0
1020 1 23.311520248090588 25.178834919005748 26.57526463016749 0 0 0
120 1 24.91176646000958 26.09688228750075 24.56583994157138 0 0 0
108 1 22.84498607594172 28.039239864428808 27.139081336362732 0 0 0
119 1 23.600166350577314 29.094798723215014 24.727287590799865 0 0 0
203 1 24.97259931115334 39.797671230279654 28.289376592955744 0 0 0
496 1 25.14263275378112 22.24834759452873 12.431225666068805 0 0 0
940 1 25.793378095859065 29.368789485416507 9.509960047362355 0 0 0
1006 1 26.00852845393861 37.138141451337376 1.7295897298600058 0 0 0
90 1 22.97466725282699 34.72234015872811 24.439082964448374 0 0 -1
1128 1 25.352984107659914 35.10148283248102 26.13889439797405 0 0 -1
149 1 26.038429991700525 26.227242530633905 15.73729132102395 0 0 0
1067 1 25.63092975654485 36.069048848153024 13.988807424881882 0 0 0
111 1 25.16362773166485 24.325612283415822 28.368512387124873 0 0 0
107 1 25.15444494795049 28.993566704901937 28.23813489166679 0 0 0
148 1 22.064870378013886 32.86440212896689 28.65469402985018 0 0 -1
95 1 24.544956806309997 31.789392023273372 28.31189061719748 0 0 0
141 1 23.178193938895717 35.39022178209612 27.64484507921584 0 0 0
183 1 22.88688558383243 38.058521566608114 27.86874303533288 0 0 0
932 1 24.554585708971455 38.72545501458254 4.310138872966457 0 0 1
109 1 26.23218044069069 28.972911436029808 23.796678355912185 0 0 0
104 1 26.132328106209087 39.749262303150445 20.879393174709882 0 0 0
133 1 25.95549557079296 31.520321181171912 22.996045775211325 0 0 0
106 1 26.165793925615333 32.48543327526324 26.091761640888233 0 0 0
900 1 20.87750601089928 40.891272388422216 1.702235842776161 0 0 1
173 1 22.01249041437174 43.04872878150493 0.4232051820874336 0 0 1
1429 1 24.53709373158201 43.018246099402226 2.4910270559237593 0 0 0
192 1 22.533848376478364 45.42930534048809 2.21982867207873 0 0 0
1456 1 24.429034990228132 46.35578618606688 0.40813535214449626 0 0 0
220 1 24.23283858959126 54.22912798928235 28.73645987708755 0 0 -1
208 1 24.66149332291555 51.925514244164724 0.32068239137616866 0 0 0
1842 1 24.462700210191844 50.34462105968192 5.360012211572625 0 0 1
1009 1 25.63914408191515 40.72766643118648 8.575122001113106 0 0 0
261 1 23.208880487107198 56.086783872105464 0.7959375769936315 0 0 0
196 1 25.126909964544673 50.03917910975434 11.033113404015449 0 0 0
335 1 22.822547838627443 58.39586532303446 29.001496511536647 0 0 -1
186 1 21.805050809523166 59.94496317136677 26.727336997226438 0 0 -1
2000 1 22.73165422064168 57.588050187776346 3.8630534293251784 0 0 0
177 1 21.916432890431285 42.46732082899035 5.594923030152539 0 0 0
961 1 23.015062584058583 41.14894209388313 3.447406578923023 0 0 1
245 1 23.717821211037116 46.30972637245341 4.755260314629349 0 0 0
181 1 22.931261709320015 48.295578965497256 6.5631688782286925 0 0 0
176 1 20.92461929331853 49.386289382461605 7.793525805877919 0 0 0
237 1 21.517107458591298 51.936653484132286 7.634054028261255 0 0 0
266 1 21.760622365969166 55.17147989840007 3.0164564685686073 0 0 0
1761 1 24.77110007383487 50.369779856274526 27.69117388472169 0 0 0
1585 1 22.284841914358537 53.92928426201175 5.661229399574883 0 0 0
1948 1 25.43707314340032 59.907451087685274 7.232015884776821 0 0 1
205 1 20.861897072655438 41.01778477949177 7.837535708333745 0 0 0
250 1 24.019508245208307 45.53217351367532 8.736513647696075 0 0 0
1372 1 23.95226000188109 44.08333702775599 6.2610763627404245 0 0 0
147 1 21.2981816812546 48.20004306045825 10.481572734753263 0 0 0
258 1 24.177128916161003 51.40229652155615 8.69328219922889 0 0 0
213 1 25.19634587017278 49.17422375545029 23.185397967948113 0 0 0
259 1 22.29550984036139 55.97838617178454 7.610985137586487 0 0 0
240 1 23.858362462882155 54.26109919942989 9.337648862672737 0 0 0
319 1 23.920494981366524 57.578835721132776 6.475631904044706 0 0 0
154 1 23.40498292744524 42.0626006212855 12.713316232759011 0 0 0
232 1 22.93160401879392 40.96850116575448 9.984870514986808 0 0 0
239 1 22.599310192145943 46.082014533373915 11.17458287399234 0 0 0
252 1 22.27442606851824 44.472221846568495 13.286333413649123 0 0 0
228 1 22.2586487167114 50.9077380925159 11.240485233478351 0 0 0
225 1 20.884361392050433 53.14825762118834 10.019465910094814 0 0 0
247 1 22.43382269549184 56.706290367293484 10.593964988786388 0 0 0
226 1 22.706492650511194 54.23972560401082 12.59524580623709 0 0 0
246 1 25.51737428003958 57.13474071882531 13.111782117472094 0 0 0
316 1 25.025079661178058 58.51344560119935 10.171253718841754 0 0 0
206 1 23.99324456631589 41.12004423712181 15.255967876824105 0 0 0
242 1 24.178996164357574 45.73150269157566 15.024457186372427 0 0 0
1698 1 23.979325881293224 51.50117296487802 13.460751348079512 0 0 0
235 1 23.221610259123725 55.04776603837439 15.22013656828163 0 0 0
193 1 23.96454585959887 42.40406385077724 28.43566847462396 0 0 0
197 1 23.423623365236104 57.72974698738562 14.934696307459275 0 0 0
1883 1 25.75189487155471 59.2960683931358 0.41643920068555484 0 0 1
222 1 24.21401373948053 41.73611313766001 19.65487212712217 0 0 0
1565 1 26.116982811389235 54.84455860495047 14.541054732403888 0 0 0
218 1 25.355588840269895 44.47661516833505 18.83799950889672 0 0 0
1681 1 23.645611085874904 46.58381683616427 17.803930671709928 0 0 -1
216 1 23.06816287837983 49.27999157816476 19.2616032427461 0 0 0
211 1 21.462200015869904 51.349648439728156 17.63284500218866 0 0 0
210 1 23.59711287150509 53.069245853622924 17.540033941275297 0 0 0
195 1 24.13354095490146 54.670647612377145 19.523034055367678 0 0 0
172 1 24.167248617974458 58.898285421396885 17.32677706835612 0 0 0
221 1 23.531223177122445 42.197137070835176 22.121047040236864 0 0 0
219 1 24.306822648883262 53.196431403916584 3.500100942639088 0 0 0
1795 1 23.152312230881762 52.924366735303344 26.398391244564838 0 0 0
1730 1 24.98632016609739 44.07469452314548 23.54796613198334 0 0 0
198 1 23.39862004006231 53.03115218393632 21.610711031070917 0 0 0
200 1 25.020678044073694 50.70216482435667 21.04062522206524 0 0 0
289 1 22.697178735895815 57.155313968850166 19.08659410518575 0 0 0
1713 1 25.43212497490507 57.56158084639446 20.828081850876078 0 0 0
207 1 23.521351812212 48.01430399830757 28.20088925189413 0 0 -1
199 1 25.00989264987106 53.32163883262908 24.111676954809358 0 0 0
182 1 22.360589555764953 46.83253969153813 26.036343793505242 0 0 -1
191 1 24.14791664532564 44.016049001952936 26.389839494322988 0 0 0
1844 1 25.712564551265803 46.44346366263585 26.63020616571838 0 0 -1
179 1 23.838347288238136 46.72801039974667 24.03441241900032 0 0 0
187 1 22.520282004947227 59.09908756997772 21.372845375403287 0 0 0
2042 1 25.85957095981474 57.985454694986835 23.820259681278404 0 0 0
1396 1 24.696105236619424 50.05640378704085 2.6254277799289176 0 0 0
313 1 23.25488568069808 59.569825119709286 24.199345536456065 0 0 0
1498 1 25.00654310291997 48.225333490954654 8.495532247794364 0 0 0
230 1 24.83879315548743 47.279645670700575 12.430607756752096 0 0 0
174 1 26.03145986961672 42.670814766917836 11.859039467562718 0 0 0
1407 1 25.97091406195966 55.49988221257767 2.785631055543603 0 0 0
234 1 26.156161487218498 56.003361915185195 5.656999741036386 0 0 0
1529 1 25.660111944388973 53.13575178117996 6.211081885097162 0 0 0
236 1 25.80066711120642 54.876025484802774 11.007672290018588 0 0 0
1938 1 25.63481373739235 58.31766774421913 3.013525791892071 0 0 0
1704 1 25.721813130384486 51.555255291093566 17.28722261062682 0 0 0
1710 1 25.54292724140855 48.82023245266093 17.072675155833405 0 0 0
227 1 25.940886034224366 49.2184998892034 14.28219731397991 0 0 0
251 1 26.14607923842739 47.06644639277436 4.368806612983394 0 0 1
217 1 26.060770035131057 45.100955854521516 21.336897633381604 0 0 0
286 1 21.766279076509594 63.091418485989855 0.7565613054066933 0 0 0
2094 1 23.34217733910493 60.2604746974781 3.120900276357355 0 0 0
2002 1 25.094483541977702 62.278755857084334 1.3515758267153533 0 0 0
267 1 23.765239789725083 64.36955140476725 2.342885652224949 0 0 0
287 1 24.251952415526535 66.59199868330232 1.0673785256932025 0 0 0
80 1 23.134560859146585 79.06357033558673 12.643701613874535 0 -1 0
262 1 25.88715145400194 73.52570353668177 28.576080614033877 0 -1 -1
12 1 24.606302995678256 71.50076387043931 0.3787001575394619 0 0 1
270 1 24.014703044377214 75.76192084221957 27.71156222023123 0 0 0
63 1 21.983699750466997 77.31667754509334 29.022453997543057 0 -1 0
331 1 25.801866134261754 61.17677817070853 13.506153978866049 0 0 0
332 1 23.460891110859688 61.40540977471693 5.835514578744175 0 0 0
293 1 25.08662676736117 71.74895167678906 15.984278419758832 0 0 0
2123 1 23.620055959284564 65.1179347643608 10.370451851286637 0 0 0
327 1 23.674553631566276 64.29060813345697 5.181535523669368 0 0 0
315 1 23.571372899847745 66.90771725181415 5.725015917032589 0 0 0
8 1 22.553784430033158 70.56385577910551 5.110950468599766 0 -1 0
337 1 24.374533226831023 71.80810677007825 3.330656243790841 0 0 0
260 1 24.43729288830727 79.85000763705804 7.693935224141693 0 0 0
473 1 22.330061925408952 76.95328996356677 2.2916766174051273 0 -1 0
58 1 25.241295962172455 76.73300533664 3.5302969577594228 0 -1 0
320 1 25.340554061291286 74.17387829073833 4.6179472468475335 0 0 0
329 1 25.21976091086494 68.74332816482992 7.391559769885701 0 0 0
300 1 23.384628428104556 70.69537988553175 7.554120635773216 0 0 0
285 1 25.523042119336463 68.94039619828509 15.368296491006603 0 0 0
295 1 23.47203006547114 69.05365281889938 29.170751605735813 0 0 -1
75 1 21.61862411960554 78.88540433386439 7.1335396176755905 0 -1 0
402 1 25.18675554924655 78.88434092428206 5.106524807781597 0 -1 0
272 1 25.020204215838472 75.69169125097233 10.149709244495627 0 -1 0
271 1 23.29361542757863 74.4131398624375 25.40913456272664 0 0 -1
2395 1 25.224503606170565 61.33014581002758 10.997118898254339 0 0 0
44 1 22.36750977859545 79.02453703481571 4.295555924990629 0 -1 1
2066 1 22.559881307065588 63.28220720891677 11.929417613841071 0 0 0
305 1 20.45710824450572 66.55573945301194 13.503159277733436 0 0 0
308 1 20.234656529460004 64.02599571798906 12.865951792951574 0 0 0
324 1 24.141911731322168 78.86171133715777 29.383993787713777 0 -1 0
325 1 22.575492428504383 70.04219618309982 10.26917687303247 0 0 0
323 1 24.605332783094944 71.26342700757324 11.61548389000223 0 -1 0
276 1 22.501705331986194 62.43362805007945 27.96476895412032 0 0 0
1982 1 23.610369313293514 69.31917407712551 26.289810253632186 0 0 0
81 1 23.24359587667848 77.95566589031753 9.930545916167867 0 -1 0
273 1 25.735775273483572 67.13584729316915 23.410572656056253 0 0 0
296 1 23.72003879525416 63.25294454431011 14.244574068110667 0 0 0
340 1 25.48146714360418 67.42189138736904 3.5261446338460583 0 0 0
1983 1 21.54072849746635 63.16888300841462 15.696313019598826 0 0 0
263 1 24.100140820361474 63.89037918658118 26.03303715573724 0 -1 -1
307 1 21.352258466066036 65.8169514222927 15.834246263150746 0 0 0
322 1 25.00932256770938 68.28774438748195 12.647834963787691 0 -1 0
292 1 23.439667739085188 72.42913468922976 13.977801740878425 0 0 0
4 1 24.599497741731525 79.34059339321887 26.62071737706523 0 -1 0
301 1 24.605277447805875 75.03721225341673 14.701273050089632 0 0 0
7 1 23.342083613797378 77.5094919453321 15.040642059576355 0 -1 0
298 1 23.39269336321149 61.51610430917131 17.368806902278347 0 0 0
2364 1 24.759851132742632 72.01340803245952 25.068086744792147 0 0 -1
1769 1 25.197514665038494 65.61858167525612 15.404054073731436 0 0 0
290 1 24.64534564378888 66.68154095770319 25.724437776560226 0 0 0
24 1 24.778353095818535 76.97655542345815 25.030313639519868 0 -1 0
306 1 23.967652740341215 67.25062172989657 16.778736642262533 0 0 0
284 1 24.192798005347615 72.05343699919396 18.453389700329005 0 0 0
2019 1 24.948102332535466 73.03423618022089 9.055850209248428 0 0 0
265 1 25.69051327099391 63.028907921588534 28.504116606022464 0 0 -1
282 1 24.767432098954345 77.36531246438855 17.675965247556594 0 0 0
311 1 25.816292443135826 69.92035501198426 22.891199209127105 0 0 0
2111 1 22.41416174878799 67.49171206672204 11.72266540016991 0 0 0
288 1 22.928504770384514 61.508894450850434 20.24422648547498 0 0 0
264 1 24.662704809055846 63.26382338034333 21.480778392139445 0 0 0
277 1 21.410267277010576 60.01525856321237 1.0423083585874464 0 0 1
2334 1 23.856684214346902 65.93552136810331 21.52311654905149 0 0 0
2297 1 25.388692669861367 67.22661369771302 19.585649104990807 0 0 -1
2300 1 25.471945101099177 70.06036768320351 19.912432209959746 0 0 0
844 1 25.003257638284442 76.15076781967683 20.49816523154794 0 0 0
6 1 23.998961173089494 77.98872535448612 22.623673440940347 0 -1 0
326 1 25.98705562325157 62.48434094414452 18.283149609213083 0 0 0
275 1 24.441509196763434 62.05856000792642 23.975122151092158 0 0 0
330 1 26.043353069607235 63.79590622746746 9.919965940602593 0 0 0
2251 1 26.08207871563571 73.95154997170604 19.322963534120362 0 0 -1
2394 1 25.743453150631616 79.99483233566265 22.489942135616285 0 -1 0
574 1 25.28429283446062 79.93077339550908 15.022081290506149 0 0 0
411 1 29.41607995837679 2.2276362227244144 1.1148652488533284 0 0 0
836 1 32.63538215349068 2.00549262449648 3.0689704869679177 0 0 1
2384 1 30.693920287101506 4.682842634629636 0.2764022044476444 0 1 1
131 1 27.49913610709577 18.30937256818008 19.415406750202152 0 0 0
30 1 27.150053688097803 18.756175528078405 8.750453598371122 0 0 0
2324 1 37.32283070900628 1.4276654460695195 3.289304409463961 0 1 0
408 1 26.861888482621264 19.38699709012435 4.937578903517818 0 0 0
40 1 27.424460715098338 0.8666248504669183 19.201727039806173 0 0 -1
2373 1 50.5003222333737 0.8746887249254162 1.8547406350743436 0 0 0
410 1 28.7093106089887 6.052243896581715 1.6305196255747856 0 0 0
816 1 37.121770539218296 3.745326557319301 1.8559634292646112 0 1 0
2316 1 33.42568964475305 3.8757534399743783 0.9632168337264377 0 1 1
358 1 40.59777397662394 2.7565793039319915 29.455079770310046 0 0 0
365 1 39.96070422046309 4.6638913932651755 1.5196451690074182 0 0 1
814 1 43.67506322458516 0.5856992414401964 2.6127523550742358 0 0 1
370 1 43.75264448692982 5.62939523748455 0.5214526648685119 0 0 0
407 1 42.443810721454184 5.14231933899562 3.0649561200724817 0 0 1
2423 1 47.75776824781167 5.71401795371398 29.770220639641952 0 1 0
2422 1 50.284431746404735 4.613863826013011 0.9131379637163446 0 1 0
798 1 28.516319245288518 19.139235873993368 0.5667035767000022 0 0 0
2315 1 27.21019153489285 0.3267853987388537 13.162653613670791 0 1 0
10 1 28.028838975372235 9.846116032899221 24.43672666937424 0 0 0
824 1 27.475282068760794 8.912004106320264 29.743557650709977 0 0 -1
374 1 30.0292025515523 8.762424964957498 2.18583546428125 0 0 0
424 1 35.108683688897614 5.910165054654707 1.8146291382737787 0 0 0
380 1 38.98550252369929 6.623150942692978 29.14758008235825 0 0 -1
416 1 46.06117633459484 7.636798976622503 3.7772778561307616 0 0 0
822 1 47.253362803254184 5.568232043528182 2.6990894145673145 0 0 0
443 1 49.92332819254188 8.348026793442914 4.518888718438753 0 0 0
503 1 52.165573299604794 14.961863340802012 11.149400952393147 0 0 0
853 1 29.465131208003232 0.641864907770902 23.798742519528002 0 0 -1
549 1 27.64539592973601 12.394819405451543 1.5521734907819098 0 0 0
423 1 32.43634856317507 10.132255571771928 1.1576166224886921 0 0 0
440 1 33.28348250283793 10.985750459895218 3.5427262620066835 0 0 0
366 1 37.22472126308971 7.770735052106794 1.138750603434446 0 0 0
827 1 37.540403236318625 10.583482745816244 1.354557969128087 0 0 0
417 1 37.98750681655874 13.4071780804492 1.828292728721074 0 0 0
481 1 42.76608457232342 12.728633226701607 2.0525545370216265 0 0 0
369 1 42.68071688751918 10.606867879170862 0.2764544557298998 0 0 1
770 1 44.56747253247112 14.823293170292931 1.487156341723075 0 0 1
383 1 46.638609774827124 8.99247324555841 1.4059397106169704 0 0 0
390 1 46.073647988555784 12.026020931556047 1.0169868140514864 0 0 0
2096 1 32.99263413935487 0.34276294256590867 11.819859737843961 0 1 0
386 1 31.747271838215966 15.554723044860589 2.4854629672428596 0 0 0
509 1 33.07915658525485 13.834358371663402 3.733459173064778 0 0 0
387 1 35.3889909523982 14.519783727741363 2.06144169505803 0 0 1
381 1 40.07547805959943 16.010615318293656 2.9263225913512305 0 0 0
367 1 43.42601664172102 15.800578434827761 28.978319155044623 0 0 0
2448 1 50.00006219778687 17.49294538312457 1.1079873237467337 0 0 1
399 1 48.53880125708353 18.484982219825213 3.2796890637467366 0 0 0
2430 1 50.95753329591146 9.591848513505417 2.1412248350075638 0 0 1
672 1 52.1235340700841 10.361816106643111 21.998425779151273 0 0 0
430 1 27.253730295506127 13.75350254113247 4.044551018606418 0 0 0
394 1 32.949216939115956 18.118768388749206 1.808080522053451 0 0 1
964 1 35.46007654843013 19.11001854466002 2.7217711466265095 0 0 1
577 1 37.13337805501733 16.576283053431567 3.2485038038661362 0 0 1
800 1 37.55912915583991 17.875354760554796 0.7516652902869403 0 0 1
744 1 42.30894555729037 17.20822191358898 1.3849030754526903 0 0 1
1254 1 40.22844757971664 18.591768329536634 0.3993446391522575 0 0 1
2303 1 43.8505045991536 0.007175247706088642 18.285288775417378 0 1 0
391 1 47.24585651995187 15.831992358000916 2.844944784295573 0 0 1
456 1 47.87869236028928 0.39253136002484434 2.1510716988032295 0 0 0
453 1 43.57153220287756 19.5162191493745 2.2487436307842485 0 0 0
2399 1 52.06079732089661 6.366583202786131 14.187889992202221 0 0 0
525 1 28.333702863421706 2.1662089569340335 5.41331150944312 0 0 0
347 1 41.01281007555818 0.5950461109079234 1.6235017001828482 0 0 0
344 1 29.93800726251482 0.6479578454824513 3.821978724125444 0 0 0
477 1 35.893785916784736 1.5189703926886151 5.8180321049100066 0 0 0
405 1 39.31171138997706 2.2349220080169823 5.473269664880122 0 0 0
1986 1 42.16744663564813 2.582296910710938 6.459179712973983 0 0 0
821 1 43.482284801244305 2.92893700287967 3.8907448047347524 0 0 1
395 1 48.1256113783851 2.304009115535733 5.246828974614447 0 1 1
349 1 45.950394376788076 3.861075776413885 4.373913077523111 0 1 0
427 1 51.114232682351634 0.4223277121377278 6.508556240611348 0 0 0
27 1 28.109419866937703 4.795718026135644 4.133126734159735 0 0 0
355 1 30.140907421173697 5.89756589803828 5.738638810038558 0 0 0
806 1 33.94816287619988 3.4609146350429913 5.153268891963828 0 1 0
414 1 33.96074879842434 6.182218421388291 4.336016938206237 0 0 0
412 1 39.20104958668933 4.881162170729069 4.183276660074109 0 0 0
422 1 42.52005295565998 9.517749999227986 5.014319153384027 0 0 0
419 1 43.39189997304294 6.999778978686887 4.817171965563113 0 0 0
484 1 49.70316783041688 5.333049691555592 3.9574397141178883 0 0 0
2413 1 50.824627416412135 2.429926124105131 4.478956547120175 0 0 0
761 1 51.153824805254125 13.468109694416194 29.52615982265925 0 0 0
521 1 31.782353582997068 7.686390744326514 4.275711345965599 0 0 0
469 1 35.672838949541 8.02411503017501 5.507465255527847 0 0 0
550 1 39.86001910771053 8.861747296865234 5.00990719561258 0 0 0
426 1 40.22443792860001 10.546549855641027 2.589554633751282 0 0 1
504 1 44.51032638552143 10.9516784706684 3.3996850957630693 0 0 0
2420 1 52.30516643422543 4.17924397684512 28.086361928171897 0 0 0
796 1 46.60347079335139 18.96420898515133 28.58057891773365 0 0 0
3 1 29.02420306614084 10.90388076794687 3.5798900375601486 0 0 1
437 1 29.737171693242324 11.366039663246944 6.812082474038577 0 0 0
557 1 33.299661625706015 11.195240832427212 7.570411153248749 0 0 0
379 1 35.94155054049693 10.311324701957282 3.689831681153964 0 0 0
359 1 40.159075861491985 13.211536596844772 3.5038038240220626 0 0 1
445 1 40.60050193868184 12.833097829692635 6.573950418481081 0 0 0
493 1 44.984366139262015 13.984301205242847 6.394267582820662 0 0 0
434 1 47.37000326803624 9.313385515419728 5.219139037768371 0 0 0
444 1 48.12832045069395 13.146605505755492 2.9845292328002544 0 0 0