LAMMPS data file via write_data, version 29 Oct 2020, timestep = 50000

9875 atoms
2 atom types

0.0 78.752 xlo xhi
0.0 80.00857099250479 ylo yhi
0.0 39.91884054894797 zlo zhi

Masses

1 12.01
2 18.015

Atoms # atomic

1 1 0.0 2.8417180249513345 1.677 0 0 0
3 1 0.0 0.0 1.677 0 0 0
5 1 1.2305 0.7104295062378347 1.677 0 0 0
12 1 1.2305 2.1312885187135 1.677 0 0 0
14 1 2.461 2.8417180249513345 1.677 0 0 0
16 1 2.461 0.0 1.677 0 0 0
18 1 3.6915 0.7104295062378347 1.677 0 0 0
33 1 3.6914999999999996 2.1312885187135 1.677 0 0 0
35 1 4.922 2.841718024951334 1.677 0 0 0
37 1 4.922 0.0 1.677 0 0 0
39 1 6.1525 0.7104295062378343 1.677 0 0 0
62 1 6.1525 2.1312885187134993 1.677 0 0 0
64 1 7.382999999999999 2.8417180249513345 1.677 0 0 0
66 1 7.382999999999999 0.0 1.677 0 0 0
68 1 8.613499999999998 0.7104295062378343 1.677 0 0 0
99 1 8.613499999999998 2.1312885187135002 1.677 0 0 0
101 1 9.844 2.8417180249513336 1.677 0 0 0
103 1 9.844 0.0 1.677 0 0 0
105 1 11.0745 0.7104295062378334 1.677 0 0 0
138 1 11.0745 2.1312885187135002 1.677 0 0 0
140 1 12.305 2.8417180249513336 1.677 0 0 0
142 1 12.305 0.0 1.677 0 0 0
144 1 13.535499999999999 0.7104295062378352 1.677 0 0 0
177 1 13.535499999999999 2.1312885187134984 1.677 0 0 0
179 1 14.765999999999998 2.8417180249513354 1.677 0 0 0
181 1 14.765999999999998 0.0 1.677 0 0 0
183 1 15.9965 0.7104295062378352 1.677 0 0 0
216 1 15.9965 2.1312885187135002 1.677 0 0 0
218 1 17.226999999999997 2.8417180249513336 1.677 0 0 0
220 1 17.227 0.0 1.677 0 0 0
222 1 18.457499999999996 0.7104295062378334 1.677 0 0 0
255 1 18.4575 2.1312885187135002 1.677 0 0 0
257 1 19.688 2.841718024951337 1.677 0 0 0
259 1 19.688 0.0 1.677 0 0 0
261 1 20.918499999999998 0.7104295062378405 1.677 0 0 0
294 1 20.918499999999998 2.1312885187135002 1.677 0 0 0
296 1 22.149 2.8417180249513407 1.677 0 0 0
298 1 22.148999999999997 0.0 1.677 0 0 0
300 1 23.3795 0.7104295062378405 1.677 0 0 0
333 1 23.3795 2.1312885187135002 1.677 0 0 0
335 1 24.61 2.841718024951337 1.677 0 0 0
337 1 24.61 0.0 1.677 0 0 0
339 1 25.8405 0.710429506237837 1.677 0 0 0
372 1 25.8405 2.1312885187135002 1.677 0 0 0
995 1 27.070999999999998 2.841718024951337 1.677 0 0 0
997 1 27.070999999999998 0.0 1.677 0 0 0
999 1 28.301499999999997 0.710429506237837 1.677 0 0 0
1006 1 28.301499999999997 2.1312885187134967 1.677 0 0 0
1008 1 29.531999999999996 2.841718024951337 1.677 0 0 0
1010 1 29.531999999999996 0.0 1.677 0 0 0
1012 1 30.762499999999996 0.710429506237837 1.677 0 0 0
1027 1 30.762499999999996 2.1312885187135002 1.677 0 0 0
1029 1 31.993 2.841718024951337 1.677 0 0 0
1031 1 31.993 0.0 1.677 0 0 0
1033 1 33.2235 0.710429506237837 1.677 0 0 0
1056 1 33.2235 2.1312885187135002 1.677 0 0 0
1058 1 34.45399999999999 2.841718024951337 1.677 0 0 0
1060 1 34.454 0.0 1.677 0 0 0
1062 1 35.6845 0.7104295062378405 1.677 0 0 0
1093 1 35.6845 2.1312885187135002 1.677 0 0 0
1095 1 36.915 2.8417180249513407 1.677 0 0 0
1097 1 36.915 0.0 1.677 0 0 0
1099 1 38.1455 0.710429506237837 1.677 0 0 0
1132 1 38.1455 2.1312885187135002 1.677 0 0 0
6 1 0.0 7.104295062378334 1.677 0 0 0
8 1 0.0 4.262577037427 1.677 0 0 0
10 1 1.2305000000000001 4.973006543664834 1.677 0 0 0
25 1 1.2305 6.393865556140499 1.677 0 0 0
27 1 2.461 7.104295062378334 1.677 0 0 0
29 1 2.461 4.262577037427 1.677 0 0 0
31 1 3.6914999999999996 4.973006543664834 1.677 0 0 0
54 1 3.6914999999999996 6.393865556140499 1.677 0 0 0
56 1 4.922 7.104295062378334 1.677 0 0 0
58 1 4.922 4.262577037426999 1.677 0 0 0
60 1 6.1525 4.973006543664834 1.677 0 0 0
91 1 6.1525 6.393865556140499 1.677 0 0 0
93 1 7.383 7.104295062378334 1.677 0 0 0
95 1 7.382999999999999 4.262577037427 1.677 0 0 0
97 1 8.6135 4.973006543664834 1.677 0 0 0
130 1 8.6135 6.3938655561405 1.677 0 0 0
132 1 9.844 7.104295062378334 1.677 0 0 0
134 1 9.844 4.2625770374270004 1.677 0 0 0
136 1 11.074499999999999 4.973006543664834 1.677 0 0 0
169 1 11.074499999999999 6.393865556140499 1.677 0 0 0
171 1 12.305 7.104295062378334 1.677 0 0 0
173 1 12.305 4.262577037426999 1.677 0 0 0
175 1 13.535499999999999 4.973006543664834 1.677 0 0 0
208 1 13.535499999999999 6.393865556140499 1.677 0 0 0
210 1 14.765999999999998 7.104295062378332 1.677 0 0 0
212 1 14.766 4.262577037426999 1.677 0 0 0
214 1 15.996499999999997 4.973006543664834 1.677 0 0 0
247 1 15.9965 6.393865556140499 1.677 0 0 0
249 1 17.227 7.104295062378338 1.677 0 0 0
251 1 17.226999999999997 4.2625770374270004 1.677 0 0 0
253 1 18.4575 4.973006543664837 1.677 0 0 0
286 1 18.457499999999996 6.393865556140501 1.677 0 0 0
288 1 19.688000000000002 7.104295062378338 1.677 0 0 0
290 1 19.688 4.2625770374270004 1.677 0 0 0
292 1 20.9185 4.973006543664837 1.677 0 0 0
325 1 20.9185 6.393865556140501 1.677 0 0 0
327 1 22.149 7.104295062378334 1.677 0 0 0
329 1 22.149 4.2625770374270004 1.677 0 0 0
331 1 23.3795 4.973006543664837 1.677 0 0 0
364 1 23.3795 6.393865556140501 1.677 0 0 0
366 1 24.61 7.104295062378338 1.677 0 0 0
368 1 24.61 4.2625770374270004 1.677 0 0 0
370 1 25.8405 4.973006543664837 1.677 0 0 0
398 1 25.8405 6.393865556140497 1.677 0 0 0
1000 1 27.070999999999998 7.104295062378338 1.677 0 0 0
1002 1 27.070999999999998 4.262577037426997 1.677 0 0 0
1004 1 28.301499999999997 4.973006543664837 1.677 0 0 0
1019 1 28.301499999999997 6.393865556140497 1.677 0 0 0
1021 1 29.532 7.104295062378338 1.677 0 0 0
1023 1 29.531999999999996 4.262577037426997 1.677 0 0 0
1025 1 30.7625 4.973006543664837 1.677 0 0 0
1048 1 30.7625 6.393865556140497 1.677 0 0 0
1050 1 31.993 7.104295062378338 1.677 0 0 0
1052 1 31.993 4.2625770374270004 1.677 0 0 0
1054 1 33.2235 4.973006543664837 1.677 0 0 0
1085 1 33.2235 6.393865556140501 1.677 0 0 0
1087 1 34.45399999999999 7.104295062378338 1.677 0 0 0
1089 1 34.454 4.2625770374270004 1.677 0 0 0
1091 1 35.6845 4.973006543664837 1.677 0 0 0
1124 1 35.6845 6.393865556140501 1.677 0 0 0
1126 1 36.91499999999999 7.104295062378334 1.677 0 0 0
1128 1 36.915 4.2625770374270004 1.677 0 0 0
1130 1 38.1455 4.973006543664837 1.677 0 0 0
1265 1 38.1455 6.393865556140497 1.677 0 0 0
19 1 0.0 11.366872099805333 1.677 0 0 0
21 1 0.0 8.525154074854 1.677 0 0 0
23 1 1.2304999999999997 9.235583581091834 1.677 0 0 0
46 1 1.2304999999999997 10.656442593567498 1.677 0 0 0
48 1 2.461 11.366872099805335 1.677 0 0 0
50 1 2.4609999999999994 8.525154074854 1.677 0 0 0
52 1 3.6915 9.235583581091834 1.677 0 0 0
83 1 3.6914999999999996 10.6564425935675 1.677 0 0 0
85 1 4.922 11.366872099805333 1.677 0 0 0
87 1 4.922 8.525154074854 1.677 0 0 0
89 1 6.1525 9.235583581091834 1.677 0 0 0
122 1 6.1525 10.6564425935675 1.677 0 0 0
124 1 7.382999999999999 11.366872099805335 1.677 0 0 0
126 1 7.383 8.525154074854 1.677 0 0 0
128 1 8.613499999999998 9.235583581091834 1.677 0 0 0
161 1 8.613499999999998 10.656442593567498 1.677 0 0 0
163 1 9.844 11.366872099805335 1.677 0 0 0
165 1 9.844 8.525154074853997 1.677 0 0 0
167 1 11.074499999999999 9.235583581091834 1.677 0 0 0
200 1 11.0745 10.656442593567498 1.677 0 0 0
202 1 12.304999999999998 11.366872099805333 1.677 0 0 0
204 1 12.305 8.525154074854 1.677 0 0 0
206 1 13.535499999999999 9.235583581091833 1.677 0 0 0
239 1 13.535499999999999 10.6564425935675 1.677 0 0 0
241 1 14.765999999999998 11.366872099805336 1.677 0 0 0
243 1 14.765999999999998 8.525154074854 1.677 0 0 0
245 1 15.9965 9.235583581091836 1.677 0 0 0
278 1 15.996499999999997 10.6564425935675 1.677 0 0 0
280 1 17.227 11.366872099805336 1.677 0 0 0
282 1 17.226999999999997 8.525154074854 1.677 0 0 0
284 1 18.4575 9.235583581091838 1.677 0 0 0
317 1 18.4575 10.6564425935675 1.677 0 0 0
319 1 19.688 11.366872099805335 1.677 0 0 0
321 1 19.688 8.525154074854001 1.677 0 0 0
323 1 20.9185 9.235583581091834 1.677 0 0 0
356 1 20.918499999999998 10.656442593567501 1.677 0 0 0
358 1 22.149 11.366872099805335 1.677 0 0 0
360 1 22.149 8.525154074854001 1.677 0 0 0
362 1 23.3795 9.235583581091834 1.677 0 0 0
390 1 23.3795 10.656442593567498 1.677 0 0 0
392 1 24.61 11.366872099805335 1.677 0 0 0
394 1 24.61 8.525154074853997 1.677 0 0 0
396 1 25.8405 9.235583581091838 1.677 0 0 0
416 1 25.8405 10.656442593567498 1.677 0 0 0
1013 1 27.070999999999998 11.366872099805338 1.677 0 0 0
1015 1 27.070999999999998 8.525154074853997 1.677 0 0 0
1017 1 28.301499999999997 9.235583581091838 1.677 0 0 0
1040 1 28.301499999999997 10.656442593567498 1.677 0 0 0
1042 1 29.531999999999996 11.366872099805338 1.677 0 0 0
1044 1 29.532 8.525154074853997 1.677 0 0 0
1046 1 30.7625 9.235583581091838 1.677 0 0 0
1077 1 30.7625 10.656442593567498 1.677 0 0 0
1079 1 31.993 11.366872099805338 1.677 0 0 0
1081 1 31.993 8.525154074853997 1.677 0 0 0
1083 1 33.2235 9.235583581091838 1.677 0 0 0
1116 1 33.2235 10.656442593567498 1.677 0 0 0
1118 1 34.45399999999999 11.366872099805335 1.677 0 0 0
1120 1 34.45399999999999 8.525154074854001 1.677 0 0 0
1122 1 35.6845 9.235583581091834 1.677 0 0 0
1273 1 35.6845 10.656442593567498 1.677 0 0 0
1247 1 38.1455 10.656442593567501 1.677 0 0 0
1267 1 38.1455 9.235583581091838 1.677 0 0 0
1269 1 36.915 8.525154074853997 1.677 0 0 0
1271 1 36.91499999999999 11.366872099805338 1.677 0 0 0
42 1 0.0 12.787731112280998 1.677 0 0 0
44 1 1.2305000000000001 13.498160618518833 1.677 0 0 0
75 1 1.2305000000000001 14.919019630994498 1.677 0 0 0
79 1 2.461 12.787731112280998 1.677 0 0 0
81 1 3.6915 13.498160618518833 1.677 0 0 0
114 1 3.6915 14.919019630994498 1.677 0 0 0
118 1 4.922 12.787731112281 1.677 0 0 0
120 1 6.152499999999999 13.498160618518833 1.677 0 0 0
153 1 6.152499999999999 14.919019630994498 1.677 0 0 0
157 1 7.382999999999999 12.787731112280998 1.677 0 0 0
159 1 8.6135 13.498160618518835 1.677 0 0 0
192 1 8.6135 14.919019630994498 1.677 0 0 0
196 1 9.844 12.787731112280998 1.677 0 0 0
198 1 11.074499999999999 13.498160618518833 1.677 0 0 0
231 1 11.074499999999999 14.919019630994498 1.677 0 0 0
235 1 12.305 12.787731112280998 1.677 0 0 0
237 1 13.535499999999999 13.498160618518837 1.677 0 0 0
270 1 13.535499999999999 14.919019630994498 1.677 0 0 0
274 1 14.765999999999998 12.787731112281 1.677 0 0 0
276 1 15.996500000000001 13.498160618518837 1.677 0 0 0
309 1 15.9965 14.9190196309945 1.677 0 0 0
313 1 17.227 12.787731112281 1.677 0 0 0
315 1 18.4575 13.498160618518833 1.677 0 0 0
348 1 18.4575 14.9190196309945 1.677 0 0 0
352 1 19.688 12.787731112281 1.677 0 0 0
354 1 20.9185 13.498160618518835 1.677 0 0 0
382 1 20.918499999999998 14.919019630994496 1.677 0 0 0
386 1 22.148999999999997 12.787731112280998 1.677 0 0 0
388 1 23.3795 13.498160618518835 1.677 0 0 0
408 1 23.3795 14.919019630994498 1.677 0 0 0
412 1 24.61 12.787731112280998 1.677 0 0 0
414 1 25.8405 13.498160618518835 1.677 0 0 0
426 1 25.8405 14.919019630994498 1.677 0 0 0
1036 1 27.070999999999998 12.787731112280998 1.677 0 0 0
1038 1 28.301499999999997 13.498160618518838 1.677 0 0 0
1069 1 28.301499999999997 14.919019630994498 1.677 0 0 0
1073 1 29.531999999999996 12.787731112280998 1.677 0 0 0
1075 1 30.762499999999996 13.498160618518838 1.677 0 0 0
1108 1 30.762499999999996 14.919019630994498 1.677 0 0 0
1112 1 31.993 12.787731112280998 1.677 0 0 0
1114 1 33.2235 13.498160618518835 1.677 0 0 0
1255 1 35.6845 14.919019630994498 1.677 0 0 0
1275 1 35.6845 13.498160618518838 1.677 0 0 0
1277 1 34.45399999999999 12.787731112280994 1.677 0 0 0
1281 1 33.2235 14.919019630994494 1.677 0 0 0
1237 1 38.1455 14.919019630994498 1.677 0 0 0
1249 1 38.1455 13.498160618518835 1.677 0 0 0
1251 1 36.91499999999999 12.787731112281001 1.677 0 0 0
40 1 0.0 15.629449137232333 1.677 0 0 0
71 1 0.0 17.050308149708 1.677 0 0 0
73 1 1.2305000000000001 17.76073765594583 1.677 0 0 0
77 1 2.4610000000000003 15.629449137232331 1.677 0 0 0
110 1 2.4610000000000003 17.050308149708 1.677 0 0 0
112 1 3.6914999999999996 17.76073765594583 1.677 0 0 0
116 1 4.921999999999999 15.629449137232333 1.677 0 0 0
149 1 4.921999999999999 17.050308149708 1.677 0 0 0
151 1 6.1525 17.76073765594583 1.677 0 0 0
155 1 7.382999999999999 15.629449137232333 1.677 0 0 0
188 1 7.383 17.050308149708 1.677 0 0 0
190 1 8.613499999999998 17.76073765594583 1.677 0 0 0
194 1 9.844 15.629449137232331 1.677 0 0 0
227 1 9.844 17.050308149708 1.677 0 0 0
229 1 11.0745 17.760737655945835 1.677 0 0 0
233 1 12.305 15.629449137232337 1.677 0 0 0
266 1 12.304999999999998 17.050308149708 1.677 0 0 0
268 1 13.5355 17.760737655945835 1.677 0 0 0
272 1 14.766 15.629449137232337 1.677 0 0 0
305 1 14.766 17.050308149708 1.677 0 0 0
307 1 15.9965 17.76073765594583 1.677 0 0 0
311 1 17.227 15.629449137232333 1.677 0 0 0
344 1 17.226999999999997 17.050308149708002 1.677 0 0 0
346 1 18.4575 17.76073765594583 1.677 0 0 0
350 1 19.688000000000002 15.629449137232333 1.677 0 0 0
378 1 19.688 17.050308149707995 1.677 0 0 0
380 1 20.9185 17.76073765594583 1.677 0 0 0
384 1 22.149 15.629449137232335 1.677 0 0 0
404 1 22.149 17.050308149707995 1.677 0 0 0
406 1 23.3795 17.760737655945835 1.677 0 0 0
410 1 24.61 15.629449137232335 1.677 0 0 0
422 1 24.61 17.050308149708 1.677 0 0 0
424 1 25.8405 17.760737655945835 1.677 0 0 0
1034 1 27.070999999999998 15.629449137232335 1.677 0 0 0
1065 1 27.070999999999998 17.050308149708 1.677 0 0 0
1067 1 28.301499999999997 17.760737655945835 1.677 0 0 0
1071 1 29.531999999999996 15.629449137232339 1.677 0 0 0
1104 1 29.531999999999996 17.050308149708 1.677 0 0 0
1106 1 30.762499999999996 17.760737655945835 1.677 0 0 0
1110 1 31.992999999999995 15.629449137232335 1.677 0 0 0
1285 1 31.992999999999995 17.050308149707995 1.677 0 0 0
1257 1 35.6845 17.760737655945835 1.677 0 0 0
1259 1 34.45399999999999 17.050308149708 1.677 0 0 0
1279 1 34.45399999999999 15.629449137232339 1.677 0 0 0
1283 1 33.223499999999994 17.76073765594584 1.677 0 0 0
1239 1 38.1455 17.76073765594584 1.677 0 0 0
1241 1 36.915 17.050308149707995 1.677 0 0 0
1253 1 36.915 15.629449137232335 1.677 0 0 0
69 1 0.0 19.892026174659332 1.677 0 0 0
106 1 1.2305000000000001 19.1815966684215 1.677 0 0 0
108 1 2.4609999999999994 19.892026174659332 1.677 0 0 0
799 1 0.0 21.312885187135 1.677 0 0 0
801 1 1.2304999999999993 22.023314693372832 1.677 0 0 0
811 1 2.4609999999999994 21.312885187134995 1.677 0 0 0
145 1 3.6914999999999996 19.1815966684215 1.677 0 0 0
147 1 4.922 19.892026174659332 1.677 0 0 0
184 1 6.1525 19.1815966684215 1.677 0 0 0
813 1 3.6914999999999996 22.023314693372832 1.677 0 0 0
823 1 4.922000000000001 21.312885187134995 1.677 0 0 0
825 1 6.152499999999999 22.023314693372832 1.677 0 0 0
186 1 7.382999999999999 19.892026174659332 1.677 0 0 0
223 1 8.6135 19.1815966684215 1.677 0 0 0
225 1 9.844 19.892026174659335 1.677 0 0 0
835 1 7.382999999999999 21.312885187135 1.677 0 0 0
837 1 8.6135 22.023314693372836 1.677 0 0 0
847 1 9.844 21.312885187135 1.677 0 0 0
262 1 11.074499999999999 19.1815966684215 1.677 0 0 0
264 1 12.305000000000001 19.892026174659335 1.677 0 0 0
301 1 13.535499999999999 19.1815966684215 1.677 0 0 0
849 1 11.0745 22.023314693372836 1.677 0 0 0
859 1 12.305 21.312885187135 1.677 0 0 0
861 1 13.5355 22.023314693372832 1.677 0 0 0
303 1 14.766 19.892026174659332 1.677 0 0 0
340 1 15.9965 19.1815966684215 1.677 0 0 0
342 1 17.227 19.892026174659335 1.677 0 0 0
871 1 14.765999999999998 21.312885187135 1.677 0 0 0
873 1 15.996500000000001 22.023314693372832 1.677 0 0 0
883 1 17.226999999999997 21.312885187134995 1.677 0 0 0
374 1 18.457499999999996 19.1815966684215 1.677 0 0 0
376 1 19.688 19.892026174659335 1.677 0 0 0
400 1 20.918499999999998 19.1815966684215 1.677 0 0 0
885 1 18.4575 22.023314693372832 1.677 0 0 0
895 1 19.688 21.312885187134995 1.677 0 0 0
897 1 20.9185 22.023314693372832 1.677 0 0 0
402 1 22.149 19.892026174659335 1.677 0 0 0
418 1 23.3795 19.1815966684215 1.677 0 0 0
420 1 24.61 19.892026174659335 1.677 0 0 0
907 1 22.149 21.312885187134995 1.677 0 0 0
909 1 23.3795 22.023314693372832 1.677 0 0 0
986 1 24.61 21.312885187134995 1.677 0 0 0
428 1 25.8405 19.1815966684215 1.677 0 0 0
984 1 25.8405 22.023314693372836 1.677 0 0 0
1063 1 27.070999999999998 19.892026174659335 1.677 0 0 0
1100 1 28.301499999999997 19.1815966684215 1.677 0 0 0
1292 1 27.070999999999998 21.312885187135 1.677 0 0 0
1294 1 28.301499999999997 22.023314693372832 1.677 0 0 0
1102 1 29.531999999999996 19.892026174659332 1.677 0 0 0
1287 1 31.992999999999995 19.89202617465934 1.677 0 0 0
1289 1 30.762499999999996 19.181596668421495 1.677 0 0 0
1304 1 29.531999999999996 21.312885187134995 1.677 0 0 0
1306 1 30.762499999999996 22.023314693372836 1.677 0 0 0
1316 1 31.992999999999995 21.312885187135 1.677 0 0 0
1245 1 35.6845 19.181596668421495 1.677 0 0 0
1261 1 34.454 19.892026174659335 1.677 0 0 0
1263 1 33.223499999999994 19.1815966684215 1.677 0 0 0
1318 1 33.2235 22.023314693372836 1.677 0 0 0
1328 1 34.454 21.312885187134995 1.677 0 0 0
1330 1 35.6845 22.02331469337284 1.677 0 0 0
1235 1 38.1455 19.1815966684215 1.677 0 0 0
1243 1 36.915 19.89202617465934 1.677 0 0 0
1340 1 36.915 21.312885187135 1.677 0 0 0
1342 1 38.1455 22.023314693372836 1.677 0 0 0
797 1 0.0 24.154603212086332 1.677 0 0 0
803 1 0.0 25.575462224561996 1.677 0 0 0
805 1 1.2305000000000001 26.285891730799833 1.677 0 0 0
807 1 1.2304999999999993 23.4441737058485 1.677 0 0 0
809 1 2.4609999999999994 24.154603212086332 1.677 0 0 0
815 1 2.4610000000000003 25.575462224561996 1.677 0 0 0
817 1 3.6914999999999987 26.285891730799833 1.677 0 0 0
819 1 3.6915000000000004 23.4441737058485 1.677 0 0 0
821 1 4.921999999999999 24.154603212086332 1.677 0 0 0
827 1 4.922 25.575462224561996 1.677 0 0 0
829 1 6.1525 26.285891730799836 1.677 0 0 0
831 1 6.1525 23.4441737058485 1.677 0 0 0
833 1 7.383 24.154603212086336 1.677 0 0 0
839 1 7.382999999999999 25.575462224561996 1.677 0 0 0
841 1 8.613500000000002 26.285891730799836 1.677 0 0 0
843 1 8.613499999999998 23.4441737058485 1.677 0 0 0
845 1 9.844000000000001 24.154603212086336 1.677 0 0 0
851 1 9.844 25.575462224562 1.677 0 0 0
853 1 11.0745 26.285891730799833 1.677 0 0 0
855 1 11.0745 23.4441737058485 1.677 0 0 0
857 1 12.305 24.154603212086332 1.677 0 0 0
863 1 12.305 25.575462224562 1.677 0 0 0
865 1 13.5355 26.285891730799833 1.677 0 0 0
867 1 13.535499999999999 23.4441737058485 1.677 0 0 0
869 1 14.766000000000002 24.154603212086332 1.677 0 0 0
875 1 14.765999999999998 25.575462224561996 1.677 0 0 0
877 1 15.996500000000001 26.285891730799833 1.677 0 0 0
879 1 15.996499999999997 23.444173705848495 1.677 0 0 0
881 1 17.227 24.154603212086332 1.677 0 0 0
887 1 17.227 25.575462224561996 1.677 0 0 0
889 1 18.457500000000003 26.285891730799833 1.677 0 0 0
891 1 18.4575 23.444173705848495 1.677 0 0 0
893 1 19.688000000000002 24.154603212086336 1.677 0 0 0
899 1 19.688 25.575462224561996 1.677 0 0 0
901 1 20.9185 26.285891730799833 1.677 0 0 0
903 1 20.9185 23.4441737058485 1.677 0 0 0
905 1 22.149 24.154603212086336 1.677 0 0 0
982 1 24.61 25.575462224561996 1.677 0 0 0
988 1 24.61 24.154603212086336 1.677 0 0 0
990 1 23.3795 23.4441737058485 1.677 0 0 0
992 1 23.3795 26.285891730799833 1.677 0 0 0
994 1 22.149 25.575462224561996 1.677 0 0 0
978 1 25.8405 23.4441737058485 1.677 0 0 0
980 1 25.8405 26.285891730799833 1.677 0 0 0
1290 1 27.070999999999998 24.154603212086332 1.677 0 0 0
1296 1 27.070999999999998 25.575462224561996 1.677 0 0 0
1298 1 28.301499999999997 26.285891730799836 1.677 0 0 0
1300 1 28.301499999999997 23.444173705848495 1.677 0 0 0
1302 1 29.531999999999996 24.154603212086336 1.677 0 0 0
1308 1 29.531999999999996 25.575462224562 1.677 0 0 0
1310 1 30.762500000000003 26.285891730799833 1.677 0 0 0
1312 1 30.762499999999996 23.4441737058485 1.677 0 0 0
1314 1 31.993000000000002 24.154603212086332 1.677 0 0 0
1320 1 31.993000000000002 25.575462224561996 1.677 0 0 0
1322 1 33.2235 26.285891730799836 1.677 0 0 0
1324 1 33.2235 23.444173705848495 1.677 0 0 0
1326 1 34.454 24.15460321208634 1.677 0 0 0
1332 1 34.454 25.575462224562 1.677 0 0 0
1334 1 35.6845 26.285891730799836 1.677 0 0 0
1336 1 35.6845 23.4441737058485 1.677 0 0 0
1338 1 36.915 24.154603212086336 1.677 0 0 0
1344 1 36.915 25.575462224561996 1.677 0 0 0
1346 1 38.1455 26.28589173079984 1.677 0 0 0
1348 1 38.1455 23.444173705848495 1.677 0 0 0
2 1 0.0 1.420859012475665 5.031000000000001 0 0 0
4 1 0.0 0.0 5.031000000000001 0 0 0
11 1 1.2305 3.552147531189165 5.031000000000001 0 0 0
13 1 1.2305 2.1312885187135 5.031000000000001 0 0 0
15 1 2.461 1.420859012475665 5.031000000000001 0 0 0
17 1 2.461 0.0 5.031000000000001 0 0 0
32 1 3.6914999999999996 3.552147531189165 5.031000000000001 0 0 0
34 1 3.6914999999999996 2.1312885187135 5.031000000000001 0 0 0
36 1 4.922 1.420859012475665 5.031000000000001 0 0 0
38 1 4.922 0.0 5.031000000000001 0 0 0
61 1 6.1525 3.5521475311891653 5.031000000000001 0 0 0
63 1 6.1525 2.1312885187134993 5.031000000000001 0 0 0
65 1 7.382999999999999 1.420859012475666 5.031000000000001 0 0 0
67 1 7.382999999999999 0.0 5.031000000000001 0 0 0
98 1 8.613499999999998 3.552147531189166 5.031000000000001 0 0 0
100 1 8.613499999999998 2.1312885187135002 5.031000000000001 0 0 0
102 1 9.844 1.420859012475666 5.031000000000001 0 0 0
104 1 9.844 0.0 5.031000000000001 0 0 0
137 1 11.0745 3.5521475311891644 5.031000000000001 0 0 0
139 1 11.0745 2.1312885187135002 5.031000000000001 0 0 0
141 1 12.305 1.420859012475665 5.031000000000001 0 0 0
143 1 12.305 0.0 5.031000000000001 0 0 0
176 1 13.535499999999999 3.5521475311891653 5.031000000000001 0 0 0
178 1 13.535499999999999 2.1312885187134984 5.031000000000001 0 0 0
180 1 14.765999999999998 1.420859012475665 5.031000000000001 0 0 0
182 1 14.765999999999998 0.0 5.031000000000001 0 0 0
215 1 15.996499999999997 3.5521475311891653 5.031000000000001 0 0 0
217 1 15.9965 2.1312885187135002 5.031000000000001 0 0 0
219 1 17.226999999999997 1.420859012475665 5.031000000000001 0 0 0
221 1 17.227 0.0 5.031000000000001 0 0 0
254 1 18.457499999999996 3.5521475311891617 5.031000000000001 0 0 0
256 1 18.4575 2.1312885187135002 5.031000000000001 0 0 0
258 1 19.687999999999995 1.4208590124756633 5.031000000000001 0 0 0
260 1 19.688 0.0 5.031000000000001 0 0 0
293 1 20.918499999999995 3.5521475311891635 5.031000000000001 0 0 0
295 1 20.918499999999998 2.1312885187135002 5.031000000000001 0 0 0
297 1 22.148999999999997 1.4208590124756597 5.031000000000001 0 0 0
299 1 22.148999999999997 0.0 5.031000000000001 0 0 0
332 1 23.3795 3.55214753118916 5.031000000000001 0 0 0
334 1 23.3795 2.1312885187135002 5.031000000000001 0 0 0
336 1 24.61 1.4208590124756597 5.031000000000001 0 0 0
338 1 24.61 0.0 5.031000000000001 0 0 0
371 1 25.8405 3.55214753118916 5.031000000000001 0 0 0
373 1 25.8405 2.1312885187135002 5.031000000000001 0 0 0
996 1 27.070999999999998 1.4208590124756633 5.031000000000001 0 0 0
998 1 27.070999999999998 0.0 5.031000000000001 0 0 0
1005 1 28.301499999999997 3.5521475311891635 5.031000000000001 0 0 0
1007 1 28.301499999999997 2.1312885187134967 5.031000000000001 0 0 0
1009 1 29.531999999999996 1.4208590124756633 5.031000000000001 0 0 0
1011 1 29.531999999999996 0.0 5.031000000000001 0 0 0
1026 1 30.762499999999996 3.5521475311891635 5.031000000000001 0 0 0
1028 1 30.762499999999996 2.1312885187135002 5.031000000000001 0 0 0
1030 1 31.992999999999995 1.4208590124756633 5.031000000000001 0 0 0
1032 1 31.993 0.0 5.031000000000001 0 0 0
1055 1 33.2235 3.55214753118916 5.031000000000001 0 0 0
1057 1 33.2235 2.1312885187135002 5.031000000000001 0 0 0
1059 1 34.454 1.4208590124756597 5.031000000000001 0 0 0
1061 1 34.454 0.0 5.031000000000001 0 0 0
1092 1 35.6845 3.5521475311891635 5.031000000000001 0 0 0
1094 1 35.6845 2.1312885187135002 5.031000000000001 0 0 0
1096 1 36.915 1.4208590124756633 5.031000000000001 0 0 0
1098 1 36.915 0.0 5.031000000000001 0 0 0
1131 1 38.1455 3.55214753118916 5.031000000000001 0 0 0
1133 1 38.1455 2.1312885187135002 5.031000000000001 0 0 0
7 1 0.0 5.683436049902665 5.031000000000001 0 0 0
9 1 0.0 4.262577037427 5.031000000000001 0 0 0
26 1 1.2305 6.393865556140499 5.031000000000001 0 0 0
28 1 2.461 5.683436049902665 5.031000000000001 0 0 0
30 1 2.461 4.262577037427 5.031000000000001 0 0 0
55 1 3.6914999999999996 6.393865556140499 5.031000000000001 0 0 0
57 1 4.922 5.6834360499026655 5.031000000000001 0 0 0
59 1 4.922 4.262577037426999 5.031000000000001 0 0 0
92 1 6.1525 6.393865556140499 5.031000000000001 0 0 0
94 1 7.382999999999999 5.6834360499026655 5.031000000000001 0 0 0
96 1 7.382999999999999 4.262577037427 5.031000000000001 0 0 0
131 1 8.6135 6.3938655561405 5.031000000000001 0 0 0
133 1 9.844 5.683436049902665 5.031000000000001 0 0 0
135 1 9.844 4.2625770374270004 5.031000000000001 0 0 0
170 1 11.074499999999999 6.393865556140499 5.031000000000001 0 0 0
172 1 12.305 5.683436049902665 5.031000000000001 0 0 0
174 1 12.305 4.262577037426999 5.031000000000001 0 0 0
209 1 13.535499999999999 6.393865556140499 5.031000000000001 0 0 0
211 1 14.765999999999998 5.6834360499026655 5.031000000000001 0 0 0
213 1 14.766 4.262577037426999 5.031000000000001 0 0 0
248 1 15.9965 6.393865556140499 5.031000000000001 0 0 0
250 1 17.226999999999997 5.683436049902662 5.031000000000001 0 0 0
252 1 17.226999999999997 4.2625770374270004 5.031000000000001 0 0 0
287 1 18.457499999999996 6.393865556140501 5.031000000000001 0 0 0
289 1 19.687999999999995 5.683436049902662 5.031000000000001 0 0 0
291 1 19.688 4.2625770374270004 5.031000000000001 0 0 0
326 1 20.9185 6.393865556140501 5.031000000000001 0 0 0
328 1 22.148999999999997 5.683436049902664 5.031000000000001 0 0 0
330 1 22.149 4.2625770374270004 5.031000000000001 0 0 0
365 1 23.3795 6.393865556140501 5.031000000000001 0 0 0
367 1 24.61 5.68343604990266 5.031000000000001 0 0 0
369 1 24.61 4.2625770374270004 5.031000000000001 0 0 0
399 1 25.8405 6.393865556140497 5.031000000000001 0 0 0
1001 1 27.070999999999998 5.68343604990266 5.031000000000001 0 0 0
1003 1 27.070999999999998 4.262577037426997 5.031000000000001 0 0 0
1020 1 28.301499999999997 6.393865556140497 5.031000000000001 0 0 0
1022 1 29.531999999999996 5.683436049902664 5.031000000000001 0 0 0
1024 1 29.531999999999996 4.262577037426997 5.031000000000001 0 0 0
1049 1 30.7625 6.393865556140497 5.031000000000001 0 0 0
1051 1 31.993000000000002 5.68343604990266 5.031000000000001 0 0 0
1053 1 31.993 4.2625770374270004 5.031000000000001 0 0 0
1086 1 33.2235 6.393865556140501 5.031000000000001 0 0 0
1088 1 34.454 5.683436049902664 5.031000000000001 0 0 0
1090 1 34.454 4.2625770374270004 5.031000000000001 0 0 0
1125 1 35.6845 6.393865556140501 5.031000000000001 0 0 0
1127 1 36.915 5.68343604990266 5.031000000000001 0 0 0
1129 1 36.915 4.2625770374270004 5.031000000000001 0 0 0
1264 1 38.1455 6.393865556140497 5.031000000000001 0 0 0
20 1 0.0 9.946013087329664 5.031000000000001 0 0 0
22 1 0.0 8.525154074854 5.031000000000001 0 0 0
24 1 1.2304999999999997 7.814724568616164 5.031000000000001 0 0 0
47 1 1.2304999999999997 10.656442593567498 5.031000000000001 0 0 0
49 1 2.4609999999999994 9.946013087329664 5.031000000000001 0 0 0
51 1 2.4609999999999994 8.525154074854 5.031000000000001 0 0 0
53 1 3.6914999999999996 7.814724568616165 5.031000000000001 0 0 0
84 1 3.6914999999999996 10.6564425935675 5.031000000000001 0 0 0
86 1 4.922 9.946013087329666 5.031000000000001 0 0 0
88 1 4.922 8.525154074854 5.031000000000001 0 0 0
90 1 6.1525 7.814724568616166 5.031000000000001 0 0 0
123 1 6.1525 10.6564425935675 5.031000000000001 0 0 0
125 1 7.383 9.946013087329664 5.031000000000001 0 0 0
127 1 7.383 8.525154074854 5.031000000000001 0 0 0
129 1 8.6135 7.814724568616164 5.031000000000001 0 0 0
162 1 8.613499999999998 10.656442593567498 5.031000000000001 0 0 0
164 1 9.844 9.946013087329664 5.031000000000001 0 0 0
166 1 9.844 8.525154074853997 5.031000000000001 0 0 0
168 1 11.0745 7.814724568616165 5.031000000000001 0 0 0
201 1 11.0745 10.656442593567498 5.031000000000001 0 0 0
203 1 12.305 9.946013087329664 5.031000000000001 0 0 0
205 1 12.305 8.525154074854 5.031000000000001 0 0 0
207 1 13.535499999999999 7.814724568616165 5.031000000000001 0 0 0
240 1 13.535499999999999 10.6564425935675 5.031000000000001 0 0 0
242 1 14.765999999999998 9.94601308732966 5.031000000000001 0 0 0
244 1 14.765999999999998 8.525154074854 5.031000000000001 0 0 0
246 1 15.996499999999997 7.814724568616162 5.031000000000001 0 0 0
279 1 15.996499999999997 10.6564425935675 5.031000000000001 0 0 0
281 1 17.226999999999997 9.946013087329662 5.031000000000001 0 0 0
283 1 17.226999999999997 8.525154074854 5.031000000000001 0 0 0
285 1 18.457499999999996 7.814724568616162 5.031000000000001 0 0 0
318 1 18.4575 10.6564425935675 5.031000000000001 0 0 0
320 1 19.688 9.946013087329662 5.031000000000001 0 0 0
322 1 19.688 8.525154074854001 5.031000000000001 0 0 0
324 1 20.918499999999998 7.814724568616162 5.031000000000001 0 0 0
357 1 20.918499999999998 10.656442593567501 5.031000000000001 0 0 0
359 1 22.148999999999997 9.946013087329662 5.031000000000001 0 0 0
361 1 22.149 8.525154074854001 5.031000000000001 0 0 0
363 1 23.379499999999997 7.814724568616164 5.031000000000001 0 0 0
391 1 23.3795 10.656442593567498 5.031000000000001 0 0 0
393 1 24.609999999999996 9.946013087329664 5.031000000000001 0 0 0
395 1 24.61 8.525154074853997 5.031000000000001 0 0 0
397 1 25.8405 7.81472456861616 5.031000000000001 0 0 0
417 1 25.8405 10.656442593567498 5.031000000000001 0 0 0
1014 1 27.070999999999998 9.94601308732966 5.031000000000001 0 0 0
1016 1 27.070999999999998 8.525154074853997 5.031000000000001 0 0 0
1018 1 28.301499999999997 7.81472456861616 5.031000000000001 0 0 0
1041 1 28.301499999999997 10.656442593567498 5.031000000000001 0 0 0
1043 1 29.532 9.946013087329657 5.031000000000001 0 0 0
1045 1 29.532 8.525154074853997 5.031000000000001 0 0 0
1047 1 30.7625 7.81472456861616 5.031000000000001 0 0 0
1078 1 30.7625 10.656442593567498 5.031000000000001 0 0 0
1080 1 31.993 9.946013087329664 5.031000000000001 0 0 0
1082 1 31.993 8.525154074853997 5.031000000000001 0 0 0
1084 1 33.2235 7.814724568616164 5.031000000000001 0 0 0
1117 1 33.2235 10.656442593567498 5.031000000000001 0 0 0
1119 1 34.454 9.94601308732966 5.031000000000001 0 0 0
1121 1 34.45399999999999 8.525154074854001 5.031000000000001 0 0 0