
# Set production fixes - Nose/Hoover
#
fix                 4 water temp/csvr ${START_TEMP} ${END_TEMP} 500.0 928347
fix                 4 water temp/csvr 240 ${END_TEMP} 500.0 928347
fix                 4 water temp/csvr 240 227 500.0 928347


## divide "droplet" into core and surface
#region		core_reg cylinder z 135 135 44.6 20 INF units box
#region		surface_reg cylinder z 135 135 44.6 20 INF units box side out
#group		core dynamic all region core_reg
#group		surface dynamic all region surface_reg

## compute pressure core
#compute        peratom_core core stress/atom NULL
#compute        p_core core reduce sum c_peratom_core[1] c_peratom_core[2] c_peratom_core[3]
#variable       press_core equal -(c_p_core[1]+c_p_core[2]+c_p_core[3])/(3*1249982.5)


## compute pressure surface
#compute        peratom_surf surface stress/atom NULL
#compute        p_surf surface reduce sum c_peratom_surf[1] c_peratom_surf[2] #c_peratom_surf[3]
#variable       press_surf equal -(c_p_surf[1]+c_p_surf[2]+c_p_surf[3])/(3*42395)

## compute total pressure of drop
compute        peratom water stress/atom NULL
compute        p water reduce sum c_peratom[1] c_peratom[2] c_peratom[3]
variable       press equal -(c_p[1]+c_p[2]+c_p[3])/(3*58301)


# compute order parameter
compute        3 all orientorder/atom nnn NULL cutoff 3.5

# compute center of mass of bridge
compute 	4 water com

# Run simulation
thermo_style        custom step c_2 press vol etotal ke pe v_press c_1[4] c_4[*]
thermo              200
dump		     1 water custom 400 ${DIR}/prod.${NAME}.dump id type x y z vx vy vz c_3[*] c_peratom[*]
dump		     1 water custom 400 run_25/prod.${NAME}.dump id type x y z vx vy vz c_3[*] c_peratom[*]
dump		     1 water custom 400 run_25/prod.ibeam_cooling_25.dump id type x y z vx vy vz c_3[*] c_peratom[*]
run                 ${STEPS}
run                 5200000
Neighbor list info ...
  update every 1 steps, delay 0 steps, check yes
  max neighbors/atom: 2000, page size: 100000
  master list distance cutoff = 6.67472
  ghost atom cutoff = 6.67472
  binsize = 3.33736, bins = 48 11 12
  2 neighbor lists, perpetual/occasional/extra = 1 1 0
  (1) pair sw, perpetual
      attributes: full, newton on
      pair build: full/bin/atomonly
      stencil: full/bin/3d
      bin: standard
  (2) compute orientorder/atom, occasional, copy from (1)
      attributes: full, newton on
      pair build: copy
      stencil: none
      bin: none
Per MPI rank memory allocation (min/avg/max) = 0.8538 | 6.017 | 7.258 Mbytes
Step c_2 Press Volume TotEng KinEng PotEng v_press c_1[4] c_4[1] c_4[2] c_4[3] 
       0    242.13886   -399.74699    229018.04   -21140.098    1603.7728   -22743.871   -1041.0865    35.405246    78.596912    15.902817    29.698055 
     200    239.78142   -451.61266    229018.04   -21192.885    1588.1587   -22781.044    -1267.587    36.566408     78.59833    15.902596      29.6691 
     400    234.44147   -393.60977    229018.04   -21167.894    1552.7902   -22720.684   -1038.1491    37.988179    78.600734    15.902427     29.69155 
     600    231.37898   -328.57265    229018.04   -21260.096    1532.5063   -22792.602   -768.10238    38.815075    78.599365    15.900714    29.688979 
     800     234.1098   -242.82089    229018.04   -21227.776    1550.5935   -22778.369   -481.43966    39.935157    78.597703     15.89696    29.684982 
    1000    238.86778   -323.33906    229018.04   -21124.622    1582.1073   -22706.729   -744.90888    40.749865    78.597105    15.895416    29.677119 
    1200    231.87773   -283.97373    229018.04   -21220.551    1535.8097   -22756.361   -591.44765    42.384348    78.596041    15.894536    29.674444 
    1400    247.07099   -279.08005    229018.04   -21030.039    1636.4401   -22666.479   -620.07877    44.519565    78.594765    15.893261    29.663974 
    1600    247.47427   -298.78291    229018.04   -21056.162    1639.1112   -22695.273   -676.24775    46.687717     78.59468    15.893811    29.670221 
    1800    239.85864   -381.66734    229018.04   -21077.279    1588.6701   -22665.949   -1023.0261    48.198202    78.592871    15.896361    29.673517 
    2000    244.92694     -353.052    229018.04   -20958.967    1622.2393   -22581.206   -886.51573    50.022239    78.593661    15.895492    29.672442 
    2200    241.35776   -352.94713    229018.04   -20995.215    1598.5993   -22593.815   -847.20085    51.571282    78.594553    15.892412    29.678618 
    2400    240.59143   -334.33351    229018.04   -21057.474    1593.5237   -22650.998   -850.23109    54.181466    78.593556    15.895029    29.668262 
    2600    242.61066   -338.36511    229018.04   -21103.849    1606.8977   -22710.747   -837.09912    56.047314    78.593931    15.895168    29.684715 
    2800     236.7184   -241.16142    229018.04    -21062.11    1567.8711   -22629.981    -502.0536    57.487271    78.592679    15.894243    29.715328 
    3000    233.42592   -238.59777    229018.04   -21142.919    1546.0639   -22688.983    -432.8446    59.619156    78.594752    15.895424    29.713176 
    3200    230.31086   -226.47491    229018.04   -21126.836    1525.4317   -22652.268   -364.32036    62.293003    78.596552    15.897285    29.715204 
    3400    239.97819   -382.23748    229018.04   -21102.648     1589.462   -22692.109   -1035.3344    64.909708    78.598458    15.897348    29.713088 
    3600    241.88209   -274.41671    229018.04   -21108.061    1602.0722   -22710.133   -583.99944    67.374694    78.599243    15.900298    29.702834 
    3800     241.6134   -359.41816    229018.04    -21104.97    1600.2925   -22705.263   -915.81891    68.454043    78.597944    15.897986     29.71844 
    4000     246.8719   -362.16666    229018.04   -21157.312    1635.1214   -22792.434   -903.02419    70.261378    78.595851    15.901171    29.691213 
    4200    244.21385   -277.66252    229018.04   -21068.113    1617.5162   -22685.629    -582.3248    71.501968    78.594783    15.900336      29.6721 
    4400    249.44779   -347.56485    229018.04   -21042.647    1652.1825    -22694.83    -900.3787    72.644729    78.595682    15.898895    29.680203 
    4600     243.6484   -211.61139    229018.04   -21111.642    1613.7711   -22725.413   -325.29752    72.928028    78.595374    15.896507     29.68345 
    4800    239.44589   -390.00105    229018.04   -21034.544    1585.9363    -22620.48   -1033.1791    74.508727    78.597602    15.893187    29.692727 
    5000    233.09414   -367.19509    229018.04   -21087.917    1543.8664   -22631.784   -963.11841    76.962816    78.598542    15.891016    29.672543 
    5200    236.97197   -164.85888    229018.04    -21091.16    1569.5507   -22660.711   -128.13386    78.525231    78.598254     15.88636    29.682433 
    5400    241.70577    -457.8702    229018.04    -21115.24    1600.9043   -22716.144   -1292.8739    79.595647    78.598357    15.887196    29.683865 
    5600    226.27141    -422.6986    229018.04   -21178.818     1498.677   -22677.495   -1152.5134    81.871972    78.599318    15.885762    29.655963 
    5800    249.50251   -191.19341    229018.04   -20991.404    1652.5449   -22643.949   -268.24586    82.674444     78.60092    15.886207    29.649318 
    6000    236.23988   -159.46276    229018.04   -21151.323    1564.7018   -22716.025   -147.72266    84.969394     78.60226    15.886018    29.657938 
    6200    233.00944   -263.25723    229018.04   -21079.405    1543.3054    -22622.71   -597.32082    86.741791    78.602651    15.885345    29.632949 
    6400    243.42977   -267.20682    229018.04   -21052.436     1612.323   -22664.759   -577.94083    88.498056    78.602541    15.884389    29.626196 
    6600    238.89327   -126.91876    229018.04   -21162.793    1582.2761   -22745.069   -11.872315     89.32546    78.606339    15.884363    29.614438 
    6800    238.89249   -410.61934    229018.04   -21139.986    1582.2709   -22722.256   -1109.0544    90.651863    78.607007    15.881567    29.588474 
    7000     230.2792   -413.60919    229018.04   -21182.061     1525.222   -22707.283   -1093.7904    91.399581    78.608948    15.877585    29.570208 
    7200    241.99116   -402.47171    229018.04   -21072.701    1602.7945   -22675.495   -1141.7676    93.074579    78.610159     15.87696     29.56228 
    7400    232.99979   -278.52172    229018.04   -21158.046    1543.2415   -22701.287   -577.49014    93.572286    78.610303    15.876877    29.553492 
    7600    235.08737   -338.04988    229018.04   -21184.134    1557.0683   -22741.202   -824.42242    93.704914    78.610038    15.876764    29.548118 
    7800    239.94074   -350.13992    229018.04   -21075.531    1589.2139   -22664.745   -882.98236    94.821659    78.610727    15.879992    29.524003 
    8000     244.7294   -283.43507    229018.04    -21058.83    1620.9309   -22679.761   -609.54447    96.741721    78.612357    15.882293    29.525621 
    8200    236.36399   -420.36034    229018.04   -21165.044    1565.5238   -22730.567   -1113.8024    98.557922    78.612067    15.881012     29.52881 
    8400    231.92203   -382.72878    229018.04   -21167.133    1536.1031   -22703.236   -1010.9886     100.4149    78.614026    15.882165    29.537622 
    8600    242.95843   -337.31279    229018.04   -21098.303    1609.2011   -22707.504   -841.91606    100.77454    78.613987    15.881426    29.548301 
    8800    240.82179   -246.17083    229018.04   -21133.246    1595.0494   -22728.296   -437.92888    101.22292    78.614895    15.880777    29.557666 
    9000     241.9981    -299.8926    229018.04   -21106.269    1602.8405   -22709.109   -659.12239    102.03139    78.614151    15.881145    29.509588 
    9200      238.399   -455.32444    229018.04   -21121.941    1579.0024   -22700.944   -1287.2322    103.45212    78.613636    15.881997    29.515859 
    9400    238.49641   -301.44383    229018.04   -21188.941    1579.6476   -22768.589   -683.81295    104.33336    78.612187    15.883861    29.499272 
    9600    232.43428   -390.79319    229018.04   -21225.057    1539.4959   -22764.552   -1071.4663    106.29077    78.611851    15.886454    29.499803 
    9800    243.78436   -342.94788    229018.04   -21175.538    1614.6716    -22790.21   -836.35118    108.04581    78.612208    15.888576    29.479337 
   10000    246.57942   -320.34106    229018.04   -21031.982    1633.1843   -22665.166   -762.62101    109.22084    78.611463     15.88904    29.462475 
   10200    243.85813   -203.80491    229018.04    -21075.41    1615.1601    -22690.57   -310.72745    111.31834    78.611942    15.889588    29.463483 
   10400    235.31918   -455.63325    229018.04    -21078.28    1558.6036   -22636.884   -1271.7231    113.05799    78.610781    15.887334    29.470596 
   10600    247.59843   -100.68524    229018.04    -21032.48    1639.9335   -22672.414     86.74464     113.2578    78.609378    15.887227    29.480142 
   10800    242.21299   -177.18468    229018.04   -21060.767    1604.2638   -22665.031   -230.55083    113.84523    78.609361    15.886427    29.493743 
   11000     236.7984   -206.38925    229018.04   -21072.855    1568.4011   -22641.256   -367.95039    115.20546    78.611284    15.886677    29.503535 
   11200    242.89863    -400.2702    229018.04   -21065.616     1608.805   -22674.421   -1046.2957     116.3089    78.611271    15.887869    29.502755 
   11400    233.82027    -208.4906    229018.04   -21078.759    1548.6758   -22627.434   -365.79766     116.6663    78.613394    15.890428    29.507195 
   11600    242.94157   -320.22168    229018.04   -21035.507    1609.0895   -22644.596   -720.19607    118.85048    78.613831    15.893872    29.473923 
   11800    236.76766     -312.477    229018.04   -21067.045    1568.1975   -22635.242   -721.85699    119.60795    78.615511    15.892422    29.465413 
   12000     240.2516   -163.03827    229018.04   -21018.851    1591.2728   -22610.124    -142.6107     121.4616    78.615832    15.892538    29.480769 
   12200    235.62439   -280.35038    229018.04   -21039.932    1560.6251   -22600.557   -634.01638    123.79489    78.615652    15.894227    29.489273 
   12400      247.906   -393.55219    229018.04   -20975.529    1641.9707     -22617.5   -1042.5105    124.52686    78.616422    15.894491    29.494532 
   12600    240.41004   -286.37149    229018.04   -20995.602    1592.3222   -22587.924   -610.76696    124.60525    78.616339    15.893918    29.488451 
   12800    237.37987   -190.19422    229018.04   -21113.614    1572.2523   -22685.866   -252.44168    125.24157    78.615834    15.894249    29.506522 
   13000     234.0511   -312.83396    229018.04   -21148.476    1550.2046   -22698.681   -692.10783    127.11821    78.614771    15.894668     29.48238 
   13200     237.3295    -280.8862    229018.04   -21075.817    1571.9187   -22647.736   -626.41448    128.18629    78.614849    15.897068    29.477192 
   13400    243.56992   -298.18824    229018.04   -21020.432    1613.2513   -22633.683   -660.47995    129.91895    78.615764    15.897483    29.480594 
   13600    243.02031    52.416879    229018.04   -21056.057     1609.611   -22665.668    730.06007    131.38643    78.616963    15.898166    29.484148 
   13800    233.55548   -304.23761    229018.04    -21120.85     1546.922   -22667.772   -717.91667    132.81898    78.617859    15.898016    29.504925 
   14000    248.82354   -319.62135    229018.04   -21128.287    1648.0479   -22776.335   -769.84054    134.76803    78.617066    15.897555    29.501487 
   14200    237.60671   -165.39752    229018.04   -21216.715    1573.7548    -22790.47   -182.11814    135.59692    78.617873    15.896453    29.511481 
   14400    233.41047   -218.46165    229018.04   -21241.597    1545.9616   -22787.558   -383.95083      136.753    78.619066    15.896477    29.508828 
   14600    237.05629   -374.75196    229018.04   -21138.181    1570.1091    -22708.29   -960.36518    137.77637    78.616847    15.896619    29.512807 
   14800    240.58815   -133.94452    229018.04   -21108.408    1593.5019    -22701.91   -18.263923    138.35512    78.617958    15.894024    29.512796 
   15000    245.17029   -187.57148    229018.04   -21087.362     1623.851   -22711.213   -230.20346    139.58875    78.618109    15.892981    29.498154 
   15200    237.31503   -277.19406    229018.04   -21186.915    1571.8229   -22758.738   -618.36014    141.79732    78.618646    15.891661    29.506838 
   15400    240.44858   -311.41873    229018.04   -21122.982    1592.5775   -22715.559   -756.93778    142.48652    78.618727    15.889129    29.518502 
   15600    231.23763   -348.25042    229018.04   -21150.261      1531.57   -22681.831   -910.28416    145.47357    78.617855    15.888963    29.550005 
   15800    245.62507   -287.23936    229018.04   -21023.822    1626.8632   -22650.686   -625.80635    146.49637    78.618213    15.888602    29.555803 
   16000    236.56463   -199.60322    229018.04   -21068.543    1566.8527   -22635.396   -300.87957    147.61635    78.617516    15.888497    29.577796 
   16200    250.48133   -211.97752    229018.04   -21019.032     1659.028    -22678.06   -326.04632    150.21281    78.614883    15.888481    29.564573 
   16400     244.1418   -427.67548    229018.04   -21044.732     1617.039   -22661.771   -1193.1812    152.25739    78.614863     15.88925    29.578212 
   16600    237.85481   -384.37438    229018.04   -21095.034    1575.3981   -22670.432   -1043.0599    154.08661    78.614735    15.888868    29.573536 
   16800    242.27281   -307.19783    229018.04   -21071.153      1604.66   -22675.813   -731.85289    157.18245    78.616364    15.887987    29.558002 
   17000     240.2452   -207.20879    229018.04   -21082.004    1591.2304   -22673.234   -329.98371    158.25629     78.61719    15.883208    29.554572 
   17200    234.67079   -287.52435    229018.04   -21114.617    1554.3091   -22668.927   -645.44183    160.73737    78.617751    15.882966    29.566768 
   17400    239.59929   -369.50185    229018.04   -21083.765    1586.9523   -22670.717   -935.51214    162.46325     78.61811    15.883185     29.57371 
   17600    250.43454   -174.65086    229018.04   -21055.255    1658.7181   -22713.973   -198.97346    163.43232    78.618461    15.880718      29.5756 
   17800    243.89355   -291.67843    229018.04   -21083.298    1615.3948   -22698.693     -690.314    164.67059    78.617722    15.880904    29.574903 
   18000    240.36275   -378.61425    229018.04   -21081.008     1592.009   -22673.017   -1016.0709    165.84157    78.619503    15.881603    29.576102 
   18200    245.45483   -253.47531    229018.04    -21128.63    1625.7357   -22754.365   -530.90421    167.39762    78.617523    15.880975      29.5913 
   18400    240.19045   -269.82059    229018.04   -21147.106    1590.8678   -22737.974   -564.76701    167.10066    78.614833     15.88104     29.57811 
   18600    243.72816   -326.35728    229018.04   -21096.418    1614.2993   -22710.717   -771.97949    169.15726    78.614597    15.883075    29.586857 
   18800    237.93809   -351.60318    229018.04   -21102.716    1575.9496   -22678.666   -869.96395    169.53102    78.615235    15.882264    29.602004 
   19000    237.92435   -183.06664    229018.04   -21104.244    1575.8586   -22680.102   -201.19329    170.07092    78.612916    15.882285    29.604287 
   19200    232.54374   -265.89413    229018.04   -21080.532    1540.2209   -22620.753   -534.30596    171.94062     78.61268    15.880776    29.622906 
   19400    243.52485   -350.93113    229018.04   -21033.944    1612.9527   -22646.896   -913.79421    172.96581    78.611309    15.880752    29.626081 
   19600    239.92133   -314.02812    229018.04   -21064.731    1589.0853   -22653.817   -750.20525    174.97124    78.613419    15.881426    29.609504 
   19800    243.45338   -238.69708    229018.04   -21070.062    1612.4794   -22682.541   -417.72314    175.97178    78.615611    15.878659    29.621511 
   20000    237.07041   -261.52731    229018.04    -21089.56    1570.2027   -22659.762   -519.15099    176.83043     78.61855    15.875412    29.640811 
   20200    239.49413   -343.56327    229018.04   -21105.399    1586.2559   -22691.655   -854.81855     178.2642    78.618741    15.875858    29.663933 
   20400    234.37549    -178.9785    229018.04   -21202.921    1552.3532   -22755.274   -184.45988    178.20165    78.617881     15.87698    29.665912 
   20600    234.22059   -311.35731    229018.04   -21154.541    1551.3273   -22705.869   -758.39454    180.95501    78.617291    15.879928    29.681782 
   20800    235.18679   -283.99826    229018.04   -21157.359    1557.7267   -22715.086   -627.06362    182.82537    78.616103    15.879216    29.654909 
   21000    237.31248   -266.30748    229018.04   -21152.785     1571.806   -22724.591   -563.10603    182.72509    78.614906    15.877721    29.654029 
   21200    247.20836   -145.60629    229018.04   -21078.554    1637.3499   -22715.904   -71.844836    183.29389    78.614277    15.880107    29.666636 
   21400     237.6169   -272.48355    229018.04   -21174.435    1573.8223   -22748.257   -555.79727    183.97552    78.615279    15.880789    29.662269 
   21600     241.8597   -222.32411    229018.04   -21084.444    1601.9239   -22686.368   -386.37826      184.587    78.612703    15.881252    29.648953 
   21800     239.0836   -306.00918    229018.04   -21055.026    1583.5367   -22638.563   -714.64308    187.11405    78.614074    15.883608    29.649367 
   22000    246.18508   -353.98497    229018.04   -21088.401    1630.5724   -22718.973   -952.61551    190.43926    78.613303    15.885463    29.649491 
   22200    242.19774   -313.96094    229018.04   -21073.594    1604.1628   -22677.757   -771.95847    192.01256    78.615612    15.884979    29.640525 
   22400    243.59033   -368.59236    229018.04   -21117.407    1613.3865   -22730.794   -947.62102    193.26782    78.615584    15.886544    29.632685 
   22600    235.55497   -98.707466    229018.04   -21124.288    1560.1653   -22684.453    101.23175    193.68295    78.614392    15.889845    29.630399 
   22800    237.04289   -359.05134    229018.04   -21106.337    1570.0204   -22676.358   -878.23097     194.9202    78.612978    15.891699    29.607155 
   23000    235.97364   -418.82275    229018.04   -21160.159    1562.9383   -22723.098   -1171.8465    197.06605    78.610054    15.892518    29.623033 
   23200    242.50052   -292.58878    229018.04   -21189.273    1606.1682   -22795.442   -626.91272    197.97952    78.608391     15.89419    29.632687 
   23400    238.40828   -201.22644    229018.04   -21096.754    1579.0638   -22675.817   -290.86852    198.82837    78.607468    15.896316    29.646394 
   23600    236.53392   -326.71528    229018.04   -21200.959    1566.6493   -22767.609   -779.62212    199.44207     78.60952    15.895821     29.66121 
   23800    238.69777   -518.33393    229018.04   -21206.274    1580.9813   -22787.256   -1547.0775    200.59506    78.610898    15.896317    29.659642 
   24000    239.25467   -261.07635    229018.04   -21096.656    1584.6698   -22681.326    -502.7531    201.43561    78.610913    15.894835    29.666133 
   24200    236.33881   -274.33663    229018.04   -21107.609     1565.357   -22672.966   -584.03187    201.76751    78.611872    15.896412    29.683002 
   24400    238.30862    -235.5359    229018.04   -21042.258    1578.4038   -22620.662   -418.91596    204.40757     78.61313    15.897481    29.696384 
   24600    237.15431   -360.99656    229018.04   -21142.338    1570.7583   -22713.097   -924.09065    205.26021    78.613977    15.900133    29.705915 
   24800    237.73914   -54.385777    229018.04   -21107.554    1574.6319   -22682.186    276.53155    205.80018    78.612578    15.900117    29.684395 
   25000    245.59103    -357.0131    229018.04   -21064.018    1626.6378   -22690.656   -898.64682    208.81335    78.612463    15.897839    29.655063 
   25200    243.76534   -353.18257    229018.04   -21021.005    1614.5456    -22635.55   -896.43022    209.10908    78.613424    15.897676     29.65508 
   25400     235.6835   -273.44753    229018.04   -21079.296    1561.0167   -22640.313   -604.51833    211.41539    78.613304    15.895879    29.646036 
   25600    237.01542   -256.17277    229018.04   -21029.244    1569.8384   -22599.082   -497.87853    211.96079    78.614403    15.895695    29.638543 
   25800    240.93242   -337.59828    229018.04   -21059.926    1595.7821   -22655.708   -826.54315    211.97017     78.61421    15.897359    29.624022 
   26000    240.27323    -208.6042    229018.04   -21124.491    1591.4161   -22715.907   -329.58985    213.06673    78.611941    15.898588    29.631233 
   26200     236.4634   -359.33037    229018.04   -21070.604    1566.1822   -22636.787   -930.98478    213.48551    78.612592    15.899639    29.629169 
   26400    235.63857   -300.87506    229018.04   -21157.742     1560.719   -22718.461   -692.63354    215.26602    78.612997    15.900876    29.653016 
   26600    241.99135   -359.77611    229018.04   -21109.184    1602.7958    -22711.98   -909.81117    216.58014    78.612488     15.89756     29.65047 
   26800    239.16283   -501.57569    229018.04   -21076.138    1584.0615     -22660.2   -1476.4185    218.76574    78.611258    15.895259     29.66382 
   27000    241.92464   -202.59326    229018.04   -21123.991     1602.354   -22726.345   -294.14837    219.18971    78.611259    15.891837    29.653129 
   27200    245.84283   -303.43695    229018.04   -21045.079    1628.3056   -22673.385    -689.8158    220.95026    78.611752     15.89119    29.675836 
   27400    242.07058   -450.66105    229018.04   -21119.264    1603.3206   -22722.585   -1264.5351    222.05015    78.610826    15.888982    29.683086 
   27600    236.00853   -317.24785    229018.04   -21157.341    1563.1694    -22720.51   -729.02344    223.44116    78.611422    15.887964    29.674593 
   27800    232.05613   -291.70832    229018.04   -21257.654    1536.9913   -22794.646   -649.82802    223.48045    78.612041     15.88796    29.669985 
   28000    233.34997   -433.92599    229018.04   -21145.561    1545.5608   -22691.122    -1217.978    225.33928    78.614346     15.88745     29.66643 
   28200    240.38978   -221.89111    229018.04   -21063.603    1592.1881   -22655.791   -358.73354    226.28558       78.615    15.887459      29.6767 
   28400    247.93511    -229.5247    229018.04   -20997.153    1642.1635   -22639.316   -415.22595    228.50872    78.616975    15.887238    29.672914 
   28600    245.81217   -352.51414    229018.04   -21023.188    1628.1025   -22651.291   -861.06522     229.0074     78.61523    15.887025    29.672115 
   28800     237.3413   -398.45745    229018.04   -21123.686    1571.9968   -22695.683   -1076.9204    228.95375      78.6162    15.886681    29.663069 
   29000    236.65763   -368.76731    229018.04   -21082.724    1567.4687   -22650.192   -1000.4597    231.49739    78.616348     15.88772    29.659315 
   29200    242.89045   -201.90713    229018.04   -21109.134    1608.7509   -22717.884   -320.48124    231.07302    78.616622    15.887988    29.651122 
   29400    246.40604   -403.04731    229018.04   -21102.243    1632.0359   -22734.279   -1098.5589    233.48295    78.616926    15.887319    29.643143 
   29600    239.72854   -89.787649    229018.04   -21124.356    1587.8084   -22712.164    132.95146    234.73038    78.616446    15.889097    29.662933 
   29800    245.90318   -323.02295    229018.04   -21093.106    1628.7053   -22721.811   -778.17304    236.19153    78.615218    15.889231    29.649585 
   30000    236.69162   -284.70795    229018.04   -21118.672    1567.6938   -22686.366   -603.73273     237.8414     78.61533    15.890367    29.639106 
   30200    234.90964   -285.12422    229018.04   -21121.293    1555.8911   -22677.184    -600.1563     237.8561    78.615685    15.888324    29.651293 
   30400    237.18844   -171.17074    229018.04   -21146.945    1570.9844    -22717.93   -160.89941    239.88957    78.614189      15.8877    29.639783 
   30600    231.40902   -93.242959    229018.04   -21189.994    1532.7053     -22722.7    117.90099    241.11319    78.613506    15.886996     29.65027 
   30800    237.57935   -284.06393    229018.04   -21115.008    1573.5736   -22688.582   -584.47624    244.64352    78.611887     15.88623    29.664191 
   31000    245.46557   -210.03537    229018.04   -21108.365    1625.8068   -22734.172   -355.28388    246.47239    78.612347    15.883461    29.653165 
   31200    244.60299   -264.77325    229018.04   -21046.683    1620.0936   -22666.776   -558.22962    248.15417    78.611051    15.882662    29.678749 
   31400    240.58281   -257.49306    229018.04    -21047.77    1593.4665   -22641.236   -511.07901     251.6796    78.611192    15.883662     29.68409 
   31600    246.36371   -232.94293    229018.04   -21029.152    1631.7555   -22660.908   -435.72997    253.96623    78.613016    15.885188    29.696578 
   31800     240.0794   -365.10021    229018.04   -21094.152    1590.1323   -22684.284    -927.4552    255.42529    78.613284    15.883336    29.691694 
   32000    244.67236   -154.86196    229018.04   -21090.979    1620.5531   -22711.532   -132.20392    254.73466    78.614982     15.88408    29.712267 
   32200    236.91076   -251.73739    229018.04   -21154.289    1569.1452   -22723.434   -477.73782    254.72167    78.614878    15.883993    29.709097 
   32400    234.67937   -411.99723    229018.04   -21145.558    1554.3659   -22699.924   -1162.2523    256.53547    78.616448    15.883976    29.721467 
   32600    231.73442   -386.99155    229018.04   -21094.198    1534.8605   -22629.058   -1017.8895    257.40065    78.616823    15.883373    29.707991 
   32800     232.9424   -284.16201    229018.04   -21049.562    1542.8613   -22592.423   -620.50897    260.17405    78.616985    15.884579    29.711814 
   33000    241.34716   -213.10486    229018.04   -21041.371    1598.5291     -22639.9    -335.0543    261.00558    78.616109    15.885834    29.714895 
   33200    239.07246   -307.36388    229018.04   -21052.271    1583.4629   -22635.734   -731.78486    263.73684    78.614769    15.888242    29.720241 
   33400    241.66031   -300.87518    229018.04   -21040.061    1600.6032   -22640.665   -663.19489    265.95809    78.614921    15.889601    29.707452 
   33600    235.92064   -342.88599    229018.04   -21132.337    1562.5873   -22694.924    -846.7856    268.87058    78.614685    15.891765    29.705226 
   33800    236.33229    -300.0968    229018.04   -21057.456    1565.3138    -22622.77   -674.61072    270.13716    78.617082    15.892947    29.713477 
   34000    236.87145   -250.73986    229018.04   -21117.348    1568.8849   -22686.232   -458.51112    271.17902    78.617342    15.892504    29.685432 
   34200    243.06995   -343.13765    229018.04   -21129.976    1609.9398   -22739.916   -828.96568    271.07199    78.616332    15.890823    29.681079 
   34400    244.84825   -325.68127    229018.04   -21128.153    1621.7181   -22749.871   -777.58858    272.83304    78.615808    15.891255    29.701823 
   34600    241.80242   -426.61364    229018.04    -21115.46    1601.5445   -22717.004   -1237.5595    274.77109    78.614035    15.893672    29.717449 
   34800    240.33652   -294.79466    229018.04   -21117.973    1591.8353   -22709.809   -626.57905    276.28229    78.613418     15.89557    29.715268 
   35000    238.52035   -199.34564    229018.04   -21117.897    1579.8061   -22697.704   -298.53957    278.56861    78.614735    15.895029    29.689487 
   35200    237.44551   -256.75008    229018.04    -21126.65    1572.6871   -22699.337   -519.24342    279.62867    78.613923    15.894188    29.697113 
   35400    242.48682   -323.84189    229018.04   -21032.319    1606.0775   -22638.396    -747.6799    281.76315    78.617322    15.892512     29.70896 
   35600    238.46926   -345.14647    229018.04   -21129.354    1579.4677   -22708.822   -864.11739    282.20361    78.617287    15.891926    29.720362 
   35800    240.65073   -249.70077    229018.04   -21069.481    1593.9164   -22663.397   -479.18795    283.58314    78.618095    15.891622    29.702835 
   36000    241.00968   -168.44351    229018.04   -21152.189    1596.2939   -22748.483   -203.32066    284.78118    78.617585    15.893414    29.728375 
   36200     234.7401   -172.01793    229018.04    -21160.11    1554.7682   -22714.878   -112.66785    284.91003    78.615977    15.893598    29.732565 
   36400    234.85576   -448.23749    229018.04   -21119.633    1555.5342   -22675.168   -1273.7297    288.83701    78.614452    15.895033    29.731977 
   36600     235.4103   -327.67572    229018.04   -21186.782    1559.2072    -22745.99    -803.2742    288.67851    78.613651    15.893708    29.727661 
   36800    230.20161   -251.68186    229018.04   -21189.119    1524.7081   -22713.827    -494.7674    288.90069    78.612613     15.89358     29.73552 
   37000    243.84529   -72.109945    229018.04   -21171.942    1615.0751   -22787.017    190.87426    289.68922    78.612959    15.894105    29.739796 
   37200    236.88971   -388.80761    229018.04   -21279.542    1569.0058   -22848.547    -1035.621    293.34206    78.612404     15.89379    29.738167 
   37400    236.45845   -210.39621    229018.04   -21229.015    1566.1495   -22795.165   -353.73867    293.36216     78.61212    15.893066    29.740512 
   37600    237.32613   -306.37487    229018.04   -21151.935    1571.8964   -22723.832    -709.6615    294.68583    78.611441    15.891251    29.735108 
   37800    234.05273   -241.90128    229018.04   -21187.458    1550.2154   -22737.673   -479.59269    296.39883    78.611048    15.891236    29.746081 
   38000    245.23771   -286.52762    229018.04   -21134.529    1624.2976   -22758.827    -610.2711    296.31783    78.610651    15.891934    29.753323 
   38200    233.62176   -332.54583    229018.04   -21122.911     1547.361   -22670.272    -822.1673    297.82703    78.610861    15.892338    29.765581 
   38400    242.59133   -314.62832    229018.04   -21113.231    1606.7697   -22720.001   -767.17027    299.00489    78.610943    15.892393    29.777428 
   38600    239.11965   -321.18262    229018.04   -21102.839    1583.7755   -22686.614   -732.13541    300.17826    78.611082    15.892101    29.778537 
   38800    240.23507   -291.09008    229018.04   -21096.232    1591.1634   -22687.396   -602.92931     300.7608    78.612256    15.890964    29.777197 
   39000    243.44242   -332.88843    229018.04   -21103.393    1612.4068   -22715.799    -827.4886    302.98776    78.613254    15.891277    29.767765 
   39200    238.00057   -238.78503    229018.04   -21179.564    1576.3634   -22755.928    -481.5701    304.77258    78.614014    15.891448    29.770222 
   39400    239.08445   -282.87274    229018.04   -21134.543    1583.5423   -22718.085   -636.55945    305.61394    78.614379    15.893214    29.795364 
   39600    243.17761   -450.96389    229018.04   -21118.896    1610.6528   -22729.549   -1270.8822    307.29595    78.615451    15.892999    29.791454 
   39800    244.34504   -322.68584    229018.04   -20957.806    1618.3852   -22576.191   -774.27413    306.37042       78.617    15.891571     29.79234 
   40000     237.6282   -312.21905    229018.04   -21142.112    1573.8971   -22716.009   -736.10256    307.94608    78.615982    15.889292    29.825511 
   40200    229.65286   -272.53652    229018.04   -21204.236    1521.0735    -22725.31   -580.72076    309.65159    78.616942    15.887838    29.811583 
   40400    240.25814   -289.75255    229018.04   -21048.565    1591.3161   -22639.881   -624.62234    310.57226    78.615905     15.88858    29.828998 
   40600    238.69202   -311.97928    229018.04       -21164    1580.9432   -22744.943   -742.78308    311.34342     78.61541    15.888789    29.808976 
   40800     230.5161   -252.94803    229018.04   -21130.498    1526.7911   -22657.289   -528.06225      313.646    78.616566    15.888489    29.794336 
   41000    245.76355    -228.2208    229018.04   -21063.402    1627.7805   -22691.182   -381.12821    314.03779    78.619109    15.889073     29.79419 
   41200    240.06391   -268.44962    229018.04   -21051.098    1590.0297   -22641.127   -555.61687    315.64894    78.619046    15.886685    29.799724 
   41400    241.33096   -306.48505    229018.04   -21073.554    1598.4218   -22671.976    -679.2147    315.20601    78.617827    15.885876     29.79465 
   41600     240.8226   -359.23753    229018.04   -20982.437    1595.0548   -22577.492   -914.40357    317.56283    78.616341    15.885346    29.776363 
   41800     241.1456   -401.77188    229018.04   -21050.485    1597.1941   -22647.679   -1079.2822    320.22046    78.618009    15.884564    29.747755 
   42000    241.10636   -372.44128    229018.04   -21107.163    1596.9342   -22704.097   -946.57181    319.99298    78.619907    15.884226    29.756559 
   42200    236.87275   -366.03968    229018.04   -21112.618    1568.8935   -22681.512   -910.42559    320.96931    78.619295    15.885317    29.767805 
   42400    241.79938   -94.633136    229018.04   -21113.333    1601.5243   -22714.858    115.60594    321.19012     78.61961    15.885696    29.759557 
   42600    237.16461   -348.68353    229018.04    -21147.28    1570.8266   -22718.107   -849.44041    321.82659    78.622404    15.885404    29.761205 
   42800     247.4431   -265.37167    229018.04   -21013.413    1638.9047   -22652.318   -549.48374    322.85357    78.623081    15.887323    29.761887 
   43000    246.54882   -458.32996    229018.04   -20955.724    1632.9816   -22588.706   -1250.0845    324.05441    78.623405    15.887559    29.763836 
   43200    242.69474   -520.56116    229018.04   -21010.521    1607.4546   -22617.976   -1537.7584    325.69698    78.623079    15.888834    29.769032 
   43400    241.86065    -323.5042    229018.04   -21079.207    1601.9301   -22681.137   -777.23384    327.09642    78.623052    15.890654    29.745404 
   43600    235.81274   -337.39529    229018.04   -21114.352    1561.8727   -22676.224   -851.10125    327.84967    78.622092    15.890572    29.733467 
   43800    239.02647    -277.4382    229018.04   -21068.221    1583.1583   -22651.379   -555.46533    328.01196    78.623195    15.892782    29.724268 
   44000     235.5023   -430.51179    229018.04   -21131.911    1559.8165   -22691.727   -1185.6484    329.74266    78.622212      15.8927    29.741592 
   44200    240.44039    -465.8484    229018.04   -21097.205    1592.5233   -22689.728   -1317.6679     332.2567    78.621149    15.894597     29.74031 
   44400    249.13884   -267.16754    229018.04   -21102.252    1650.1362   -22752.388   -538.34106    333.35297    78.620321    15.898378    29.734938 
   44600    243.20578   -417.06224    229018.04    -21116.05    1610.8394   -22726.889   -1154.0244    334.50513     78.62028    15.896472      29.7215 
   44800    237.65848   -346.40611    229018.04   -21131.811    1574.0977   -22705.909   -836.14826     335.5309    78.620958     15.89418     29.70938 
   45000    237.41462   -507.89253    229018.04   -21162.427    1572.4825   -22734.909   -1503.7219    336.42223    78.619445    15.892893    29.678926 
   45200    250.20404    -165.8716    229018.04   -21020.901    1657.1914   -22678.093   -141.42306    337.20945    78.619869    15.893901     29.67131 
   45400    242.07482   -356.77428    229018.04   -20946.443    1603.3487   -22549.792   -896.60403     338.5417    78.621169    15.891376     29.65021 
   45600    248.40234   -278.39269    229018.04   -20974.503    1645.2581   -22619.761   -633.46219    340.16601    78.622576    15.890277    29.660896 
   45800    239.16604   -227.13209    229018.04   -21088.462    1584.0828   -22672.545   -403.51866    339.97638     78.62093    15.888244    29.687976 
   46000     236.1985   -374.53742    229018.04   -21114.363    1564.4277    -22678.79   -969.25558    342.26893    78.622514    15.889172    29.704982 
   46200    243.90912   -163.65683    229018.04   -21084.097    1615.4979   -22699.594   -159.87008     343.2983    78.622957    15.890775    29.676446 
   46400    243.30924   -253.94157    229018.04   -21083.065    1611.5247    -22694.59   -535.05129    345.79187    78.621764    15.888175    29.676654 
   46600    238.34892   -282.84907    229018.04   -21110.272    1578.6707   -22688.943   -618.70618    346.67665     78.62295    15.885858    29.684996 
   46800    237.81593   -318.62219    229018.04   -21034.187    1575.1405   -22609.327   -774.77471    350.36738     78.62487    15.886831    29.695341 
   47000    246.50464   -258.79375    229018.04   -20980.996     1632.689   -22613.685   -522.47705    354.45773    78.623968     15.89072    29.704496 
   47200    244.68803   -100.84008    229018.04   -21054.797    1620.6569   -22675.454    99.864443    356.18887    78.624031    15.891022    29.695255 
   47400    233.41487   -217.90948    229018.04   -21096.805    1545.9907   -22642.796   -325.46064    357.38248    78.623349      15.8932    29.703465 
   47600    242.79099   -174.65405    229018.04   -21040.769    1608.0921   -22648.861   -220.37011    355.66797    78.622436    15.891856    29.704969 
   47800    246.78287   -241.62509    229018.04   -21051.338    1634.5318    -22685.87   -439.11755    355.20578    78.622321    15.891173    29.693025 
   48000    248.13946   -364.82401    229018.04   -21099.825    1643.5169   -22743.342   -949.18262    356.33009    78.622818    15.889764     29.66142 
   48200    237.83691   -274.13202    229018.04   -21094.245    1575.2795   -22669.525   -588.73806    356.31802    78.624813      15.8889    29.640411 
   48400    237.32843   -202.08693    229018.04   -21114.983    1571.9116   -22686.895   -299.64498    355.94482    78.627041    15.887644    29.628788 
   48600     245.3805    -274.1216    229018.04   -21057.047    1625.2434    -22682.29   -590.54965    356.86519    78.625173    15.887124    29.612368 
   48800    234.15848    -309.2336    229018.04    -21000.73    1550.9159   -22551.646   -703.95573    358.65125    78.625247    15.888914    29.581828 
   49000     238.5642   -259.75705    229018.04   -21042.602    1580.0966   -22622.699   -550.60753    361.18768    78.624586     15.88765    29.596047 
   49200    242.39572   -340.11436    229018.04   -21029.816    1605.4741    -22635.29   -839.75556    362.85312    78.624095    15.887324    29.588617 
   49400    243.51702   -270.22702    229018.04   -21009.878    1612.9009   -22622.779   -583.20966    364.42967    78.623245    15.888101    29.595543 
   49600    242.30885    -290.7027    229018.04   -21026.456    1604.8987   -22631.355   -691.97768    366.53606     78.62132    15.886312    29.584377 
   49800    238.95259   -237.80713    229018.04   -21107.897     1582.669   -22690.566   -424.69992    367.85797    78.621415    15.883556    29.578259 
   50000    230.24319   -154.69744    229018.04   -21081.556    1524.9835    -22606.54   -107.68383    368.05827    78.620859    15.883915    29.598287 
   50200    235.83832   -335.24739    229018.04   -21070.499    1562.0421   -22632.541   -837.41392    370.01528    78.621403    15.886397    29.605867 
   50400    241.42165   -364.12777    229018.04    -21060.38    1599.0225   -22659.402   -898.25535    372.31289     78.62074    15.886324    29.588125 
   50600    231.35911   -279.57607    229018.04   -21092.604    1532.3747   -22624.979   -609.79147    374.87131    78.619752    15.884042    29.582077 
   50800    235.29157   -262.67938    229018.04   -21108.421    1558.4208   -22666.842   -542.32699    376.18224    78.620035    15.883008    29.568828 
   51000    236.20135   -194.82268    229018.04   -21072.483    1564.4465   -22636.929   -249.02772     375.1622    78.621827    15.880099    29.573526 
   51200    234.91298   -383.96225    229018.04   -21060.302    1555.9132   -22616.215   -1014.2517    377.42835    78.621986    15.880444    29.569316 
   51400    235.62058   -314.79227    229018.04   -21119.328    1560.5999   -22679.928   -743.00119    378.10086    78.622188    15.882525    29.580632 
   51600    233.28198    -239.8252    229018.04   -21079.443    1545.1105   -22624.554   -435.78133    379.93137    78.622305    15.880318    29.579739 
   51800    240.23635   -157.85042    229018.04   -21049.677    1591.1718   -22640.849   -161.53059    383.82896    78.623863    15.878247    29.581875 
   52000    245.80036   -327.85611    229018.04   -21050.042    1628.0242   -22678.066   -799.08888    386.04348    78.624529    15.879288    29.576243 
   52200    242.69855   -134.93308    229018.04   -21054.722    1607.4798   -22662.201   -72.180356    387.53523    78.624069    15.878655    29.577992 
   52400    240.74414   -212.34982    229018.04   -21079.127    1594.5351   -22673.662   -349.15638    388.72732    78.624602    15.880033    29.573859 
   52600    238.89394   -304.11701    229018.04     -21054.7    1582.2805   -22636.981   -708.92214    391.02125    78.623293     15.87767    29.579119 
   52800    232.94279   -385.68351    229018.04   -21154.818     1542.864   -22697.682   -1066.9242    392.40356    78.625291    15.876828    29.582975 
   53000    240.86857   -272.06782    229018.04   -21122.325    1595.3593   -22717.684   -577.67967     391.9057    78.624477    15.876386    29.595088 
   53200    243.02319   -436.38994    229018.04   -21097.617    1609.6301   -22707.247   -1231.6581    394.35451    78.624013    15.875036    29.584017 
   53400    240.97106   -184.47346    229018.04   -21094.195    1596.0381   -22690.233    -260.5763    395.91504    78.623669    15.872245     29.59655 
   53600    242.49408   -331.74192    229018.04   -21101.591    1606.1256   -22707.716   -828.20817    397.35963    78.623192    15.872567    29.575699 
   53800    241.73937   -287.45608    229018.04   -21111.943    1601.1268    -22713.07   -681.43823    397.74327    78.623209    15.873425    29.593095 
   54000     241.0704   -329.96755    229018.04   -21014.364     1596.696    -22611.06   -760.66121    398.36302    78.622021    15.874798    29.603333 
   54200    235.42093   -332.60488    229018.04   -21108.162    1559.2776    -22667.44   -812.74423    399.87939    78.621353    15.876497    29.577779 
   54400    238.66857   -124.25842    229018.04   -21183.379    1580.7879   -22764.167    41.303218    401.73508    78.619716    15.876526    29.580744 
   54600    244.30894   -212.82416    229018.04   -21123.957    1618.1461   -22742.103   -334.79327    403.56475    78.619177    15.876353    29.625934 
   54800    244.44923   -223.30581    229018.04   -21070.236    1619.0753   -22689.311   -371.63736    405.33631    78.618628    15.876493    29.599316 
   55000    242.29377    -442.0124    229018.04    -21102.39    1604.7988   -22707.188   -1238.8144     408.0016    78.617742     15.87669    29.573011 
   55200    242.49405   -326.32849    229018.04   -21060.379    1606.1254   -22666.504   -790.89138    408.93051    78.617729    15.876465      29.5906 
   55400    248.07764   -158.42937    229018.04   -21068.856    1643.1075   -22711.964   -184.85885     410.8522    78.616355     15.87754    29.605472 
   55600    241.63561   -399.40353    229018.04   -21063.592    1600.4396   -22664.031   -1059.3844    413.80433    78.614866    15.883015    29.604129 
   55800    239.44334   -358.02414    229018.04   -21118.517    1585.9195   -22704.437   -872.84773    415.03514    78.615063    15.883496    29.591529 
   56000    238.71463   -343.44348    229018.04   -21122.085    1581.0929   -22703.177   -860.28336    414.09881    78.612614    15.884991     29.62582 
   56200    243.92655   -78.178519    229018.04   -21090.689    1615.6133   -22706.303     198.5658    414.12355    78.610783    15.884381    29.638202 
   56400    241.99473   -344.69666    229018.04   -21104.564    1602.8182   -22707.383   -823.09292    416.77553    78.610998    15.887027    29.630711 
   56600     239.1665   -347.02973    229018.04   -21223.723    1584.0858   -22807.809   -845.45831     419.2066    78.609024    15.884399    29.639677 
   56800    238.74226   -48.666207    229018.04   -21202.082    1581.2759   -22783.358    333.05639    421.62462    78.609324    15.885274    29.620522 
   57000    237.04403   -437.68613    229018.04   -21250.274    1570.0279   -22820.302    -1195.251    421.51899    78.606736    15.886735    29.645499 
   57200    237.54487   -202.02015    229018.04   -21232.008    1573.3452   -22805.353   -250.84342    422.02412    78.606356    15.888688    29.671277 
   57400    234.26708    -321.9398    229018.04   -21208.718    1551.6352   -22760.353   -746.40561     424.5733    78.606601    15.890603    29.664907 
   57600    241.09751   -347.48676    229018.04   -21080.765    1596.8756    -22677.64   -814.73449    426.93067    78.606162    15.893107     29.66803 
   57800    238.45654   -259.60588    229018.04   -21103.495    1579.3835   -22682.878   -510.68367    427.92529    78.605775    15.893892    29.701184 
   58000    242.06914   -291.02431    229018.04   -21082.553    1603.3111   -22685.864   -635.07949    429.14389    78.605742    15.894111    29.698357 
   58200    250.93035    -379.7879    229018.04   -21105.161     1662.002   -22767.163   -999.51167     429.8975    78.605946    15.895395    29.721175 
   58400    238.56137   -292.93218    229018.04   -21215.984    1580.0778   -22796.062   -627.65974     429.6569    78.605315    15.895753    29.717979 
   58600    240.59465   -176.86273    229018.04   -21171.885     1593.545    -22765.43   -211.16873    431.11719    78.605857    15.895562    29.722067 
   58800    237.73459   -229.74928    229018.04   -21206.989    1574.6017   -22781.591   -418.85774    432.83115    78.606253    15.893406    29.721118 
   59000    233.46143    -347.8498    229018.04   -21183.141    1546.2991    -22729.44   -889.59282    434.48571    78.604567    15.894482    29.717269 
   59200    241.57878   -233.91646    229018.04   -21215.908    1600.0632   -22815.971   -404.59683    434.27234    78.605326    15.893899    29.700758 
   59400     239.1877   -136.97652    229018.04   -21193.286    1584.2262   -22777.512   -35.841098     432.3142    78.607493    15.891934    29.693338 
   59600    235.76951   -346.92444    229018.04   -21107.468    1561.5864   -22669.054   -841.61294      430.455    78.608813    15.889508    29.682417 
   59800    246.06237   -357.20004    229018.04   -21056.473    1629.7596   -22686.232   -909.19357    431.54203    78.606864     15.88667    29.705797 
   60000    233.04422   -246.90112    229018.04   -21170.914    1543.5358   -22714.449   -468.38171    432.64359    78.609108    15.883556    29.717691 
   60200    235.30017   -227.75601    229018.04   -21092.486    1558.4777   -22650.964   -403.47848    432.83255    78.611334     15.88277    29.716135 
   60400    240.06489   -290.03175    229018.04   -21146.904    1590.0362   -22736.941   -662.86115    431.94159    78.613116    15.884215    29.739017 
   60600    237.40436    -376.5401    229018.04    -21142.93    1572.4145   -22715.344   -997.17737    432.53844    78.613671    15.882257    29.732841 
   60800    237.03361    -106.5027    229018.04   -21175.717    1569.9589   -22745.676    57.920198    431.75618    78.613805    15.881015    29.734595 
   61000    240.04449   -194.67758    229018.04   -21198.624    1589.9011   -22788.525   -263.32259     434.8972     78.61378    15.879388    29.714083 
   61200    231.44967   -349.39035    229018.04   -21270.301    1532.9745   -22803.275   -876.73251    435.62399    78.614452    15.883477    29.713949 
   61400    239.11875   -228.10812    229018.04   -21178.517    1583.7696   -22762.287   -404.75436      437.381    78.614813    15.886436    29.704944 
   61600    232.17628    -196.5366    229018.04   -21118.305    1537.7871   -22656.092   -306.45247    436.36493      78.6138    15.891607    29.703768 
   61800     247.7197   -242.43602    229018.04   -21054.587    1640.7368   -22695.324   -444.69551    436.64615    78.615834    15.894059    29.714165 
   62000    236.81372   -235.28883    229018.04   -21140.941    1568.5025   -22709.444    -459.0553    438.12278    78.617324    15.893169    29.713407 
   62200    237.25939   -147.84489    229018.04   -21078.993    1571.4544   -22650.448   -95.451062    439.43838    78.617049     15.89178    29.707015 
   62400    243.74117   -282.40443    229018.04   -21002.939    1614.3855   -22617.325   -637.02508     440.6445    78.616976    15.888654    29.708766 
   62600    241.74173   -222.19668    229018.04   -21041.543    1601.1425   -22642.685   -394.04755    444.28155    78.617635    15.886249    29.702067 
   62800    243.03199   -114.61338    229018.04   -21077.879    1609.6883   -22687.568    47.667932    445.23691    78.617379    15.885739    29.715678 
   63000    240.71879   -356.05022    229018.04   -21121.086    1594.3672   -22715.453   -920.75293    446.53613    78.615694    15.887126    29.719756 
   63200    236.42856   -139.49647    229018.04   -21236.911    1565.9514   -22802.862   -32.911518    447.21298    78.615222    15.888606    29.717044 
   63400    237.19549   -327.62382    229018.04   -21081.336    1571.0311   -22652.367   -788.48437    450.83392    78.615353    15.888187    29.725101 
   63600    243.00542   -282.94366    229018.04   -21076.546    1609.5124   -22686.059   -591.43332     456.1182    78.615366    15.889213    29.708387 
   63800    236.10596   -381.73113    229018.04   -21073.262    1563.8148   -22637.077   -999.42913    457.66595    78.616533    15.891332    29.707317 
   64000    231.20395   -246.28712    229018.04   -21136.258     1531.347   -22667.605   -510.76588    458.27644    78.616116    15.893174    29.704726 
   64200    247.42877    -252.8667    229018.04    -21125.17    1638.8098    -22763.98   -497.92012    458.61548    78.615248    15.893965    29.716093 
   64400    242.07743   -305.85974    229018.04   -21106.164    1603.3659    -22709.53   -744.41219    459.69566    78.615045    15.894844    29.723479 
   64600    238.84127    -185.2645    229018.04   -21113.767    1581.9317   -22695.699   -228.13274    462.28866    78.614883    15.894271    29.699735 
   64800    242.65405   -217.58959    229018.04   -21044.575    1607.1851    -22651.76   -356.34691    464.10918    78.613896    15.894642    29.710857 
   65000    243.43274   -249.76886    229018.04   -21140.568    1612.3427   -22752.911   -487.77877    465.18303    78.612319    15.895461    29.704788 
   65200    237.83209    -411.3052    229018.04   -21153.894    1575.2475   -22729.142   -1108.3932    468.18958    78.609875    15.897023    29.683256 
   65400    242.34394   -318.23225    229018.04   -21056.993    1605.1312   -22662.125   -775.58421    468.42827     78.61033    15.897522    29.673853 
   65600    243.06807   -303.07071    229018.04    -21039.27    1609.9273   -22649.198   -676.78613    473.75339    78.609885    15.897639    29.668504 
   65800    239.17137   -290.70851    229018.04   -21103.084     1584.118   -22687.202   -652.63516    474.83021    78.609642    15.899597    29.669862 
   66000    234.19505   -349.55192    229018.04   -21111.253    1551.1581   -22662.411   -851.00541    476.48186    78.609759    15.900303    29.679466 
   66200    246.09814   -168.71393    229018.04   -21093.064    1629.9965   -22723.061   -201.30854    476.30191     78.61032    15.900223    29.687613 
   66400    242.12753   -285.97712    229018.04   -21152.841    1603.6978   -22756.538   -644.48106    479.47184    78.610992    15.900939    29.703301 
   66600     242.8492   -451.32644    229018.04   -21137.086    1608.4777   -22745.564   -1247.8354    483.79895    78.611525    15.899171    29.701515 
   66800    236.31362   -434.06606    229018.04   -21187.657    1565.1901   -22752.847   -1223.8747    488.31057    78.609921    15.900603    29.714955 
   67000     236.6855    -233.4802    229018.04   -21152.204    1567.6533   -22719.857   -456.68891    491.23891    78.607961    15.901092    29.720888 
   67200    237.91892   -245.03237    229018.04   -21216.143    1575.8227   -22791.966   -515.18789    492.91742    78.606676    15.900413    29.725545 
   67400     242.7453   -261.20706    229018.04   -21165.984    1607.7895   -22773.773   -561.98808    495.25341    78.608644    15.899835    29.713103 
   67600    238.68941   -275.69288    229018.04   -21192.358    1580.9258   -22773.283   -588.75291     498.0003    78.607998    15.900727    29.704165 
   67800    236.31751   -321.68865    229018.04   -21173.697    1565.2159   -22738.912   -760.19606    498.87409    78.608736    15.900377    29.695659 
   68000    238.99949   -258.64107    229018.04    -21187.35    1582.9797    -22770.33   -556.57408    501.28391    78.609409    15.900191    29.692727 
   68200    236.08263   -370.93087    229018.04   -21224.929    1563.6602   -22788.589   -930.09189    500.63245      78.6098    15.898223    29.697003 
   68400    250.24589   -273.70594    229018.04   -21081.383    1657.4686   -22738.852   -588.68802    500.52962     78.60826    15.900794    29.695026 
   68600    243.09177   -357.49463    229018.04   -21084.793    1610.0843   -22694.877   -911.94644    499.85108    78.608709    15.903388    29.674601 
   68800    246.78944   -103.76554    229018.04   -21062.758    1634.5753   -22697.334    75.162331    498.63758    78.608371    15.903996    29.679846 
   69000    244.06048   -230.96824    229018.04    -21056.76    1616.5004    -22673.26   -430.39517    499.07983     78.60674     15.90818    29.675623 
   69200    243.31489   -257.85165    229018.04   -21119.701    1611.5621   -22731.263    -555.9719    502.47617    78.607886    15.907145    29.678929 
   69400    237.94435   -187.35186    229018.04   -21116.101    1575.9911   -22692.093   -260.85937    504.06894    78.607608    15.905746     29.66827 
   69600    238.36589   -282.34957    229018.04   -21133.205    1578.7831   -22711.988   -601.99658    506.16316    78.607729    15.904291    29.645687 
   69800    236.76659   -271.34905    229018.04   -21105.231    1568.1904   -22673.422    -547.8814    508.29901    78.608564    15.903355    29.649583 
   70000     234.3178   -146.84396    229018.04   -21150.759    1551.9711    -22702.73    -116.1914    509.94803    78.609557    15.902186    29.623856 
   70200    240.88429   -280.77757    229018.04   -21130.485    1595.4634   -22725.948   -606.85981     510.5817    78.611489    15.900111    29.597671 
   70400     234.4225   -192.81043    229018.04   -21141.241    1552.6646   -22693.906   -288.55557    509.28946    78.611298    15.898844     29.60741 
   70600    239.12662   -436.92316    229018.04   -21094.361    1583.8217   -22678.182   -1205.3207    514.34278    78.610561    15.899881    29.604275 
   70800    230.35815   -251.24346    229018.04   -21122.913     1525.745   -22648.658    -521.3364    517.54699    78.608596    15.899699    29.587129 
   71000    240.11153   -278.47939    229018.04    -21077.99    1590.3451   -22668.335    -595.7578    519.74402    78.607555     15.89918    29.582743 
   71200    246.80254   -349.88714    229018.04   -20924.907     1634.662   -22559.569   -847.54229    522.45336    78.602607    15.897952    29.587467 
   71400    241.06524   -420.61922    229018.04   -21015.283    1596.6619   -22611.945   -1181.5589    523.48896     78.59981    15.897674    29.572699 
   71600     241.8325   -156.99212    229018.04    -21058.22    1601.7437   -22659.964   -141.20438    526.56779    78.599584    15.896426    29.563278 
   71800    239.38054   -306.81703    229018.04   -21115.768    1585.5035   -22701.272   -689.96221    529.84324    78.598951    15.896059    29.573801 
   72000     247.6346    -228.9152    229018.04   -21120.652    1640.1731   -22760.825    -401.2263    530.69104    78.599178    15.892836    29.592737 
   72200    240.93094   -504.17483    229018.04   -21128.166    1595.7723   -22723.939   -1494.2787     531.3595     78.59845    15.891066    29.603139 
   72400    240.60622   -417.92716    229018.04   -21058.856    1593.6216   -22652.478   -1139.8002      528.886    78.596665    15.892274    29.604264 
   72600    237.10451   -306.32496    229018.04   -21068.672    1570.4285     -22639.1   -731.98408    528.50952    78.598885    15.891823    29.604929 
   72800    235.09709   -373.10641    229018.04   -21123.325    1557.1326   -22680.458   -957.35261    530.51596     78.59817    15.893545     29.60863 
   73000    234.28115   -341.09515    229018.04   -21146.846    1551.7284   -22698.574   -832.93824    530.64177    78.596029    15.895832    29.621883 
   73200     244.8942   -388.50352    229018.04   -21027.258    1622.0224    -22649.28    -1040.869     533.6128    78.596055    15.897355    29.624038 
   73400    245.40191   -325.12914    229018.04   -21052.464    1625.3852   -22677.849   -800.81563    534.69052    78.596881    15.897546    29.655157 
   73600    240.80158   -307.04615    229018.04   -21106.039    1594.9155   -22700.955   -664.43499    535.49101    78.596987    15.899042    29.656753 
   73800    243.76691   -75.841252    229018.04   -21066.839     1614.556   -22681.395    191.33713    533.61182    78.597047     15.89791    29.642643 
   74000     245.9931   -147.20364    229018.04   -20992.012    1629.3008   -22621.312   -88.448271    536.38786     78.59928     15.89856    29.629766 
   74200    239.53912   -259.82146    229018.04   -21052.095    1586.5538   -22638.649   -532.25246    539.46903     78.60089    15.897146    29.630352 
   74400    239.70686   -249.56249    229018.04   -21085.515    1587.6648    -22673.18   -527.77661    542.12736    78.601407    15.897932    29.614971 
   74600    238.41182   -304.67332    229018.04   -21105.394    1579.0873   -22684.481   -706.31164    546.49359    78.603396    15.898063    29.621061 
   74800    239.81706   -386.96952    229018.04   -21046.269    1588.3947   -22634.664   -1005.2764    552.74817    78.603452    15.898412     29.57348 
   75000    243.60196   -245.36897    229018.04   -21082.876    1613.4635    -22696.34   -457.99533    559.31638    78.602774    15.895895      29.5485 
   75200    242.21883   -273.80567    229018.04   -21070.288    1604.3025   -22674.591   -580.16272    559.89327    78.602041    15.893757    29.558571 
   75400    245.59123   -216.28205    229018.04   -21047.579    1626.6391   -22674.218   -355.64377    560.76118    78.602221    15.892663     29.57744 
   75600    239.06831   -382.64558    229018.04   -21075.672    1583.4355   -22659.107   -990.37852    564.44638     78.60276    15.892428    29.584679 
   75800    239.96117   -345.58024    229018.04   -21053.281    1589.3492   -22642.631    -848.2549    567.42861    78.604419     15.89415    29.586439 
   76000    242.35491   -441.56466    229018.04   -21064.994    1605.2038   -22670.198   -1211.1497     570.5412    78.604145    15.893332     29.58746 
   76200    236.02347   -213.59355    229018.04   -21124.858    1563.2684   -22688.126   -368.53675    569.16997    78.603583    15.893385    29.599813 
   76400    240.79218    -329.3393    229018.04   -21205.336    1594.8533   -22800.189   -795.22191    569.60654    78.603386    15.895207     29.61414 
   76600    238.52431   -261.40807    229018.04   -21154.366    1579.8324   -22734.198   -534.66829    572.67297    78.604984    15.895503     29.62291 
   76800    242.44361   -103.70237    229018.04   -21071.392    1605.7913   -22677.183    68.037767    572.06805    78.605273    15.896454    29.625633 
   77000    237.15943    -333.6394    229018.04   -21167.956    1570.7923   -22738.749   -831.84578    572.71719    78.603314    15.895409    29.621155 
   77200    238.56371   -386.10439    229018.04   -21160.128    1580.0933   -22740.221   -1037.2296    573.42782    78.603952    15.893966    29.632175 
   77400    240.88675   -210.62443    229018.04    -21171.01    1595.4797    -22766.49   -314.82419    572.26717    78.605433    15.894251    29.651581 
   77600    240.09491   -264.36538    229018.04   -21153.726     1590.235   -22743.961   -521.54089    573.49945    78.604619    15.892406    29.652992 
   77800    237.18961   -309.48653    229018.04   -21185.901    1570.9921   -22756.893   -719.19569    574.02304    78.603946    15.894741    29.644922 
   78000    233.30559   -315.54704    229018.04   -21182.151    1545.2669   -22727.418   -725.95669    574.21243    78.603747    15.897918     29.63532 
   78200    237.70005   -356.25341    229018.04   -21085.294     1574.373   -22659.667   -907.77823    576.41336    78.603536    15.900784    29.638938 
   78400    238.99504   -60.982738    229018.04   -21077.848    1582.9501   -22660.798    259.62731    578.16346    78.602416    15.901827    29.638682 
   78600    239.40436   -357.51951    229018.04   -21141.068    1585.6612   -22726.729   -899.21869     583.9703    78.602679    15.900186    29.659731 
   78800    233.57963   -458.52933    229018.04   -21133.269    1547.0819   -22680.351   -1275.3003    587.92508    78.602349    15.900232    29.672728 
   79000    240.41073   -318.62706    229018.04   -21112.811    1592.3268   -22705.138   -746.78843     593.3723    78.601902     15.89653    29.686927 
   79200    238.03896   -307.92494    229018.04    -21077.48    1576.6177   -22654.098   -703.51069    592.63788    78.602945    15.891258     29.68013 
   79400     232.6359   -334.41696    229018.04   -21120.527    1540.8313   -22661.359   -793.75961    590.50044     78.60399    15.890632     29.67924 
   79600    242.26333   -226.56197    229018.04   -21094.209    1604.5972   -22698.806   -378.26999    587.42609    78.605567    15.888631    29.696141 
   79800    236.27223   -415.31888    229018.04   -21077.727    1564.9161   -22642.643   -1103.7453    589.43278    78.608191    15.888972    29.690244 
   80000    240.23535   -172.40031    229018.04   -21115.748    1591.1652   -22706.914   -196.00218     587.8112    78.608576    15.891343    29.659659 
   80200    242.43891   -361.16132    229018.04   -21110.366    1605.7601   -22716.126   -900.44023    589.70056    78.608542    15.890655    29.668575 
   80400    233.04636   -355.67487    229018.04   -21162.726    1543.5499   -22706.276   -894.45715    589.53071    78.608708    15.889732    29.656965 
   80600    242.53282   -363.69026    229018.04   -20974.628    1606.3822    -22581.01   -881.75655    590.79691    78.610083    15.890098    29.635349 
   80800    237.99681   -210.47074    229018.04    -21060.19    1576.3386   -22636.528    -315.3694     592.3067    78.609872    15.890896    29.658202 
   81000     242.6516   -318.51951    229018.04   -20994.352    1607.1689    -22601.52   -749.71789    598.50948    78.608903    15.892944    29.661424 
   81200    239.93778   -194.95549    229018.04   -21011.584    1589.1943   -22600.778   -245.46758    601.12506    78.608767    15.895477    29.647118 
   81400    238.50232   -275.41126    229018.04    -21134.85    1579.6867   -22714.537   -584.06193    603.55369    78.609559    15.895787    29.651548 
   81600    240.55483   -405.99247    229018.04   -21032.521    1593.2812   -22625.802   -1127.5925    603.23342    78.610648    15.894437    29.661471 
   81800     243.5653   -339.98673    229018.04   -21032.105    1613.2206   -22645.326   -844.15744    602.61635    78.612294    15.896544     29.66955 
   82000    244.02069   -258.26258    229018.04   -20996.025    1616.2369   -22612.262   -533.40006    600.00253     78.61017      15.8935    29.678463 
   82200    240.92993   -252.79503    229018.04   -21110.086    1595.7657   -22705.852   -521.76064    601.48852    78.608189    15.893753    29.677173 
   82400    236.04508   -185.58429    229018.04   -21118.636    1563.4115   -22682.048   -265.33095    604.20063    78.607852    15.891206    29.694218 
   82600    241.32964   -321.44469    229018.04   -21074.987     1598.413     -22673.4    -755.5508    610.32008    78.609049    15.888577    29.684594 
   82800    245.24175   -221.31523    229018.04   -21053.438    1624.3244   -22677.762   -387.53018     611.1865    78.610355    15.884397    29.668431 
   83000    244.02472   -236.99007    229018.04   -21105.456    1616.2636    -22721.72   -443.95082    610.29719    78.610323    15.882448     29.66456 
   83200    236.18197   -447.34667    229018.04   -21144.173    1564.3182   -22708.491   -1238.5701    609.54249    78.609966    15.879735    29.677939 
   83400    234.55374    -163.9634    229018.04   -21127.659    1553.5338   -22681.193   -144.42968    608.71859    78.610968    15.880559    29.688022 
   83600    234.37889   -386.48223    229018.04   -21076.489    1552.3757   -22628.865   -1053.4953    608.94151    78.610795    15.879676    29.677669 
   83800    234.25406   -150.92093    229018.04   -21100.224    1551.5489   -22651.773   -105.93105    611.91272     78.61077     15.87942    29.656079 
   84000    236.75866   -279.82795    229018.04   -21109.172    1568.1378    -22677.31   -609.60854    609.33345    78.610471    15.877903    29.643924 
   84200    233.38723   -218.02574    229018.04   -21111.421    1545.8076   -22657.229   -361.06643    607.55443     78.61025    15.878315    29.651981 
   84400    243.95682   -128.08925    229018.04   -21059.537    1615.8139   -22675.351   -32.877893    608.31625    78.612428     15.87879    29.640103 
   84600    239.45386   -290.82565    229018.04   -21111.402    1585.9891   -22697.391   -645.73724    613.71792    78.610826    15.877697    29.606873 
   84800    231.70908    -348.9616    229018.04   -21177.309    1534.6926   -22712.002   -839.09159    617.70015     78.60991    15.879151    29.599547 
   85000    238.10759   -231.96041    229018.04   -21094.486    1577.0723   -22671.559   -420.37113    618.02896    78.611373    15.879328    29.624659 
   85200    249.62665   -234.44938    229018.04   -21057.569    1653.3672   -22710.936   -456.18344     617.0893    78.610715    15.880648    29.651857 
   85400    235.69341   -316.07515    229018.04   -21119.659    1561.0823   -22680.741   -722.63313    622.01133    78.610934     15.87665    29.654505 
   85600     242.9457   -289.45088    229018.04   -21113.496    1609.1168   -22722.612   -600.74757    622.01884    78.609772    15.876525    29.654596 
   85800    241.02219   -302.57469    229018.04   -21084.531    1596.3767   -22680.907   -696.84963    624.02243    78.609987     15.87635    29.652073 
   86000    243.31237   -269.44541    229018.04   -21026.069    1611.5454   -22637.614   -550.42612    624.04784    78.609477    15.875056    29.634545 
   86200    237.14451   -335.70657    229018.04   -21065.976    1570.6935   -22636.669    -837.8232    620.97242    78.607633    15.877316    29.626373 
   86400    239.04396   -288.47555    229018.04   -21083.254    1583.2742   -22666.528   -595.15772    621.40582    78.607781    15.878451    29.639367 
   86600    240.42892   -168.23325    229018.04   -21057.877    1592.4472   -22650.324   -144.82127    621.36361    78.608064    15.878497     29.63448 
   86800    238.93571    -148.2386    229018.04   -21108.664    1582.5572   -22691.221   -103.65286    619.78144    78.605436    15.876973    29.626576 
   87000    241.82085   -174.26414    229018.04   -21134.723    1601.6665   -22736.389   -207.77148    621.77081    78.604259    15.879044    29.645876 
   87200    241.81483   -347.30428    229018.04   -21090.348    1601.6267   -22691.974   -855.15383    621.06788     78.60248      15.8787    29.645866 
   87400    244.45858   -234.63995    229018.04   -21095.863    1619.1372   -22715.001   -436.16203    619.80213    78.604135     15.88118    29.625358 
   87600    245.06644   -177.26445    229018.04    -21059.54    1623.1632   -22682.703   -169.52196    618.93805    78.605408    15.881932    29.626483 
   87800     235.2469    -306.9882    229018.04   -21200.134    1558.1249   -22758.259   -673.05722    621.72098     78.60425     15.88251    29.621396 
   88000     242.7358   -258.42434    229018.04   -21002.594    1607.7266    -22610.32   -520.33943    621.47948    78.604494    15.885734    29.606128 
   88200    240.69953   -174.00095    229018.04   -20970.858    1594.2396   -22565.097   -195.13221     624.3935    78.603793    15.885067     29.60656 
   88400    241.66597   -375.23261    229018.04   -21004.063    1600.6407   -22604.704   -1002.4779    624.93537    78.604137    15.886072    29.597196 
   88600    237.88302   -311.90311    229018.04    -21139.09    1575.5849   -22714.675   -711.41507    623.33501    78.603087    15.886867    29.602823 
   88800      237.268   -344.50606    229018.04   -21166.581    1571.5113   -22738.092   -846.76789    621.52723    78.604252    15.887196    29.606597 
   89000    234.74237   -243.81797    229018.04   -21232.828    1554.7832   -22787.611    -461.0877    620.07318    78.603584    15.886663     29.60405 
   89200    240.60868   -322.43699    229018.04   -21225.633    1593.6379   -22819.271   -771.28915    622.96662    78.603091    15.884651    29.606753 
   89400    242.81859   -164.98257    229018.04   -21144.215    1608.2749   -22752.489   -173.34473     626.9003    78.605017    15.884859    29.611864 
   89600    234.37016   -284.54122    229018.04   -21235.632    1552.3179   -22787.949   -666.16013     630.6508    78.607096    15.886518    29.606797 
   89800    239.85544   -374.60174    229018.04   -21186.495    1588.6489   -22775.144   -948.10635    632.13453    78.606371    15.889915    29.603632 
   90000    238.27002   -326.33575    229018.04   -21131.665    1578.1481   -22709.813    -781.0133    632.34623    78.606824    15.889949    29.604263 
   90200    239.95608   -232.05826    229018.04   -21166.481    1589.3155   -22755.796    -366.3521    630.90031    78.607919    15.889318    29.589059 
   90400    235.28627   -279.80783    229018.04   -21227.213    1558.3856   -22785.598   -633.77067    637.03696     78.60868    15.889834    29.550869 
   90600    235.69188   -224.38418    229018.04   -21226.237    1561.0721   -22787.309   -396.49336    641.97595    78.610434    15.890719     29.55084 
   90800     245.6661   -262.77849    229018.04    -21081.05     1627.135   -22708.185   -562.88337    645.98225    78.609584    15.890133     29.53246 
   91000    236.65311   -212.03426    229018.04   -21165.663    1567.4388   -22733.102   -361.78005    648.17555    78.608419    15.889618    29.536434 
   91200    238.86726   -420.82076    229018.04   -21166.788    1582.1038   -22748.892   -1149.1861    649.10331    78.605681    15.888444    29.562296 
   91400    241.20113   -236.53156    229018.04   -21129.946    1597.5619   -22727.508   -397.12295    646.03249    78.603892    15.884528    29.556543 
   91600    236.40701   -446.31221    229018.04   -21097.731    1565.8087    -22663.54   -1264.3548    644.38495    78.601246    15.884692    29.539222 
   91800    236.94903   -409.99562    229018.04   -21030.263    1569.3987   -22599.661   -1134.4109    642.88783    78.600614    15.884258    29.516732 
   92000    236.81871   -302.93531    229018.04   -21090.669    1568.5356   -22659.205   -707.18753    641.41619    78.600587    15.886396    29.519798 
   92200    240.98979   -283.38492    229018.04   -21133.866    1596.1621   -22730.028   -614.36032    642.95633    78.600995    15.886575    29.520091 
   92400    241.53742   -223.14496    229018.04   -21106.669    1599.7892   -22706.458   -360.41068    647.42807    78.602595    15.884334    29.526334 
   92600    239.62508    -182.8743    229018.04   -21084.325    1587.1231   -22671.448   -259.80858    648.60585    78.602767    15.883767    29.518696 
   92800    234.65784   -288.88283    229018.04   -21182.967    1554.2233    -22737.19   -610.19919    651.46257    78.601905     15.88199    29.509344 
   93000    231.36576   -231.42451    229018.04   -21199.095    1532.4187   -22731.514   -413.01066     652.1244    78.601112    15.881242    29.512591 
   93200    240.66122    -356.8469    229018.04   -21107.529    1593.9859   -22701.514   -917.84571    655.54969    78.599898    15.880534    29.495404 
   93400    238.96401   -428.08347    229018.04    -21179.58    1582.7446   -22762.325   -1177.8919    656.99551     78.59751    15.880179    29.495577 
   93600    238.61245   -220.00208    229018.04   -21139.689    1580.4162   -22720.105   -365.83102    657.83518    78.596835    15.878441    29.487846 
   93800    244.12428   -247.97538    229018.04   -21047.085     1616.923   -22664.008   -502.71272    659.51007    78.594764    15.877287    29.502515 
   94000    241.08483   -279.06908    229018.04   -21097.801    1596.7916   -22694.593   -554.67555    660.71945    78.593329    15.877391    29.503061 
   94200    246.04315    -214.6928    229018.04    -21157.83    1629.6324   -22787.462   -382.56095     660.5282    78.592933    15.876496    29.500453 
   94400    238.95581   -375.75666    229018.04   -21060.755    1582.6903   -22643.445    -979.8165    662.91807    78.591731    15.875994    29.486252 
   94600     241.3003   -425.03261    229018.04   -21088.224    1598.2187   -22686.443   -1179.1621     666.7007    78.592278       15.873    29.480036 
   94800    243.78739   -330.78061    229018.04   -21008.286    1614.6916   -22622.978   -801.81192    668.81378     78.59028    15.870778    29.488052 
   95000    246.88257   -123.27765    229018.04    -21064.79    1635.1921   -22699.983   -27.840572    669.27424    78.587799    15.866848    29.510957 
   95200    242.30232   -322.01873    229018.04   -21126.867    1604.8554   -22731.723   -770.57317    672.56118    78.586462    15.866987    29.518144 
   95400    246.62967   -81.307776    229018.04   -21148.793    1633.5171    -22782.31     162.3405    677.22539    78.585052    15.866358    29.520691 
   95600    237.04332   -407.51672    229018.04   -21141.732    1570.0232   -22711.755   -1111.8063    682.22299    78.585901    15.865298    29.508436 
   95800    232.95498   -255.59271    229018.04   -21088.269    1542.9447   -22631.213   -525.90022    682.13723    78.586191    15.865924     29.52599 
   96000    241.04582    -316.8566    229018.04   -21142.382    1596.5332   -22738.916   -770.05582    684.02239    78.587452    15.863566    29.535196 
   96200    238.86731   -213.87318    229018.04   -21221.112    1582.1042   -22803.216   -349.40744    687.72363    78.589661      15.8643    29.543581 
   96400    237.87301   -464.69277    229018.04   -21116.643    1575.5186   -22692.162    -1323.821    689.09117    78.589002    15.865414     29.53851 
   96600    233.32401   -246.17344    229018.04    -21202.23    1545.3889   -22747.619   -473.02042    685.22951     78.58736     15.86411    29.547937 
   96800    232.72987   -223.75086    229018.04   -21168.016    1541.4537    -22709.47   -398.40432     683.7984    78.586274    15.866324    29.541561 
   97000    238.92813   -123.28365    229018.04   -21117.857     1582.507   -22700.364    3.4469579    686.49246    78.587281    15.866818    29.534843 
   97200    241.89056   -273.89178    229018.04   -21066.614    1602.1283   -22668.742   -610.16319    686.20957    78.590157    15.868768    29.547014 
   97400    245.93386   -466.29342    229018.04   -21044.427    1628.9085   -22673.336   -1344.1331    687.81041      78.5912    15.870892    29.529826 
   97600    241.33303   -199.73617    229018.04   -21081.946    1598.4355   -22680.382    -289.4808      687.804    78.589229    15.872416    29.520259 
   97800    239.13875   -49.679569    229018.04    -21157.99     1583.902   -22741.892    259.60894     694.3164    78.588332    15.875107    29.519876 
   98000     227.8062   -299.78672    229018.04   -21248.826    1508.8424   -22757.669   -708.87038    700.65516    78.586133    15.874389    29.537482 
   98200    232.91912   -166.82127    229018.04    -21215.87    1542.7072   -22758.577   -130.11969    700.92909    78.584761    15.875783    29.547203 
   98400    237.67516   -340.71053    229018.04   -21123.199    1574.2081   -22697.407   -814.30068    703.53309    78.585096    15.876443    29.548041 
   98600    242.37675   -395.87084    229018.04   -21122.184    1605.3485   -22727.532   -1043.9109    704.00151    78.586916    15.876078    29.567087 
   98800     243.7518   -329.80887    229018.04   -21018.569    1614.4559   -22633.025   -788.43691    707.55871    78.587752    15.876453    29.577248 
   99000    243.97321   -97.020888    229018.04   -21016.247    1615.9224    -22632.17    90.562026    710.36216    78.587252    15.876248    29.583722 
   99200    238.45656   -311.42707    229018.04   -21053.334    1579.3836   -22632.717    -713.5495    707.27349    78.587752    15.877471     29.58697 
   99400    235.65522   -250.41233    229018.04   -21097.759    1560.8293   -22658.589   -490.87605    709.55129    78.590355    15.878282    29.608119 
   99600    240.83738   -266.95581    229018.04   -21075.958    1595.1527    -22671.11   -562.55377    714.97478    78.592636     15.87973    29.627981 
   99800    249.97994   -374.33047    229018.04   -21075.226    1655.7071   -22730.933   -972.01712    716.54186    78.593095    15.880507    29.633086 
  100000    237.17781   -342.22855    229018.04   -21131.676     1570.914    -22702.59   -860.82253    716.58692    78.592304    15.881846    29.638258 
  100200    242.03337   -239.83923    229018.04   -21039.787    1603.0742   -22642.861    -442.6287    716.89315    78.591647    15.881567    29.635247 
  100400    246.47877   -249.00793    229018.04   -21080.547    1632.5176   -22713.064    -530.7356    718.14712    78.588876    15.880618    29.636101 
  100600    246.21123    -432.7994    229018.04   -21138.106    1630.7456   -22768.852   -1219.3654    717.43773    78.587474     15.88062    29.615624 
  100800    244.87232   -246.50646    229018.04   -21097.562    1621.8775    -22719.44   -473.41586     718.5753    78.587352    15.880152    29.624445 
[...]
 5175800    231.04373   -27.428831    229018.04   -23299.565    1530.2858   -24829.851    387.99071    7039.9716    77.347063    14.677757    30.403449 
 5176000     218.6954   -74.766945    229018.04   -23422.548    1448.4983   -24871.046    196.03695      7038.09    77.348073    14.677088    30.402702 
 5176200    221.21248   -163.33309    229018.04   -23410.656    1465.1699   -24875.826   -130.15674    7041.3674    77.348729    14.677235    30.392262 
 5176400    225.51537   -110.36205    229018.04   -23374.873    1493.6695   -24868.542    109.19079    7038.0939    77.348647    14.677635    30.395543 
 5176600    227.73962   -267.24688    229018.04   -23338.192    1508.4015   -24846.593   -553.10625    7042.4451    77.348389    14.676574    30.384176 
 5176800    225.39818   -47.280118    229018.04   -23405.834    1492.8933   -24898.727    302.60663    7037.4255    77.348826    14.675971    30.387199 
 5177000    228.58873   -165.22236    229018.04   -23298.216    1514.0255   -24812.241   -173.92391    7042.1655     77.34908    14.675449    30.394474 
 5177200    230.79145   -83.352534    229018.04   -23289.505    1528.6149    -24818.12    156.85678     7037.372    77.349446      14.6749     30.39101 
 5177400    224.66892   -176.94366    229018.04   -23336.983    1488.0631   -24825.046   -182.67425    7041.2018    77.350048    14.674398    30.400601 
 5177600    225.44697   -114.02362    229018.04   -23335.187    1493.2164   -24828.404    66.623373    7037.3602    77.350317    14.674265    30.400941 
 5177800    225.71476   -162.97853    229018.04   -23303.892    1494.9901   -24798.882   -171.40358    7039.6432    77.350726    14.672841     30.38118 
 5178000    221.87267   -44.198169    229018.04   -23378.939    1469.5426   -24848.482    343.96186    7037.8614    77.350257    14.671254    30.388356 
 5178200    224.00543   -196.74709    229018.04   -23387.077    1483.6686   -24870.745   -274.91821    7042.4911     77.35177     14.67139    30.396359 
 5178400    228.59435   -23.898592    229018.04   -23278.917    1514.0627    -24792.98    420.62024    7039.3597    77.353323    14.671694    30.391825 
 5178600    229.22462   -24.596271    229018.04   -23339.376    1518.2372   -24857.613    413.32544    7039.4849    77.353362    14.672122    30.390544 
 5178800    226.86363   -138.98532    229018.04   -23315.115    1502.5995   -24817.714   -29.229646    7040.2508    77.355212    14.670922    30.387299 
 5179000    225.72477   -95.928561    229018.04   -23270.431    1495.0564   -24765.487    143.30035    7039.5543    77.356998     14.67083    30.384036 
 5179200    224.30163   -128.58284    229018.04   -23327.047    1485.6304   -24812.677   -4.7517689    7041.5728    77.358459    14.670698    30.377679 
 5179400    224.39435   -145.05081    229018.04   -23354.272    1486.2446   -24840.517   -88.787471    7040.3025    77.360609    14.671608    30.377497 
 5179600    230.40389   -70.434759    229018.04   -23327.948    1526.0479   -24853.996    218.01978    7039.7794    77.362413    14.673203    30.380621 
 5179800    223.19677   -53.810064    229018.04   -23307.264    1478.3126   -24785.577    300.21772    7040.0723    77.363337    14.673889    30.400399 
 5180000    222.59666   -72.901437    229018.04   -23346.047    1474.3378   -24820.385     221.9417    7038.2002    77.363323    14.673831     30.39407 
 5180200    223.13574   -158.86725    229018.04   -23353.859    1477.9083   -24831.767   -135.10714    7040.1992    77.363149    14.675374    30.393795 
 5180400     225.5134    -160.6324    229018.04   -23343.583    1493.6564    -24837.24   -118.99786    7039.3392       77.365    14.677089    30.394113 
 5180600     226.3575   -56.877375    229018.04   -23362.621    1499.2472   -24861.868    308.94444    7038.4052    77.365438     14.67728    30.386869 
 5180800    223.51204   -41.087779    229018.04   -23380.218    1480.4007   -24860.619     317.9938    7036.2002    77.364921     14.67812    30.381526 
 5181000    228.60204   -164.31945    229018.04   -23332.568    1514.1136   -24846.682    -96.43721    7040.6002    77.365264    14.680189     30.38117 
 5181200    227.71055   -117.65377    229018.04    -23298.52    1508.2089   -24806.729    16.389891    7037.5744    77.364113    14.680395    30.385861 
 5181400    227.30998   -77.050628    229018.04   -23302.587    1505.5558   -24808.143    213.68959    7040.3745    77.362427    14.680857    30.381814 
 5181600    229.94289   -247.18295    229018.04   -23294.679    1522.9945   -24817.674   -496.88952    7040.9214    77.362085     14.68085    30.382351 
 5181800    220.34791   -152.28308    229018.04   -23395.785    1459.4435   -24855.228   -77.040125    7038.7096    77.361775    14.682157    30.388075 
 5182000    221.88542   -130.65228    229018.04   -23395.896     1469.627   -24865.523    14.544854    7038.1818    77.361514    14.683053    30.383433 
 5182200    227.05923   -183.16086    229018.04   -23322.783     1503.895   -24826.678   -199.92739    7040.6484    77.361232    14.685043    30.376491 
 5182400    232.17421   -138.22409    229018.04   -23318.412    1537.7734   -24856.185   -27.586766    7040.0345    77.360209    14.685723    30.380776 
 5182600    228.12178   -132.78222    229018.04   -23293.193    1510.9327   -24804.125    5.2384077    7039.9483    77.359507    14.686944    30.384364 
 5182800    223.47001   -141.26935    229018.04   -23289.136    1480.1223   -24769.259   -35.347982    7042.0855    77.359362    14.687257     30.39436 
 5183000    228.17257    -57.85602    229018.04   -23286.671    1511.2691    -24797.94    229.93314    7039.0916    77.359329    14.686334    30.404602 
 5183200    226.55603   -34.560908    229018.04   -23298.542    1500.5621   -24799.104     361.3403    7039.8026    77.359393    14.686515    30.394264 
 5183400     231.4316   -156.87451    229018.04   -23336.754    1532.8548   -24869.609   -114.94735    7041.4276    77.359197    14.686601    30.389301 
 5183600    226.08501   -149.19317    229018.04   -23321.686    1497.4424   -24819.129   -83.096466    7042.3234    77.358277    14.686054    30.381411 
 5183800     218.2941    -83.45933    229018.04    -23378.53    1445.8404    -24824.37    174.06944    7039.4456    77.358429    14.685908    30.378334 
 5184000    233.43303    -79.08832    229018.04   -23334.091     1546.111   -24880.202    155.03665    7039.3801    77.358785      14.6854    30.375692 
 5184200    225.05657   -258.63277    229018.04   -23342.277    1490.6306   -24832.907   -531.36424    7042.4588    77.359327    14.684281    30.381755 
 5184400    225.06423    -92.52377    229018.04   -23318.291    1490.6814   -24808.972    138.45545    7038.9054     77.36024    14.684705    30.386814 
 5184600    226.00427   -20.448524    229018.04   -23324.285    1496.9076   -24821.193    425.75433    7038.0648    77.358821    14.683278    30.391867 
 5184800    233.45344   -155.37639    229018.04   -23300.744    1546.2462    -24846.99   -99.019924    7040.3292    77.358414    14.682774    30.392581 
 5185000    227.82507   -144.24081    229018.04   -23296.929    1508.9674   -24805.897   -66.329789    7040.1901    77.358399    14.682168    30.387833 
 5185200    222.77388   -103.63831    229018.04   -23322.086    1475.5116   -24797.598    121.21787    7039.5516     77.35819    14.681787    30.394941 
 5185400    227.72157   -141.99255    229018.04   -23341.502    1508.2819   -24849.784   -62.100154    7039.8223    77.358408    14.682021    30.395646 
 5185600    229.43153    -117.3383    229018.04   -23311.331    1519.6076   -24830.939    14.060781    7035.9283    77.358534     14.68092    30.388344 
 5185800    231.53278   -215.90111    229018.04   -23205.341     1533.525   -24738.866   -307.18689    7041.0225    77.358613     14.68064    30.380548 
 5186000    231.27675   -95.567711    229018.04   -23259.856    1531.8291   -24791.685    107.16296    7037.4362    77.358467    14.680422    30.396059 
 5186200    225.63558    -199.7322    229018.04   -23340.115    1494.4657   -24834.581   -274.48383    7039.0037    77.359158    14.681077    30.384367 
 5186400    226.30183   -150.08956    229018.04   -23367.157    1498.8785   -24866.035   -54.883692    7036.2361    77.359536    14.681652    30.389587 
 5186600    230.59443   -133.61389    229018.04   -23292.918    1527.3099   -24820.228    -41.19822    7038.5288    77.359115    14.681218     30.39167 
 5186800    224.60364    -188.5567    229018.04    -23298.35    1487.6308    -24785.98   -223.86491    7037.7929    77.358789    14.680324    30.388079 
 5187000     227.5966   -46.222858    229018.04   -23305.409    1507.4542   -24812.863    305.60427    7038.6313     77.35956    14.679428    30.391275 
 5187200    224.39386    -82.68247    229018.04   -23313.944    1486.2413   -24800.185    185.57066    7038.3829     77.35996    14.677434    30.380273 
 5187400    218.55609   -206.38816    229018.04   -23297.342    1447.5757   -24744.918   -314.92966       7041.3     77.36086    14.677387    30.369317 
 5187600    224.25585    -56.49474    229018.04   -23314.688    1485.3272   -24800.016    229.80933    7037.4228    77.361084    14.678313    30.391891 
 5187800    229.25457   -121.60658    229018.04   -23313.776    1518.4356   -24832.211    29.011214    7041.0827    77.360157    14.677279    30.391592 
 5188000    227.03364   -135.90267    229018.04   -23309.088    1503.7255   -24812.814   -13.524631    7039.4225     77.35985    14.676409    30.381087 
 5188200     226.5981   -203.47482    229018.04   -23288.635    1500.8408   -24789.476   -270.07275    7040.2022    77.359422     14.67628    30.394372 
 5188400    224.50153   -147.08279    229018.04   -23344.485    1486.9544    -24831.44   -23.198465     7040.337    77.359468    14.675893    30.397403 
 5188600    233.58526   -19.138255    229018.04   -23265.216    1547.1192   -24812.336     418.4938    7037.2071    77.358203    14.674646    30.398862 
 5188800    229.35415   -214.48886    229018.04    -23292.81    1519.0951   -24811.905   -306.08994    7041.8256    77.358448    14.673328    30.380922 
 5189000    227.37757   -91.355521    229018.04   -23293.363    1506.0035   -24799.366    141.11447    7035.8355    77.358122    14.673797    30.395728 
 5189200    227.69376   -16.086503    229018.04   -23309.803    1508.0977   -24817.901    444.84791    7038.5141    77.357209    14.674195    30.399849 
 5189400    230.00831   -134.86501    229018.04   -23290.613    1523.4278    -24814.04   -56.488012     7038.445    77.355691    14.674906    30.391161 
 5189600    230.96321   -218.65424    229018.04   -23287.534    1529.7525   -24817.287   -338.94341    7041.6694     77.35399    14.674014    30.402672 
 5189800    228.74991   -47.650589    229018.04   -23335.089     1515.093   -24850.182    293.72065    7037.5408    77.352859    14.673568    30.406435 
 5190000    231.00004   -159.77982    229018.04   -23307.673    1529.9964   -24837.669   -105.10065    7040.8932    77.352806    14.674654    30.413609 
 5190200    222.28462   -138.45874    229018.04   -23291.786    1472.2711   -24764.057   -50.937273    7038.9369    77.352487    14.674966     30.39361 
 5190400    226.42084   -106.48411    229018.04   -23318.914    1499.6667    -24818.58       72.623    7040.4197    77.351597    14.675625     30.38868 
 5190600    231.59651    -187.1679    229018.04   -23300.487    1533.9471   -24834.434   -183.03225    7040.2349    77.350934    14.676644    30.396003 
 5190800    230.07182   -158.65854    229018.04   -23312.668    1523.8485   -24836.516   -104.34265    7039.8513    77.350973    14.676793      30.3934 
 5191000    221.93758   -132.48809    229018.04   -23421.711    1469.9725   -24891.684    -2.633658    7039.5221    77.350528    14.678442    30.410015 
 5191200    227.44484   -127.92036    229018.04   -23355.753     1506.449   -24862.202   -10.202231    7039.5013     77.35143     14.67888    30.414024 
 5191400    226.20687   -37.672055    229018.04   -23314.115    1498.2495   -24812.365    354.59607    7039.3582    77.351928    14.680679    30.409823 
 5191600    225.67106   -147.01203    229018.04   -23337.719    1494.7007   -24832.419   -90.956822    7037.4102    77.353167    14.681408    30.410733 
 5191800    227.08553   -223.47998    229018.04   -23284.551    1504.0692    -24788.62   -345.37613    7042.5456    77.354239    14.681139    30.402208 
 5192000    224.87519   -85.563221    229018.04   -23291.756    1489.4293   -24781.186    164.25054    7038.1758    77.355735    14.680848    30.402308 
 5192200    226.69732   -46.836165    229018.04   -23321.786    1501.4979   -24823.284    295.86023    7037.2533    77.356519    14.682051    30.396665 
 5192400    224.46304    -46.45616    229018.04   -23380.566    1486.6995   -24867.266     281.3402    7038.0984    77.356792    14.681698    30.395421 
 5192600    224.20608   -176.64547    229018.04   -23373.099    1484.9976   -24858.097   -197.07334    7041.3991    77.356324    14.682284     30.39996 
 5192800    223.00369   -155.57736    229018.04   -23299.031    1477.0337   -24776.064   -105.69101    7039.2908    77.355065    14.682803    30.390211 
 5193000     222.4562   -105.20341    229018.04   -23338.018    1473.4075   -24811.425    85.753896    7038.6723    77.354437    14.683068    30.388479 
 5193200    227.68584   -117.89995    229018.04   -23334.571    1508.0453   -24842.616    56.618246    7038.9138    77.352258    14.684483    30.384106 
 5193400    230.11607   -53.841511    229018.04    -23297.85    1524.1416   -24821.992    308.56381    7038.6944    77.350432     14.68658     30.37322 
 5193600    221.66053    -103.8607    229018.04   -23349.492    1468.1375    -24817.63    70.975542    7039.0585    77.350514    14.688105    30.376948 
 5193800    227.04831   -199.13521    229018.04   -23359.777    1503.8227   -24863.599   -297.40589      7039.88    77.349706    14.689227    30.378152 
 5194000    225.92244   -156.17423    229018.04   -23362.796    1496.3657   -24859.161   -87.539617    7037.7662    77.348565    14.689495    30.374422 
 5194200    225.70027   -197.32673    229018.04   -23331.935    1494.8941   -24826.829   -306.46606    7039.1657    77.347806    14.689958    30.377786 
 5194400    222.01214   -76.382418    229018.04   -23335.699    1470.4663   -24806.165    225.03551    7039.3158    77.347393    14.691361    30.366969 
 5194600    223.76261   -181.79527    229018.04   -23367.845    1482.0603   -24849.905   -233.12512     7039.138    77.347339    14.690863    30.381688 
 5194800    220.30811   -95.411467    229018.04   -23385.332    1459.1799   -24844.512     86.30713    7038.7856    77.348195    14.690791    30.373366 
 5195000    235.87425   -156.44242    229018.04   -23298.585    1562.2801   -24860.865   -108.36033    7040.0398    77.348053    14.690544    30.393345 
 5195200    224.28366   -134.95651    229018.04   -23353.828    1485.5114   -24839.339   -44.233379     7039.162     77.34723     14.69032    30.396231 
 5195400    228.04749   -47.533767    229018.04   -23272.893    1510.4406   -24783.334    302.87797    7036.0745    77.346282    14.691299     30.38914 
 5195600    222.12599   -125.11107    229018.04   -23321.072    1471.2204   -24792.293    16.414617     7038.052    77.346648    14.690562    30.381705 
 5195800     233.9979   -158.31916    229018.04   -23284.032    1549.8523   -24833.884   -120.99641    7039.2424    77.347321    14.691145    30.390725 
 5196000    231.50791   -28.156929    229018.04   -23286.924    1533.3602   -24820.284    400.14487    7035.2689    77.346515    14.689703     30.39342 
 5196200    231.88159   -200.00404    229018.04   -23257.553    1535.8352   -24793.389   -263.13355    7040.8646    77.345823    14.689664    30.393571 
 5196400    228.15098   -18.572336    229018.04   -23307.926     1511.126   -24819.052    440.68492    7036.6495     77.34744    14.689738     30.39439 
 5196600    221.88178   -159.11665    229018.04   -23416.681    1469.6029   -24886.283   -105.66322    7038.0378    77.348133    14.687566    30.380776 
 5196800     223.6179   -275.03876    229018.04   -23316.277    1481.1019   -24797.379    -639.3635     7040.578    77.349222     14.68687    30.392077 
 5197000     225.3911    -55.71109    229018.04   -23354.633    1492.8464    -24847.48    283.52035    7035.8089    77.349566    14.686317    30.396543 
 5197200      231.866   -121.70693    229018.04   -23252.121     1535.732   -24787.853    36.234095    7038.9164    77.349684    14.683795    30.392975 
 5197400      223.545   -161.27097    229018.04   -23348.066     1480.619   -24828.685   -158.48586    7039.4468    77.350882       14.683    30.387653 
 5197600     225.1386   -149.55322    229018.04   -23332.971     1491.174   -24824.145   -79.865891    7037.9517    77.350619    14.682934    30.406121 
 5197800    227.75925   -105.92007    229018.04    -23229.41    1508.5315   -24737.942    113.17054    7039.6775    77.350476    14.681418    30.403677 
 5198000    235.18418   -121.34673    229018.04   -23235.481    1557.7095    -24793.19    14.271065    7040.9801     77.34892    14.679346    30.398658 
 5198200    228.08273   -90.619134    229018.04   -23278.623     1510.674   -24789.297    180.29472      7034.75    77.348639    14.678865    30.410809 
 5198400    228.67228   -185.28619    229018.04   -23304.678    1514.5788   -24819.257   -215.71797     7041.841    77.349025    14.677029    30.398778 
 5198600    222.65822   -167.05037    229018.04    -23360.59    1474.7456   -24835.336   -158.84842    7038.7355    77.347467    14.675234    30.410758 
 5198800    217.82861   -156.76127    229018.04   -23357.203    1442.7573    -24799.96   -136.33564    7038.1499    77.346486    14.674764    30.406768 
 5199000    229.39671   -97.086327    229018.04   -23272.352     1519.377   -24791.729    163.35696    7041.4078    77.346838    14.673591    30.395313 
 5199200    220.39472   -1.5399388    229018.04   -23312.512    1459.7536   -24772.265    462.49273    7036.5951    77.346365    14.672956    30.394266 
 5199400    228.43906    -221.4781    229018.04   -23345.535    1513.0341   -24858.569   -367.06442    7042.3367    77.347315     14.67208    30.393133 
 5199600    226.38153   -113.21635    229018.04   -23304.107    1499.4063   -24803.513    78.157506    7037.9736    77.346452    14.670914     30.39355 
 5199800    226.08822   -127.70717    229018.04   -23363.078    1497.4637   -24860.541   -11.324008    7039.6421    77.347143    14.671838    30.396171 
 5200000    232.06195   -16.627578    229018.04    -23287.63    1537.0298    -24824.66    419.63721    7038.1726     77.34728    14.671721    30.390108 
Loop time of 7044.68 on 160 procs for 5200000 steps with 8943 atoms

Performance: 637.758 ns/day, 0.038 hours/ns, 738.146 timesteps/s
97.9% CPU use with 160 MPI tasks x no OpenMP threads

MPI task timing breakdown:
Section |  min time  |  avg time  |  max time  |%varavg| %total
---------------------------------------------------------------
Pair    | 0.24887    | 1532.8     | 5665       |4956.1 | 21.76
Neigh   | 0.33299    | 98.389     | 419.31     |1251.3 |  1.40
Comm    | 11.517     | 2000       | 5840.9     |4411.7 | 28.39
Output  | 92.274     | 92.362     | 94.632     |   1.9 |  1.31
Modify  | 165.46     | 3222.3     | 6850.5     |4930.2 | 45.74
Other   |            | 98.72      |            |       |  1.40

Nlocal:    55.8937 ave 177 max 0 min
Histogram: 68 13 39 0 0 0 0 0 4 36
Nghost:    541.075 ave 929 max 0 min
Histogram: 20 4 4 4 8 36 27 19 18 20
Neighs:    0 ave 0 max 0 min
Histogram: 160 0 0 0 0 0 0 0 0 0
FullNghs:  5647.38 ave 22183 max 0 min
Histogram: 94 26 0 0 0 0 0 2 18 20

Total # of neighbors = 903580
Ave neighs/atom = 101.038
Neighbor list builds = 550118
Dangerous builds = 0
write_data 		${DIR}/data.${NAME}_run
write_data 		run_25/data.${NAME}_run
write_data 		run_25/data.ibeam_cooling_25_run
Total wall time: 1:57:39
