
### Dimensions ###


### IMPORT ATOMS ###
read_data ../Box_Setup/data.Ibeam_240K
  orthogonal box = (0 0 0) to (157.504 36.4877 39.8503)
  10 by 4 by 4 MPI processor grid
  reading atoms ...
  8943 atoms
  reading velocities ...
  8943 velocities
group water type 2
2223 atoms in group water
group graphite type 1
6720 atoms in group graphite


# Define potential
#
pair_style          sw
pair_coeff * * MLC_e.sw C mW

# Add velocity/set timestep
#

fix		1 graphite setforce 0.0 0.0 0.0
velocity 	graphite set 0.0 0.0 0.0
velocity            water create ${START_TEMP} ${SEED} rot yes dist gaussian
velocity            water create 240 ${SEED} rot yes dist gaussian
velocity            water create 240 25338 rot yes dist gaussian
timestep            5.0

# Define output
#
compute 1 water msd
compute 2 water temp


thermo	            100
thermo_style custom step c_2 press vol etotal ke pe c_1[4] density

# Neighbor lists
#
neigh_modify        delay 0 every 1 check yes


# Set fixes
#
fix                 2 water momentum 10 linear 1 1 1 rescale
fix                 3 all nve
fix                 4 water temp/csvr ${START_TEMP} ${START_TEMP} 500.0 928347
fix                 4 water temp/csvr 240 ${START_TEMP} 500.0 928347
fix                 4 water temp/csvr 240 240 500.0 928347

# Run 0.05 ns equilibration
#
dump                1 all custom 100 ${DIR}/eq.${NAME}.dump id type x y z vx vy vz
dump                1 all custom 100 run_25/eq.${NAME}.dump id type x y z vx vy vz
dump                1 all custom 100 run_25/eq.ibeam_cooling_25.dump id type x y z vx vy vz
run                 10000
Neighbor list info ...
  update every 1 steps, delay 0 steps, check yes
  max neighbors/atom: 2000, page size: 100000
  master list distance cutoff = 6.67472
  ghost atom cutoff = 6.67472
  binsize = 3.33736, bins = 48 11 12
  1 neighbor lists, perpetual/occasional/extra = 1 0 0
  (1) pair sw, perpetual
      attributes: full, newton on
      pair build: full/bin/atomonly
      stencil: full/bin/3d
      bin: standard
Per MPI rank memory allocation (min/avg/max) = 0.463 | 3.758 | 4.742 Mbytes
Step c_2 Press Volume TotEng KinEng PotEng c_1[4] Density 
       0          240   -163.35224    229018.04   -21211.582    1589.6064   -22801.188            0   0.87555383 
     100    241.47206   -274.49015    229018.04   -21172.337    1599.3564   -22771.694    0.8718545   0.87555383 
     200    238.31847   -319.19408    229018.04   -21223.543     1578.469   -22802.012    1.2655062   0.87555383 
     300    245.23025   -397.28987    229018.04   -21206.091    1624.2482   -22830.339    1.5635879   0.87555383 
     400    242.42968   -383.58034    229018.04   -21226.078     1605.699   -22831.777    1.9536507   0.87555383 
     500     238.1242   -249.26708    229018.04   -21235.314    1577.1823   -22812.496    2.2673699   0.87555383 
     600    231.93257   -178.25342    229018.04   -21345.284    1536.1729   -22881.457    2.6907021   0.87555383 
     700    232.04183   -263.05849    229018.04   -21305.665    1536.8965   -22842.562    3.0897454   0.87555383 
     800    232.76525   -291.72745    229018.04   -21339.779    1541.6881   -22881.467    3.5475947   0.87555383 
     900    235.07442   -428.67291    229018.04   -21293.044    1556.9825   -22850.026    3.7025908   0.87555383 
    1000    236.03362   -383.61286    229018.04   -21218.067    1563.3356   -22781.402    4.0632979   0.87555383 
    1100    237.76399   -274.37214    229018.04   -21231.076    1574.7965   -22805.872    4.4961859   0.87555383 
    1200    231.86612   -350.50296    229018.04   -21276.892    1535.7328   -22812.624    4.7998413   0.87555383 
    1300    239.08552   -198.59072    229018.04   -21223.879    1583.5495   -22807.428    5.2189356   0.87555383 
    1400    247.24332   -289.59456    229018.04   -21153.463    1637.5815   -22791.044    5.5366353   0.87555383 
    1500    237.66136   -279.90671    229018.04   -21162.672    1574.1167   -22736.789    5.9982191   0.87555383 
    1600    248.30016   -352.73518    229018.04   -21133.535    1644.5813   -22778.116    6.3386665   0.87555383 
    1700    238.67365   -304.14514    229018.04    -21161.55    1580.8215   -22742.371    6.6899301   0.87555383 
    1800    243.22695   -362.06651    229018.04   -21176.138    1610.9796   -22787.118    6.9802458   0.87555383 
    1900    248.92037   -198.53933    229018.04   -21105.322    1648.6892   -22754.011    7.5278624   0.87555383 
    2000    248.76869   -201.66882    229018.04   -21086.985    1647.6846    -22734.67    8.2799284   0.87555383 
    2100     243.6085   -232.16297    229018.04   -21103.545    1613.5068   -22717.052    8.7334541   0.87555383 
    2200    242.87344   -268.51955    229018.04   -21090.825    1608.6382   -22699.463    9.0639383   0.87555383 
    2300    238.70502   -393.26388    229018.04   -21130.842    1581.0292   -22711.872     9.301259   0.87555383 
    2400    239.66318   -242.75707    229018.04    -21102.49    1587.3755   -22689.866    9.4985405   0.87555383 
    2500    244.45329    -173.7613    229018.04   -21085.645    1619.1021   -22704.747    9.8704034   0.87555383 
    2600    243.74036   -288.10134    229018.04   -21148.418    1614.3801   -22762.798    10.435897   0.87555383 
    2700    246.25445   -367.40388    229018.04   -21123.031    1631.0318   -22754.063    10.785344   0.87555383 
    2800    241.20252    -243.5501    229018.04   -21127.223    1597.5711   -22724.794    11.420137   0.87555383 
    2900     235.2546   -259.13021    229018.04   -21198.752    1558.1759   -22756.928    11.751146   0.87555383 
    3000    240.41815   -371.15711    229018.04   -21233.728     1592.376   -22826.104    11.960917   0.87555383 
    3100    237.95369   -247.87019    229018.04   -21226.157    1576.0529    -22802.21    12.409691   0.87555383 
    3200    236.91054   -426.48897    229018.04   -21238.045    1569.1438   -22807.189     12.71973   0.87555383 
    3300    236.95453   -393.57305    229018.04   -21201.968    1569.4351   -22771.404    13.046116   0.87555383 
    3400    245.55462   -332.47725    229018.04   -21202.463    1626.3966   -22828.859    13.287691   0.87555383 
    3500    238.27802    -331.4948    229018.04   -21214.943    1578.2011   -22793.144    13.566904   0.87555383 
    3600    240.24508   -285.61145    229018.04   -21222.071    1591.2296   -22813.301    13.937922   0.87555383 
    3700    238.30748   -354.91637    229018.04   -21246.508    1578.3962   -22824.904    14.225326   0.87555383 
    3800    234.48958   -352.47193    229018.04   -21238.438    1553.1089   -22791.547    14.796285   0.87555383 
    3900    241.75845   -246.44885    229018.04   -21231.656    1601.2533    -22832.91    15.164003   0.87555383 
    4000    237.96274   -241.89493    229018.04   -21258.752    1576.1129   -22834.865    15.311682   0.87555383 
    4100    240.75114     -303.909    229018.04   -21211.846    1594.5814   -22806.427    15.592309   0.87555383 
    4200    238.96409   -308.23564    229018.04    -21194.38    1582.7452   -22777.125    15.862627   0.87555383 
    4300    248.56766   -218.09481    229018.04   -21099.923    1646.3531   -22746.276      16.1356   0.87555383 
    4400    242.36281   -331.89893    229018.04    -21097.47    1605.2561   -22702.726    16.405896   0.87555383 
    4500    239.50389   -246.08613    229018.04   -21130.199    1586.3204    -22716.52    16.808562   0.87555383 
    4600     241.1532   -33.891142    229018.04   -21160.158    1597.2444   -22757.403    16.890608   0.87555383 
    4700    234.89275   -288.93826    229018.04   -21192.207    1555.7793   -22747.987     17.11513   0.87555383 
    4800    239.67137    -366.6881    229018.04   -21144.552    1587.4298   -22731.982    17.504072   0.87555383 
    4900    243.33263   -309.44306    229018.04   -21168.042    1611.6796   -22779.721    17.781779   0.87555383 
    5000    235.25274    -343.4024    229018.04   -21197.217    1558.1636    -22755.38    18.120522   0.87555383 
    5100    234.03911   -300.06276    229018.04   -21210.475    1550.1253     -22760.6    18.506492   0.87555383 
    5200    242.19479   -219.46496    229018.04   -21177.176    1604.1433   -22781.319    19.312188   0.87555383 
    5300     235.4343   -342.20314    229018.04   -21222.328    1559.3661   -22781.695    19.828054   0.87555383 
    5400    232.40015   -315.94602    229018.04   -21191.099    1539.2698   -22730.368    19.992487   0.87555383 
    5500    234.21841   -383.53294    229018.04   -21208.644    1551.3128   -22759.957    20.446173   0.87555383 
    5600    236.92914   -407.86024    229018.04   -21217.423     1569.267    -22786.69     20.89693   0.87555383 
    5700     237.0334   -83.946639    229018.04   -21186.652    1569.9575    -22756.61    21.182173   0.87555383 
    5800    245.38237   -275.07352    229018.04   -21092.056    1625.2558   -22717.312    21.544748   0.87555383 
    5900    240.29705   -124.94853    229018.04   -21123.767    1591.5739   -22715.341    21.856017   0.87555383 
    6000    239.10434   -391.72063    229018.04   -21212.561    1583.6741   -22796.235    22.461293   0.87555383 
    6100    240.10383   -425.90877    229018.04   -21196.649    1590.2941   -22786.943    23.034317   0.87555383 
    6200    229.08866   -369.97843    229018.04   -21166.177    1517.3366   -22683.514    23.510763   0.87555383 
    6300    243.88387   -306.19462    229018.04   -21115.526    1615.3306   -22730.857    23.703265   0.87555383 
    6400    232.25962   -381.87023    229018.04   -21096.426     1538.339   -22634.765    24.072196   0.87555383 
    6500    243.42825   -154.46562    229018.04   -21116.792    1612.3129   -22729.105     24.53897   0.87555383 
    6600    232.21479   -290.73442    229018.04   -21157.583    1538.0421   -22695.625    24.811737   0.87555383 
    6700    233.62174    -354.7824    229018.04   -21206.476    1547.3608   -22753.837     24.72688   0.87555383 
    6800    237.03781   -419.22168    229018.04   -21165.083    1569.9868    -22735.07    25.303235   0.87555383 
    6900    238.14132   -287.08073    229018.04   -21209.845    1577.2957    -22787.14    25.690661   0.87555383 
    7000    231.23225   -299.95229    229018.04    -21232.83    1531.5344   -22764.365    26.395565   0.87555383 
    7100    245.17233   -297.64869    229018.04   -21147.104    1623.8646   -22770.968    26.908172   0.87555383 
    7200    240.74394   -231.10329    229018.04   -21148.231    1594.5338   -22742.765    27.286863   0.87555383 
    7300    235.40262   -133.43675    229018.04   -21224.828    1559.1563   -22783.984    27.366041   0.87555383 
    7400    232.60903    -321.0759    229018.04   -21224.556    1540.6533   -22765.209    27.793003   0.87555383 
    7500    229.53426   -148.13021    229018.04   -21249.552     1520.288    -22769.84      27.9893   0.87555383 
    7600    232.21209   -206.15484    229018.04   -21264.265    1538.0243    -22802.29    28.157533   0.87555383 
    7700    239.16991    -111.7084    229018.04    -21224.08    1584.1084   -22808.188    28.543725   0.87555383 
    7800    237.53415   -291.82606    229018.04   -21177.646    1573.2742    -22750.92     28.81633   0.87555383 
    7900    242.17534   -181.90149    229018.04   -21134.056    1604.0144    -22738.07    29.244015   0.87555383 
    8000    236.34147   -315.54787    229018.04   -21125.296    1565.3746    -22690.67     29.50602   0.87555383 
    8100    240.46047   -384.71187    229018.04   -21159.264    1592.6563    -22751.92    29.932103   0.87555383 
    8200    233.04942   -210.62788    229018.04   -21207.303    1543.5702   -22750.873    30.330898   0.87555383 
    8300    237.99329   -224.13286    229018.04   -21221.887    1576.3152   -22798.202    30.956081   0.87555383 
    8400    236.42343     -427.336    229018.04   -21231.757    1565.9175   -22797.674    31.372949   0.87555383 
    8500    238.28428   -241.41401    229018.04   -21228.255    1578.2426   -22806.497    31.506858   0.87555383 
    8600    237.62261   -109.23758    229018.04   -21180.061    1573.8601   -22753.921    31.291071   0.87555383 
    8700    232.42166   -382.09137    229018.04   -21249.917    1539.4123   -22789.329    31.490521   0.87555383 
    8800    238.98963    -472.8746    229018.04    -21179.18    1582.9143   -22762.094    31.742152   0.87555383 
    8900    232.70784   -421.20678    229018.04   -21202.899    1541.3078   -22744.206    32.007002   0.87555383 
    9000    243.02456   -292.65358    229018.04   -21161.835    1609.6391   -22771.474    32.173366   0.87555383 
    9100    244.97748   -59.731886    229018.04   -21155.242     1622.574   -22777.816    32.436542   0.87555383 
    9200    245.00556   -387.11063    229018.04   -21205.958      1622.76   -22828.718    32.945273   0.87555383 
    9300    235.07525   -343.99467    229018.04    -21224.71     1556.988   -22781.697    33.007634   0.87555383 
    9400    234.75529   -341.82176    229018.04   -21266.373    1554.8688   -22821.242    33.338519   0.87555383 
    9500    235.93323   -256.06972    229018.04   -21221.147    1562.6707   -22783.818    33.703975   0.87555383 
    9600    231.91131   -322.02883    229018.04   -21292.342    1536.0321   -22828.374     34.01173   0.87555383 
    9700    234.52566    -202.9761    229018.04   -21244.475    1553.3479   -22797.823    34.327506   0.87555383 
    9800     235.9171   -299.11485    229018.04   -21248.508    1562.5639   -22811.072    34.390097   0.87555383 
    9900    239.72557   -332.64831    229018.04   -21208.289    1587.7888   -22796.078    34.720778   0.87555383 
   10000    242.13886   -399.74699    229018.04   -21140.098    1603.7728   -22743.871    35.405246   0.87555383 
Loop time of 14.8016 on 160 procs for 10000 steps with 8943 atoms

Performance: 291.860 ns/day, 0.082 hours/ns, 675.601 timesteps/s
97.8% CPU use with 160 MPI tasks x no OpenMP threads

MPI task timing breakdown:
Section |  min time  |  avg time  |  max time  |%varavg| %total
---------------------------------------------------------------
Pair    | 0.00045896 | 3.0765     | 11.932     | 236.9 | 20.78
Neigh   | 0.00039697 | 0.10219    | 0.44325    |  39.6 |  0.69
Comm    | 0.014088   | 4.0521     | 11.752     | 215.6 | 27.38
Output  | 0.17864    | 0.17882    | 0.18572    |   0.1 |  1.21
Modify  | 0.38637    | 7.1985     | 14.441     | 227.6 | 48.63
Other   |            | 0.1936     |            |       |  1.31

Nlocal:    55.8937 ave 177 max 0 min
Histogram: 72 5 41 2 0 0 0 0 4 36
Nghost:    540.644 ave 963 max 0 min
Histogram: 24 0 0 8 8 49 20 19 20 12
Neighs:    0 ave 0 max 0 min
Histogram: 160 0 0 0 0 0 0 0 0 0
FullNghs:  5635 ave 22167 max 0 min
Histogram: 90 30 0 0 0 0 0 2 18 20

Total # of neighbors = 901600
Ave neighs/atom = 100.816
Neighbor list builds = 571
Dangerous builds = 0
write_data 	    ${DIR}/data.${NAME}_eq
write_data 	    run_25/data.${NAME}_eq
write_data 	    run_25/data.ibeam_cooling_25_eq

undump              1
unfix               4



################################################
#######         Run Simulation         #########
################################################

reset_timestep      0
timestep	    10.0
log                 ${DIR}/log.run_${NAME}
log                 run_25/log.run_${NAME}
log                 run_25/log.run_ibeam_cooling_25
