
### Dimensions ###


### IMPORT ATOMS ###
read_data ../Box_Setup/data.Ibeam_240K
  orthogonal box = (0 0 0) to (189.989 26.9999 39.8504)
  16 by 2 by 2 MPI processor grid
  reading atoms ...
  8482 atoms
  reading velocities ...
  8482 velocities
group water type 2
2436 atoms in group water
group graphite type 1
6046 atoms in group graphite


# Define potential
#
pair_style          sw
pair_coeff * * MLC_e.sw C mW

# Add velocity/set timestep
#

fix		1 graphite setforce 0.0 0.0 0.0
velocity 	graphite set 0.0 0.0 0.0
velocity            water create ${START_TEMP} ${SEED} rot yes dist gaussian
velocity            water create 240 ${SEED} rot yes dist gaussian
velocity            water create 240 5352 rot yes dist gaussian
timestep            5.0

# Define output
#
compute 1 water msd
compute 2 water temp


thermo	            100
thermo_style custom step c_2 press vol etotal ke pe c_1[4] density

# Neighbor lists
#
neigh_modify        delay 0 every 1 check yes


# Set fixes
#
fix                 2 water momentum 10 linear 1 1 1 rescale
fix                 3 all nve
fix                 4 water temp/csvr ${START_TEMP} ${START_TEMP} 500.0 928347
fix                 4 water temp/csvr 240 ${START_TEMP} 500.0 928347
fix                 4 water temp/csvr 240 240 500.0 928347

# Run 0.05 ns equilibration
#
dump                1 all custom 100 ${DIR}/eq.${NAME}.dump id type x y z vx vy vz
dump                1 all custom 100 run_5/eq.${NAME}.dump id type x y z vx vy vz
dump                1 all custom 100 run_5/eq.ibeam_cooling_5.dump id type x y z vx vy vz
run                 10000
Neighbor list info ...
  update every 1 steps, delay 0 steps, check yes
  max neighbors/atom: 2000, page size: 100000
  master list distance cutoff = 6.67472
  ghost atom cutoff = 6.67472
  binsize = 3.33736, bins = 57 9 12
  1 neighbor lists, perpetual/occasional/extra = 1 0 0
  (1) pair sw, perpetual
      attributes: full, newton on
      pair build: full/bin/atomonly
      stencil: full/bin/3d
      bin: standard
Per MPI rank memory allocation (min/avg/max) = 3.381 | 4.313 | 4.753 Mbytes
Step c_2 Press Volume TotEng KinEng PotEng c_1[4] Density 
       0          240   -262.64038    204420.41   -23347.773    1741.9854   -25089.758            0   0.94632332 
     100    238.27555   -151.32135    204420.41   -23350.306    1729.4689   -25079.774   0.83762974   0.94632332 
     200    238.27015   -159.51247    204420.41   -23390.794    1729.4297   -25120.224    1.3415731   0.94632332 
     300    237.31944   -224.89245    204420.41   -23386.242    1722.5291   -25108.771    1.7230978   0.94632332 
     400    237.23978   -297.79463    204420.41   -23385.314     1721.951   -25107.265     2.122219   0.94632332 
     500     240.7665   -502.96368    204420.41   -23359.767    1747.5489   -25107.316    2.4923375   0.94632332 
     600    242.07476   -255.70758    204420.41   -23281.392    1757.0446   -25038.437    2.7394448   0.94632332 
     700    241.79748   -396.45707    204420.41   -23280.958     1755.032    -25035.99    3.1094654   0.94632332 
     800    241.62749   -232.88225    204420.41   -23261.778    1753.7981   -25015.576    3.3956775   0.94632332 
     900    236.77166   -199.05899    204420.41   -23288.081    1718.5532   -25006.634    3.8018009   0.94632332 
    1000    239.21985   -259.65209    204420.41   -23313.133    1736.3228   -25049.455    4.1053901   0.94632332 
    1100    242.60793   -377.11547    204420.41   -23296.421    1760.9145   -25057.336    4.5115116   0.94632332 
    1200    240.38611   -344.72198    204420.41   -23300.161    1744.7879   -25044.949    4.8533927   0.94632332 
    1300    242.07545   -397.29293    204420.41   -23246.269    1757.0496   -25003.319    5.1263333   0.94632332 
    1400    239.80159   -364.59335    204420.41   -23276.657    1740.5453   -25017.202    5.3756506   0.94632332 
    1500    237.11348   -351.15094    204420.41   -23300.655    1721.0343    -25021.69    5.6643699   0.94632332 
    1600    241.14784    -338.5026    204420.41   -23278.542    1750.3167   -25028.859    6.0714047   0.94632332 
    1700    239.72601   -350.32059    204420.41   -23284.531    1739.9967   -25024.527    6.5027576   0.94632332 
    1800    239.23618   -227.89573    204420.41   -23243.098    1736.4413    -24979.54    6.9663957   0.94632332 
    1900    243.82511    -295.5433    204420.41   -23194.237    1769.7491   -24963.986    7.5993713   0.94632332 
    2000    247.64176   -385.24185    204420.41   -23153.677    1797.4514   -24951.129    8.0112185   0.94632332 
    2100    236.90275   -333.55207    204420.41   -23250.921    1719.5047   -24970.425    8.4416662   0.94632332 
    2200    242.49991   -79.322118    204420.41   -23225.264    1760.1305   -24985.394    8.7469303   0.94632332 
    2300      246.288    -162.5982    204420.41   -23206.901    1787.6254   -24994.527    9.0944517   0.94632332 
    2400     243.2502   -237.40576    204420.41   -23210.313    1765.5762   -24975.889    9.4103128   0.94632332 
    2500    240.59402   -259.95358    204420.41   -23251.229     1746.297   -24997.526     9.838213   0.94632332 
    2600    240.49306   -416.85537    204420.41    -23258.13    1745.5642   -25003.694    10.240965   0.94632332 
    2700    243.56121   -408.29333    204420.41   -23256.154    1767.8336   -25023.988    10.440898   0.94632332 
    2800    243.14065   -426.06854    204420.41   -23204.984    1764.7811   -24969.765      10.7646   0.94632332 
    2900    247.98365   -311.72772    204420.41   -23226.523    1799.9329   -25026.456    10.950928   0.94632332 
    3000    241.63074   -373.36038    204420.41   -23221.834    1753.8218   -24975.656     11.24198   0.94632332 
    3100    242.73941   -374.13227    204420.41   -23218.134    1761.8688   -24980.003    11.845771   0.94632332 
    3200    240.90075   -410.85646    204420.41   -23275.812    1748.5233   -25024.336    12.310325   0.94632332 
    3300    234.25703   -401.83664    204420.41   -23367.909    1700.3013    -25068.21    12.562767   0.94632332 
    3400     239.0984   -380.70851    204420.41   -23326.676    1735.4414   -25062.117    13.054911   0.94632332 
    3500    240.84433   -217.69476    204420.41   -23321.232    1748.1138   -25069.346    13.510181   0.94632332 
    3600    236.14093   -296.33438    204420.41   -23320.648    1713.9752   -25034.623     13.89942   0.94632332 
    3700    242.07813   -301.10406    204420.41    -23297.35     1757.069   -25054.419    14.325475   0.94632332 
    3800    243.24487   -183.67054    204420.41   -23288.573    1765.5375    -25054.11     14.62973   0.94632332 
    3900     243.3799   -406.04723    204420.41   -23284.959    1766.5176   -25051.477    15.001027   0.94632332 
    4000    243.74763   -355.72939    204420.41    -23329.77    1769.1867   -25098.957    15.218208   0.94632332 
    4100    237.02122     -546.599    204420.41   -23325.108    1720.3646   -25045.473    15.607213   0.94632332 
    4200    241.91211   -436.50201    204420.41   -23290.382     1755.864   -25046.246    15.784991   0.94632332 
    4300    237.63201    -360.4514    204420.41   -23351.084    1724.7979   -25075.882    16.080452   0.94632332 
    4400     238.3441   -235.35747    204420.41   -23303.443    1729.9664   -25033.409    16.398544   0.94632332 
    4500    238.11136   -367.07672    204420.41   -23316.041    1728.2771   -25044.318    16.729003   0.94632332 
    4600    237.14708   -349.95321    204420.41   -23349.931    1721.2782   -25071.209    17.014247   0.94632332 
    4700    240.59556   -397.87034    204420.41   -23287.373    1746.3081   -25033.681    17.383755   0.94632332 
    4800    243.48823   -246.56228    204420.41   -23273.623    1767.3039   -25040.927    17.903701   0.94632332 
    4900    239.53677   -462.18561    204420.41   -23225.806    1738.6231   -24964.429    18.567356   0.94632332 
    5000    238.16195   -261.02023    204420.41   -23277.996    1728.6443   -25006.641    18.651451   0.94632332 
    5100     244.7848   -324.96101    204420.41   -23229.834    1776.7148   -25006.548    19.125189   0.94632332 
    5200    238.17491   -430.02683    204420.41   -23279.551    1728.7384    -25008.29    19.591152   0.94632332 
    5300    237.94235   -342.71397    204420.41   -23340.096    1727.0504   -25067.146    19.949228   0.94632332 
    5400    243.62813   -237.20935    204420.41   -23306.483    1768.3193   -25074.802    20.082534   0.94632332 
    5500    244.57443   -354.82028    204420.41   -23311.141    1775.1879   -25086.329    20.482858   0.94632332 
    5600    238.42151   -352.12595    204420.41   -23328.815    1730.5282   -25059.343    20.974468   0.94632332 
    5700    239.18022   -369.08564    204420.41   -23300.967    1736.0352   -25037.002    21.419398   0.94632332 
    5800    241.46991   -309.48927    204420.41    -23283.35    1752.6544   -25036.005    21.884406   0.94632332 
    5900     241.9591   -173.38475    204420.41   -23320.128    1756.2051   -25076.333    22.369314   0.94632332 
    6000    234.30141   -136.81902    204420.41    -23325.15    1700.6235   -25025.774     22.74768   0.94632332 
    6100    236.20291   -134.06824    204420.41   -23347.431    1714.4251   -25061.856    23.032879   0.94632332 
    6200    237.71078   -151.91642    204420.41   -23357.393    1725.3696   -25082.762    23.385796   0.94632332 
    6300    238.11466   -351.62807    204420.41   -23293.525    1728.3011   -25021.826    23.393979   0.94632332 
    6400    235.55229   -394.52914    204420.41   -23325.983    1709.7027   -25035.686    23.534308   0.94632332 
    6500    232.16384   -433.56049    204420.41   -23335.845    1685.1084   -25020.953    23.901413   0.94632332 
    6600    239.17817   -430.77016    204420.41   -23340.301    1736.0203   -25076.321    23.929461   0.94632332 
    6700    239.42169   -466.51115    204420.41    -23370.17    1737.7879   -25107.958    24.136092   0.94632332 
    6800    233.65411   -362.56453    204420.41   -23359.751    1695.9252   -25055.676    24.284198   0.94632332 
    6900    239.62596   -190.83304    204420.41   -23305.073    1739.2705   -25044.344    24.301724   0.94632332 
    7000    242.54913   -160.28074    204420.41   -23307.257    1760.4877   -25067.745    24.619768   0.94632332 
    7100    237.90522   -252.60838    204420.41   -23331.129    1726.7809    -25057.91    24.686265   0.94632332 
    7200    237.17623   -275.47239    204420.41   -23399.895    1721.4897   -25121.385    25.268944   0.94632332 
    7300    227.68382   -343.71717    204420.41   -23435.289    1652.5912    -25087.88    25.596258   0.94632332 
    7400    235.26598   -198.64789    204420.41   -23392.686    1707.6246   -25100.311    25.712256   0.94632332 
    7500     236.2392   -373.41492    204420.41   -23367.409    1714.6885   -25082.098    26.030079   0.94632332 
    7600    237.79867   -446.12022    204420.41    -23323.75    1726.0075   -25049.757    26.248506   0.94632332 
    7700    239.45481    -352.5938    204420.41   -23338.328    1738.0282   -25076.356    26.578914   0.94632332 
    7800    238.96376   -360.04747    204420.41    -23410.86    1734.4641   -25145.324    26.919382   0.94632332 
    7900    234.13991   -301.85184    204420.41   -23377.494    1699.4513   -25076.945    27.371711   0.94632332 
    8000    241.01691   -226.48678    204420.41   -23305.658    1749.3664   -25055.024    27.790433   0.94632332 
    8100    239.08597   -353.11996    204420.41   -23287.112    1735.3511   -25022.463      28.3222   0.94632332 
    8200    234.22797   -191.38455    204420.41   -23295.274    1700.0904   -24995.364     28.34823   0.94632332 
    8300    240.32042   -464.90886    204420.41   -23243.038    1744.3111   -24987.349     28.90984   0.94632332 
    8400    245.37361   -338.78559    204420.41    -23234.93    1780.9885   -25015.919    29.013048   0.94632332 
    8500    238.52067   -480.62695    204420.41   -23271.785     1731.248   -25003.033    29.181875   0.94632332 
    8600    237.16843   -419.31822    204420.41   -23277.242    1721.4331   -24998.675    29.320569   0.94632332 
    8700    240.52644   -205.11098    204420.41   -23289.262    1745.8064   -25035.069    29.649045   0.94632332 
    8800    241.31629   -408.28494    204420.41    -23286.53    1751.5394    -25038.07    30.028028   0.94632332 
    8900    240.47558   -243.38259    204420.41   -23313.093    1745.4373    -25058.53    30.252689   0.94632332 
    9000    243.71812   -389.86764    204420.41   -23275.764    1768.9725   -25044.737    30.431124   0.94632332 
    9100    237.31468   -286.32056    204420.41   -23279.751    1722.4946   -25002.246    30.819018   0.94632332 
    9200    240.06824   -352.76987    204420.41   -23233.067    1742.4807   -24975.548    31.469054   0.94632332 
    9300    234.21293   -437.50859    204420.41   -23306.711    1699.9813   -25006.692    31.986766   0.94632332 
    9400    235.99395    -412.7438    204420.41   -23273.215    1712.9084   -24986.123    32.158894   0.94632332 
    9500    236.94865   -419.46207    204420.41   -23306.747    1719.8378   -25026.585    32.656488   0.94632332 
    9600    240.06041   -410.17357    204420.41   -23308.183    1742.4239   -25050.607    32.934902   0.94632332 
    9700    237.36566    -280.6825    204420.41   -23271.388    1722.8646   -24994.253    33.423054   0.94632332 
    9800    245.46398    -384.2919    204420.41   -23229.567    1781.6445   -25011.212    33.634734   0.94632332 
    9900    242.43309   -327.09932    204420.41   -23267.897    1759.6454   -25027.542    33.953859   0.94632332 
   10000    237.84761   -358.08741    204420.41   -23276.556    1726.3627   -25002.919    33.984982   0.94632332 
Loop time of 10.6829 on 64 procs for 10000 steps with 8482 atoms

Performance: 404.384 ns/day, 0.059 hours/ns, 936.075 timesteps/s
100.0% CPU use with 64 MPI tasks x no OpenMP threads

MPI task timing breakdown:
Section |  min time  |  avg time  |  max time  |%varavg| %total
---------------------------------------------------------------
Pair    | 0.00082095 | 3.8809     | 8.7647     | 168.7 | 36.33
Neigh   | 0.0049359  | 0.23485    | 0.52201    |  36.7 |  2.20
Comm    | 0.19116    | 1.9541     | 7.1277     | 125.6 | 18.29
Output  | 0.15715    | 0.15722    | 0.15795    |   0.0 |  1.47
Modify  | 0.31502    | 4.3534     | 10.222     | 195.8 | 40.75
Other   |            | 0.1025     |            |       |  0.96

Nlocal:    132.531 ave 264 max 0 min
Histogram: 16 0 2 7 7 0 2 15 5 10
Nghost:    808.469 ave 1146 max 520 min
Histogram: 14 10 7 1 3 3 2 0 17 7
Neighs:    0 ave 0 max 0 min
Histogram: 64 0 0 0 0 0 0 0 0 0
FullNghs:  13280.9 ave 29129 max 0 min
Histogram: 17 15 0 0 0 0 2 11 9 10

Total # of neighbors = 849976
Ave neighs/atom = 100.209
Neighbor list builds = 576
Dangerous builds = 0
write_data 	    ${DIR}/data.${NAME}_eq
write_data 	    run_5/data.${NAME}_eq
write_data 	    run_5/data.ibeam_cooling_5_eq

undump              1
unfix               4



################################################
#######         Run Simulation         #########
################################################

reset_timestep      0
timestep	    10.0
log                 ${DIR}/log.run_${NAME}
log                 run_5/log.run_${NAME}
log                 run_5/log.run_ibeam_cooling_5
