LAMMPS data file via write_data, version 7 Aug 2019, timestep = 5000000

4084 atoms
1 atom types

1.1419225389248311e-01 5.1305807746105920e+01 xlo xhi
1.1419225389248311e-01 5.1305807746105920e+01 ylo yhi
1.1419225389248311e-01 5.1305807746105920e+01 zlo zhi

Masses

1 18.15

Atoms # atomic

582 1 6.1954978295911245e-01 1.6231658233285977e+01 2.2222974320074984e+00 0 1 1
615 1 9.2401848740397750e+00 1.9220625088255734e+00 5.3405011793296098e-01 -1 0 1
3673 1 5.0627677346108184e+00 3.0823234464348634e+00 1.9672019865427828e+00 2 -2 1
1447 1 2.3756479075381900e+01 5.9042384254142077e-01 2.5743113845540551e+00 -1 0 1
3698 1 1.0231810311800455e+01 2.0809189654079283e+00 2.8867347592780503e+00 -1 1 2
3906 1 1.2713727445978188e+01 3.2123935932996122e+00 2.5027263330531659e+00 -1 2 1
3321 1 1.5246272958118995e+01 2.2056902049552725e+00 1.4139854959006724e+00 -1 2 0
3870 1 1.7247715396534122e+01 2.2044049531652847e+00 3.8565256265273278e+00 -1 1 0
1657 1 1.9521998561459522e+01 2.2218190296343554e+00 2.3744857714809626e+00 0 2 -1
2451 1 1.3197733778695010e+01 1.6621384764710434e+01 5.5015991230019623e-01 2 0 0
1174 1 2.4930864775270269e+01 2.8911614195107567e+00 2.5736430671981245e+00 -1 0 0
2829 1 8.6741729256820865e-01 2.0222295971287178e+01 3.9951579485715190e+00 0 2 1
2983 1 1.4061992683281170e+00 3.8564454880554790e+00 3.2998417642598730e+00 2 0 -1
3604 1 3.1458244670168902e+00 4.6521228785542705e+00 1.6227876352627979e+00 -1 2 0
1852 1 9.2414144872340298e+00 6.2557653934213882e+00 2.8506701413411197e+00 0 0 0
72 1 2.1240334301122878e+01 3.8310148195795890e-01 3.4621835400592111e+00 -2 -1 0
1929 1 1.3313317245750909e+01 5.7253851273401919e+00 1.3505175635609938e+00 0 3 2
1723 1 1.5995119080948454e+01 5.9583491550007803e+00 1.0846685787912880e+00 1 0 1
1933 1 2.0811267115948532e+01 4.5404428620890958e+00 3.0409912620611133e+00 0 0 0
2242 1 2.1543484941052270e+01 6.0170648576123709e+00 4.9936472750289834e-01 -1 1 -1
2372 1 2.1574598944458003e+00 8.8171707895125895e+00 1.9183334931101501e+00 1 -2 2
583 1 4.4803763312008407e+00 4.9671620128474075e-01 1.3977045642556902e+00 2 2 1
3098 1 4.0751646109848600e+00 7.0331106233680947e+00 2.4647927326702952e+00 0 3 0
697 1 6.2277806129181845e-01 5.8013043074144885e+00 1.1418370139425949e+01 0 3 2
3987 1 1.1660540351735117e+01 7.0901023201799394e+00 3.1930785922853859e+00 2 2 2
456 1 1.1636809542278121e+01 9.4932379005082765e+00 1.7211659183261663e+00 0 0 0
1968 1 1.9154881793090905e+01 8.7437183257726510e+00 2.9507469705249849e+00 -1 1 0
3742 1 2.5293990120658400e+01 1.7007318387398666e+01 1.0618848787080696e+01 3 2 0
3308 1 2.3293543258837904e+01 8.0512907433439800e+00 9.3764115424910244e-01 0 1 1
2636 1 2.4463209526840828e+01 7.1674480866904222e+00 3.0684069552038107e+00 3 0 -1
692 1 2.1120416291411015e+01 2.5588255526645341e+01 1.1588546216480795e+01 -1 -1 -1
3701 1 6.6675565924480606e+00 1.0062577478882798e+01 5.3298077080463568e-01 0 1 0
3898 1 7.5722895891123114e+00 1.0111933069310217e+01 3.1220821726043435e+00 0 2 1
1764 1 1.0033788539475729e+01 1.1061428891101654e+01 2.7339033238843307e+00 0 0 2
2977 1 1.4278859624619496e+01 1.0289907680240985e+01 1.1324788275007593e+00 1 0 0
3975 1 1.5096247181566751e+01 2.1929587000313134e+01 5.0075742856788796e-01 -2 1 1
3578 1 1.8937623675356630e+01 2.0294812682928870e-01 1.2902836331887432e+01 2 0 -1
2089 1 2.2619870131357779e+01 1.0575115611960124e+01 1.5480864876456235e+00 1 0 -1
2023 1 1.6017677065292261e+01 2.3298608129978224e+01 1.4772190823786389e+01 0 -1 1
3104 1 4.4897845274006958e+00 1.3267059815620312e+01 2.8645857735808886e+00 1 2 -2
3586 1 4.8676140983232976e+00 1.6096618902779525e+01 2.6212697690194200e+00 1 1 1
1954 1 9.1995075101164243e+00 1.5166410674504149e+01 2.9290985405497536e+00 3 2 2
3543 1 1.0578276390890895e+01 1.3444681406476571e+01 1.4506541641970994e+00 1 1 2
1240 1 1.2925382035319691e+01 1.3998245736866959e+01 1.5024993316281241e+00 1 1 -1
894 1 1.8233052604550593e+01 1.3259852272526162e+01 2.7745522329331824e+00 0 0 0
2288 1 2.0600342394712541e+01 1.4097603853090499e+01 2.3868558700817721e+00 -1 1 1
786 1 3.0437332854575319e+00 1.6683906093869339e+01 9.3066684740343808e-01 0 -2 1
3402 1 3.4167924824653975e+00 1.9329676812539795e+01 6.0518875128775529e-01 1 0 2
292 1 2.4912086351632720e+01 1.2233291392326164e+01 8.4049842701559563e-01 0 1 2
343 1 7.2592995006541337e+00 1.6444482937743981e+01 1.4325326037494792e+00 -2 1 -1
763 1 7.5509199111868313e+00 1.9019308462437934e+01 1.2408660551595962e+00 0 1 2
540 1 1.1954837159360038e+01 1.8596430147833946e+01 1.6132370919703667e+00 1 2 -1
2290 1 1.0710817307530679e+01 1.7131425727512099e+01 3.8249721066367446e+00 2 -1 0
1571 1 4.5352670688542283e+00 1.2005315367614307e+01 6.0303792773287412e-01 0 -1 1
2078 1 1.7048305184946283e+01 1.7712697633703911e+01 3.1115521718277459e+00 1 1 2
1715 1 2.0657225177564438e+01 1.6426009838515871e+01 1.0258569116330842e+00 -4 1 1
839 1 1.9563716099716345e+01 1.8423435164778688e+01 2.6267980343505419e+00 -1 1 0
656 1 2.4461698136950400e+01 1.8734140690606797e+01 1.7911821498621794e+00 0 -1 0
1642 1 3.1267433240228510e+00 2.0687037464243421e+01 2.9607995394788884e+00 1 1 2
4037 1 7.5077959046575646e+00 2.0363933754222543e+01 3.4868315110570283e+00 1 -1 1
351 1 1.3589376019488839e+01 2.0833682111960876e+01 2.4299481351905765e+00 1 -1 1
1065 1 2.3328861934144481e+01 2.0596620244436913e+01 3.1567478155926620e+00 0 -1 1
3989 1 2.3097275443917134e+01 2.2380596770313787e+01 1.0779847573918053e+00 3 0 -1
3113 1 1.1731805122382362e+00 2.4444620241779667e+01 1.0948031475255957e+00 2 2 1
1711 1 3.2766636492650933e+00 2.3388118303154585e+01 2.5594945981705246e+00 1 1 -1
2329 1 5.9051650537223921e+00 2.3788105275080113e+01 1.5636893978657893e+00 0 0 2
1553 1 7.6651639011273840e+00 2.2923400274735101e+01 3.2641400645239931e+00 -1 0 0
2812 1 1.0062255478830236e+01 2.3198848592580941e+01 2.0811002796014941e+00 1 1 0
2544 1 1.7603723269835758e+01 2.2749936306798944e+01 8.0383075950979266e-01 -2 2 -2
2228 1 1.8920104609391860e+01 2.3913324180224542e+01 2.7871214989602207e+00 -1 3 1
2276 1 2.1595500876505493e+01 2.4527317509406544e+01 2.0580278528182152e+00 1 0 -1
3324 1 6.0756689077970751e+00 6.2931555466530886e-01 5.4348820820545560e+00 2 0 1
174 1 2.0440921913189340e+00 1.3267625008910904e+00 6.9657194205032962e+00 2 2 1
170 1 1.8708128725663830e+01 8.8220921981496279e+00 3.3175570146143041e-01 -2 2 0
3205 1 6.0871476506953863e+00 3.1050938502197845e+00 4.4220046010515430e+00 3 2 0
51 1 7.6929441422443761e+00 2.4880635430145801e+01 1.6751085427394482e+01 -1 -2 1
2989 1 1.3386526461438811e+01 3.0287123363762571e+00 5.1926683481423526e+00 -1 2 2
3142 1 1.2298170177454598e+01 2.0495434450943382e+01 1.5711422491284232e+01 0 1 0
3694 1 2.0470831590704055e+01 7.6847407608917528e-01 6.0579199565961073e+00 2 2 -1
3 1 2.3447621059144148e+00 3.9705041852381910e+00 5.8954519138132317e+00 0 -1 2
2916 1 5.1135292618106236e+00 4.7220740577993112e+00 5.7923758266144789e+00 1 2 1
3615 1 8.7497443492181937e+00 3.9837217778121072e+00 4.0683771770896984e+00 -1 2 -1
1400 1 9.6692323413128936e+00 4.0311844013504743e+00 6.4686808140659515e+00 0 3 0
3647 1 1.6038472825006103e+01 4.0864300884201210e+00 5.4458097879223013e+00 -2 1 0
2668 1 1.6692378127171729e+01 6.1361529427254222e+00 3.7554778750136699e+00 1 1 1
3096 1 2.1008756184097106e+01 3.3949469680316149e+00 6.1004783992398313e+00 -1 -1 1
3357 1 2.3617844872110730e+01 4.7586306591882499e+00 3.8229698118788584e+00 -1 2 -2
3177 1 2.3596822988488437e+01 4.3143352208693138e+00 6.4225488827770922e+00 -1 1 2
1280 1 3.6762203588425759e+00 8.8385393101643857e+00 6.1412238714584895e+00 -1 1 0
1802 1 5.1800672290346901e+00 7.1137807531811736e+00 4.8385121173142993e+00 1 2 2
1122 1 7.6957547073970760e+00 7.9529819869241525e+00 4.5962164782630692e+00 0 0 0
59 1 8.8633802454477255e+00 7.9721210731928336e+00 6.8314537950177385e+00 0 2 2
815 1 1.2710347634210734e+01 7.0416564548171854e+00 5.7326438292204793e+00 0 1 1
2153 1 1.1480101361883721e+01 9.0885457450401308e+00 6.6510150934118100e+00 1 -1 2
1081 1 1.5370909938867120e+01 7.7289347775823254e+00 5.3369660944810846e+00 -1 0 1
3972 1 1.9280806004534018e+01 6.2489865999994691e+00 4.3948758366843048e+00 1 0 1
1956 1 2.3515864965932444e+01 8.7484560139903316e+00 5.0504401622797159e+00 -1 0 2
562 1 1.9311487552203506e+00 9.7066044187183849e+00 4.6873833644386655e+00 -1 0 0
230 1 1.8430093400370342e+00 1.2215783477793000e+01 4.2859694593537689e+00 1 -1 -2
2268 1 5.2881307479463722e+00 1.0843294580558879e+01 6.7067778931304227e+00 1 1 1
3083 1 6.3889897608846331e+00 1.2038804957450866e+01 4.3951558762007261e+00 2 0 0
3248 1 1.1378520177905109e+01 1.1260245970161066e+01 5.2545706829413881e+00 1 1 1
3903 1 1.5211794547123068e+01 1.0228355137719905e+01 3.8297209034126558e+00 0 2 0
1615 1 1.3665669767445641e+01 1.2108460530067365e+01 5.0156079789880792e+00 1 -2 1
2799 1 1.7843472548248467e+01 1.0779921736086363e+01 3.8368522054566498e+00 -1 0 1
3168 1 1.8538991726204390e+01 1.1260453051145822e+01 6.4611967982205094e+00 2 3 0
1728 1 2.1464864925451156e+01 1.0035536331566506e+01 4.1902594827341577e+00 -1 1 2
3815 1 2.0984046840404332e+01 1.1969268398359445e+01 6.0767010676268676e+00 0 2 1
2012 1 2.3644766543550766e+01 1.0775504246191034e+00 1.2319905864964790e+01 0 4 -1
1181 1 1.7319923054210282e+00 1.3869503748474029e+01 6.4070467692242303e+00 -1 0 -1
1595 1 8.0677040638021715e+00 1.3912900104173422e+01 5.0770560711134838e+00 2 1 2
2083 1 1.0012829728321472e+01 1.2995194889719979e+01 6.6202311859165563e+00 0 1 4
1672 1 1.4051802790122903e+01 1.4675310943028204e+01 3.8881907301987324e+00 2 -2 -1
3591 1 1.6670778096466837e+01 1.5217393327739927e+01 4.0638948569137678e+00 -1 -1 0
3557 1 1.7414582035886610e+01 1.5758698786431109e+01 6.5036133310524544e+00 2 0 0
4059 1 2.1588307083471200e+01 1.4404280977150533e+01 4.8003752320175961e+00 0 0 0
671 1 1.9999941216967986e+01 1.5557654644506750e+01 7.0271609075462633e+00 0 -1 0
932 1 2.4250150583879297e+01 1.4547595724699100e+01 4.3729816252536091e+00 2 2 0
2852 1 2.5304972641379727e+01 1.4253622132396666e+01 6.7097224240920594e+00 1 1 3
1222 1 2.3308085896633086e+00 1.6374973443302139e+01 5.9917955718612967e+00 2 3 -1
2006 1 4.4874632054426605e-01 1.7513970201698648e+01 4.3825670922949485e+00 3 -1 4
2241 1 4.7938333090572289e+00 1.7160515767622140e+01 5.2184110172777052e+00 -1 1 -1
410 1 6.6600807451267654e+00 1.5819336979927346e+01 6.6761479395732763e+00 1 0 -1
590 1 1.2624536595341500e+01 1.6234435907204091e+01 5.6004575818133810e+00 0 -1 0
2900 1 1.4246316788102247e+01 1.8261997548597829e+01 6.2162328561524696e+00 -1 1 1
1105 1 2.0948962471155038e+01 1.8283843480029216e+01 6.8841124316822198e+00 1 0 0
2413 1 2.3593661033061480e+01 1.7813060594350343e+01 6.4274019179165691e+00 -1 -1 -2
847 1 2.5061542044467362e+01 1.6942736235394456e+01 3.9975038454498035e+00 -2 -1 1
1133 1 2.3231688034011038e+00 2.5416168492190582e+01 1.2448142123203285e+01 0 1 -1
833 1 3.0042905264158373e+00 2.3061687308566629e+01 1.6211737794439841e+01 -1 -2 0
893 1 5.0313214545449521e+00 1.9837831623325464e+01 4.5174507382274269e+00 0 0 -1
448 1 9.4035636033731311e+00 1.9190051981585530e+01 5.2265220654800055e+00 0 0 -1
1877 1 1.0875540857048447e+01 2.1230918826530811e+01 6.0714124588513432e+00 0 0 3
3404 1 1.1832672341277737e+01 2.2311178525078255e+01 3.9998481650525872e+00 1 1 1
2581 1 1.5356019716691845e+01 1.9647162596160921e+01 4.2516104454771604e+00 0 -1 0
649 1 1.6843400203755881e+01 2.0911460190691027e+01 5.9725829151797374e+00 -1 -1 0
3741 1 1.9227286885612411e+01 2.2039279458805233e+01 4.6570383540706421e+00 0 1 -2
469 1 2.0902779378883160e+01 1.9847604382932019e+01 4.4287991855598454e+00 -1 0 0
2360 1 2.4738550833060440e+01 2.1955180942942810e+01 5.2092323709719581e+00 -1 -1 0
748 1 3.3067692097065007e+00 2.4385258998984135e+01 5.0951047189667955e+00 1 -1 0
712 1 7.1958152015005805e-01 2.3881087031051496e+01 6.0792732586067366e+00 2 1 1
316 1 5.0544660275161419e+00 2.3517349345991025e+01 6.7169673542229136e+00 0 0 2
2710 1 7.5986336501652243e+00 2.4034781457461666e+01 5.5197152122890838e+00 0 2 0
3153 1 1.3609918312371830e+01 2.3895363468450281e+01 5.1727079384296628e+00 0 3 -1
857 1 1.5830249999787224e+01 2.3146762238161873e+01 6.5718630648628489e+00 0 1 1
3033 1 2.0525315797289611e+01 2.3389150971741262e+01 6.4974805165047620e+00 -3 -3 0
211 1 2.4250380091290694e+01 2.5298273157932375e+01 7.8856940894574565e+00 1 -2 0
1545 1 2.2970898292682463e+01 2.4093039057564578e+01 5.7590722861069636e+00 1 1 -1
556 1 4.9611432120139115e-01 2.0263184512983665e+00 9.0461254981244199e+00 -1 1 1
1924 1 4.5029146942740423e+00 8.6259800886231186e-01 7.6186889669710878e+00 -1 -1 2
2595 1 5.4833544281617366e+00 2.5509107163440152e+00 9.3614828386670297e+00 1 2 -1
68 1 9.5204089399365053e+00 1.4383553911656910e+00 7.8679771666277913e+00 -1 1 -1
1517 1 7.9613141569405457e+00 1.9089052350374307e+00 1.0164467225956642e+01 0 3 0
1688 1 1.1742406787349831e+01 6.7393557177884011e-01 9.2405124072538385e+00 -1 3 1
62 1 1.6373058415048252e+01 1.3551373938939824e+00 9.2203059879672953e+00 0 1 1
278 1 2.3802044310062410e+01 2.1795354936226752e+00 8.4003683253430488e+00 0 1 0
2690 1 1.0477468933696230e+00 5.6729030751821483e+00 7.1229311309937460e+00 3 1 1
1115 1 5.8637399484839952e+00 4.7691107509162149e+00 8.4248090438644709e+00 0 2 0
205 1 8.3649207035148780e+00 5.5774923353507777e+00 8.0408365708506970e+00 0 1 0
2200 1 1.2108222360463298e+01 4.8086685157060343e+00 6.7775482546596910e+00 -1 0 0
390 1 1.3176420798989977e+01 4.7756487124836893e+00 9.2651399863587933e+00 1 1 0
442 1 1.5769775796161838e+01 5.5396134803938653e+00 9.3068508079711059e+00 1 2 0
2014 1 1.7182732568955650e+01 3.7717429287437390e+00 7.9076835893538382e+00 -2 1 0
3754 1 1.9932277137003055e+01 4.5727354609135586e+00 8.1707261279767991e+00 1 0 1
526 1 2.7858026036173502e+00 7.6236023277290244e+00 8.1320359765251933e+00 -1 2 1
1925 1 1.1608546090753433e+00 9.5300059729857534e+00 9.1704003367984264e+00 0 0 4
112 1 4.4542632213197537e+00 6.5486975233672435e+00 9.8005458242199737e+00 1 0 1
368 1 6.0318429720886861e+00 8.4899673532210080e+00 1.0386730120490091e+01 3 -2 0
986 1 1.2056236055935656e+01 8.9579392870233079e+00 9.5626804412284336e+00 0 -1 1
3369 1 1.6094905852733611e+01 7.7632772151329732e+00 8.1338770370897659e+00 2 1 0
2849 1 1.8474513210737445e+01 8.9082379393449909e+00 8.1342962483710597e+00 1 1 0
2053 1 1.9855010113419365e+01 6.8812269394396459e+00 6.9877984099892325e+00 -2 -1 1
2862 1 2.2549442109207167e+01 6.6963043874470660e+00 7.1047941617039134e+00 2 -1 -1
1696 1 2.3887447279738186e+01 7.2560187334503272e+00 9.4277573376797719e+00 -1 2 0
2705 1 2.8005781504208733e+00 1.1459309754945995e+01 1.0014156958358756e+01 3 2 0
1184 1 3.9387259541956663e+00 1.2571848749312448e+01 8.0096275652920426e+00 2 0 0
1096 1 7.4239095447761558e+00 9.6481169628160401e+00 8.3147540987798436e+00 -1 2 0
531 1 8.9604496951995216e+00 1.1613845624456330e+01 8.9435935477971089e+00 2 1 -1
209 1 1.4533755512056825e+01 9.7537360000071658e+00 9.2328519674449883e+00 0 2 2
3161 1 1.4795302853611455e+01 1.2094184622036652e+01 7.4625969450966458e+00 0 1 1
2796 1 1.8124519342900491e+01 1.3089897504911532e+01 1.0276710249545699e+01 -1 1 -1
675 1 2.3051297298345855e+01 1.1607282102097999e+01 1.0037257194117929e+01 -1 1 3
1068 1 2.3314705318893839e+01 1.2358631170300043e+01 7.4837427005063342e+00 1 -1 0
3535 1 5.3837971738070758e+00 1.4625730239330760e+01 8.7584784257101607e+00 2 0 0
3649 1 7.1510479115132215e+00 1.3503373792032415e+01 1.0181726029902730e+01 2 0 -1
3396 1 1.1649689326689378e+01 1.4987669430652252e+01 7.6148238899013485e+00 2 0 -1
2689 1 1.3311132065751677e+01 1.3458475438722969e+01 9.2584618755550103e+00 0 1 -1
942 1 1.7295771577310987e+01 1.3221568709189263e+01 7.8060923901665520e+00 0 0 0
1799 1 2.1276108867873180e+01 1.5768709263329752e+01 9.5897147949401429e+00 0 2 -2
2099 1 2.3827027578867970e+01 1.6006490996466724e+01 8.4286509905753011e+00 -1 -1 1
1268 1 2.1316196029751602e+00 1.7599860638193192e+01 8.4174998510975225e+00 0 0 0
2712 1 4.0640300157954670e+00 1.6395047132577499e+01 1.0275639324663539e+01 0 0 3
3042 1 8.0523505624731548e+00 1.7765082141500269e+01 7.2958243004060348e+00 4 -2 3
1198 1 1.0071769991691580e+01 1.6693734292436819e+01 8.7131313853234769e+00 1 1 0
4015 1 1.1795295320912430e+01 1.8478980570123056e+01 9.7258329953372478e+00 1 1 0
784 1 1.4945247392007445e+01 1.5841320192403222e+01 1.0050862068864557e+01 -1 1 2
1899 1 1.5713335747199610e+01 1.6975339229914635e+01 7.9757736536943238e+00 3 0 0
1600 1 2.3128854069991291e+00 2.0361754607022551e+01 8.3707543375447582e+00 2 3 0
591 1 2.1720541818872277e+00 2.1424736275876359e+01 1.0766993779916447e+01 2 -2 -1
331 1 4.6981669377478559e+00 2.0696746542797587e+01 7.1614358455481577e+00 -2 0 1
4001 1 6.8565936559556322e+00 1.9761819899888703e+01 8.7021061878356072e+00 -2 0 1
2746 1 8.5783518517993631e+00 2.1784792257691141e+01 9.3230058093367685e+00 1 -2 3
2741 1 1.2849942024936846e+01 2.0174404557226378e+01 7.7980166250386134e+00 1 1 -2
2280 1 1.4366475496323956e+01 2.1972554655751985e+01 8.9855972781044748e+00 2 0 0
3468 1 1.7297744676290808e+01 1.9360119487232616e+01 8.2013529594235504e+00 0 0 0
3537 1 1.6333856389189862e+01 2.0891316661463456e+01 1.0364722147178751e+01 -1 -2 -1
260 1 1.9995418586214832e+01 1.9625701110437060e+01 8.8971734457669704e+00 -1 1 1
944 1 2.1373870586243804e+01 2.1847568242853448e+01 8.7569446258483872e+00 1 1 1
1879 1 2.4870037334076095e+01 2.0015499179644220e+01 7.2961725996867708e+00 0 0 1
2086 1 2.3937525182224203e+01 2.0968056492330046e+01 9.6868965004997509e+00 1 1 1
2065 1 1.9000101203339981e+00 5.8081526297462582e-01 7.0837913409873610e-01 2 0 -3
1828 1 2.4373556824898688e+00 2.4061051933637149e+01 1.0188502787091338e+01 0 -2 0
195 1 4.9882520613192449e+00 2.4827078252572594e+01 9.3154872186667479e+00 0 0 0
4021 1 9.5472821704703037e+00 2.3291586557268143e+01 7.2127175018315208e+00 0 2 2
883 1 1.0928020609069414e+01 2.4980529684680317e+01 8.6354822012408512e+00 1 2 4
3857 1 1.2992527250826324e+01 2.3950715021133249e+01 9.9024287325058840e+00 1 1 0
2726 1 1.6835793325178745e+01 2.4793762382598832e+01 8.3689316255263773e+00 1 -3 1
3221 1 6.5137474998129063e-01 1.5024734077906372e+00 2.8258926102160746e+00 1 0 0
3061 1 2.5123934984530077e+01 1.0329501605278598e+01 7.0803981771386733e+00 1 0 1
1031 1 2.4671272668128712e+01 2.3622633229773903e+01 1.0104762583000362e+01 0 1 -1
914 1 1.5074082667957762e+00 1.2370424287745982e+00 1.1143684930012761e+01 0 2 0
1565 1 3.8450097175602060e+00 2.7836769091787903e+00 1.1730870179987235e+01 -1 3 -1
2008 1 1.1221735274276112e+01 2.5605127407941310e+00 1.2952210957969429e+01 0 2 0
3739 1 1.2939336834345241e+01 2.5461069438153348e+00 1.0759888574441151e+01 -1 1 1
579 1 1.5248480645768932e+01 1.4516138373466609e+00 1.1656296555906192e+01 1 -1 0
825 1 1.6447529187454776e+01 3.1616068255204550e+00 1.3290298973488415e+01 1 1 2
4030 1 7.6455493410383157e+00 2.1347963258531085e+01 1.4309171827086681e+01 0 2 2
2996 1 1.9081924686299779e+01 9.8648447449018528e-01 1.0106973385814374e+01 0 -1 1
1794 1 2.0492299309736854e+01 3.1419803542384850e+00 1.0344729388049601e+01 -1 0 1
819 1 2.3725096533739716e+01 2.5692294961629695e+01 1.1937226807191198e+01 -1 0 -1
2614 1 2.3304490096516854e+01 3.1703926310766972e+00 1.0797164146532088e+01 -3 0 2
2981 1 5.7916017256960011e+00 7.5945306363782050e+00 5.5359714148808892e-01 0 0 0
2811 1 3.0462811719981842e+00 5.2593633412223548e+00 1.1525171325824308e+01 -1 1 -1
226 1 9.4872612775796785e+00 5.7123030316985570e+00 1.0546174042633808e+01 -2 2 2
997 1 9.0223747250449637e+00 3.5200521804657394e+00 1.2106902337067659e+01 -1 1 0
1886 1 1.6525819468836868e+01 5.4613208832971774e+00 1.1847533084178572e+01 -2 2 1
1298 1 1.8959130048134426e+01 6.7510788792809011e+00 1.2068134226419476e+01 2 2 -1
2963 1 2.0499918534160429e+01 4.5660257047090935e+00 1.2721053708211167e+01 1 1 1
2844 1 2.4782262897617990e+01 5.3694725309838924e+00 1.1590551066317357e+01 -1 1 0
1332 1 2.3953324135905437e+01 6.2938215370783785e+00 1.4003052228203575e+01 2 1 1
2713 1 7.7818379841049701e-01 9.5606613922698216e+00 1.3342835576916471e+01 0 2 0
814 1 1.4372339539572717e+01 2.5142649562378981e+01 1.6291369085021902e+01 1 -1 -1
2004 1 3.2892056626451733e+00 9.2141207547598576e+00 1.3472255010443067e+01 0 1 0
2768 1 7.9794938669952886e+00 7.5257830190638861e+00 1.2067050729178520e+01 0 2 1
3861 1 1.2033067668210727e+01 6.7471717096892219e+00 1.0850412295634522e+01 2 0 1
2251 1 1.2947023369653225e+01 6.7794525761618312e+00 1.3374729285036670e+01 2 1 -1
1370 1 1.5618202868266604e+01 7.5471204961200202e+00 1.3134613525591654e+01 2 1 1
99 1 1.9574083628854968e+01 8.9009752966804641e+00 1.0490362617587476e+01 0 -1 -1
1026 1 2.2447753697912038e+01 9.0392674392113079e+00 1.0710564844680148e+01 1 1 -2
2677 1 2.3173761342001516e+01 9.0311764266937651e+00 1.3254489041230567e+01 0 -1 2
1001 1 9.3517757523859544e+00 2.3175317864886434e+01 1.5494892570781040e+01 -1 -1 1
272 1 4.6584405579648589e+00 1.0217606074000516e+01 1.1664806233525976e+01 -1 -2 -2
446 1 5.9247664221743621e+00 1.2222285794342952e+01 1.2182552762702668e+01 1 -2 1
2402 1 9.5464137008143215e+00 9.7465644897002974e+00 1.3024253107956442e+01 -2 -1 0
1668 1 1.0586367497545456e+01 1.0655395418333024e+01 1.0823283765373622e+01 -3 -1 1
419 1 1.5604610602400014e+01 9.8351826350518170e+00 1.1736646031316818e+01 0 3 0
1572 1 1.4279283291731906e+01 1.1608116871876813e+01 1.3384363624329616e+01 -2 0 1
1401 1 1.7985617284477684e+01 1.0840750710531374e+01 1.1552926990874703e+01 2 1 0
956 1 2.5407689572695698e+01 1.2412341666132216e+01 1.1196301205332833e+01 2 0 2
3838 1 2.4906969563768968e+01 1.1067796934547873e+01 1.3958573966662367e+01 0 -1 0
45 1 1.3385058642252838e+00 1.3188202072680392e+01 1.1309159840326121e+01 -1 2 -1
2044 1 2.6267158884738828e+00 1.5404083290190494e+01 1.2134455296143962e+01 1 1 2
3769 1 4.4063052833250875e+00 1.3985692853759204e+01 1.3658211364064170e+01 0 2 2
1864 1 8.8350012787676278e+00 1.5541327941920111e+01 1.0780968055068033e+01 -1 1 1
1171 1 1.2357531554584298e+01 1.2698195288594958e+01 1.1713110579914328e+01 0 0 -2
3056 1 1.0871882099927031e+01 1.4876338077616655e+01 1.2585957074195129e+01 -1 1 2
3202 1 1.7032026215115117e+01 1.4974840340575176e+01 1.1908265952491496e+01 2 1 1
3269 1 2.0898210730055649e+01 1.3222812448232823e+01 1.0647954022462160e+01 -2 2 0
166 1 2.0690849512118465e+01 1.3467933968604665e+01 1.3292890583340176e+01 -2 2 -3
882 1 1.8956476783113494e+01 2.5706461303399124e+01 7.3528791421805586e+00 1 0 0
2194 1 9.6317779964117234e-01 1.7041567483051448e+01 1.3530850590969060e+01 -1 -2 1
2110 1 5.6434373990893532e+00 1.8653123993548277e+01 1.0884324634639066e+01 1 -2 0
953 1 7.3650800858868353e+00 1.7258075478508186e+01 1.2214227263997500e+01 2 1 -2
2715 1 1.2488618755290764e+01 1.6661845214986574e+01 1.3428584782817959e+01 3 -1 -1
1182 1 1.3641185191465819e+01 1.7723171946724474e+01 1.1310518620925729e+01 1 -1 -1
1706 1 1.8529723273241189e+01 1.7053490166922067e+01 1.2937822024838903e+01 1 0 0
406 1 1.6854140615756958e+01 1.8723045103942958e+01 1.4120399864844055e+01 0 1 0
693 1 2.0230043863292284e+01 1.7669249677116998e+01 1.1136636144843809e+01 -1 0 1
3904 1 7.0932607041281681e-01 2.5120997939182896e+01 8.3910011090555034e+00 0 1 2
633 1 4.1241176514669453e+00 2.0081535057545139e+01 1.2130580730392110e+01 1 0 -1
869 1 5.8029759772263532e+00 2.2153513348483980e+01 1.2934592920070983e+01 -2 1 -1
1424 1 9.0028255097572050e+00 1.9344181071150071e+01 1.2988682827777629e+01 -2 -2 2
3140 1 1.0424773913296104e+01 2.0527984124644707e+01 1.1236415853512014e+01 -2 2 0
3617 1 1.3904547051589315e+01 2.1529556570784674e+01 1.3763161962810821e+01 -1 0 1
1411 1 1.5281106213246284e+01 1.9676881524849673e+01 1.2351060266368711e+01 0 1 1
3210 1 2.2241471439165522e+01 1.8783460691059766e+01 1.3082965116666639e+01 0 1 1
439 1 2.0375971519009099e+01 2.0908244235480666e+01 1.3277887557585592e+01 -1 -1 0
305 1 2.4553611673981354e+01 1.9344593059929323e+01 1.1582919902175187e+01 0 0 0
1251 1 8.0651999679398614e+00 6.0426521499268837e+00 5.0016858425992150e-01 0 0 1
2686 1 7.1367193565439981e+00 2.3425887229796452e+01 1.1065508284876092e+01 2 1 2
2535 1 1.1886915184625423e+01 2.2628521891158329e+01 1.2035179492965680e+01 -1 -1 1
2635 1 1.0567975393446046e+01 2.4560383825395146e+01 1.3630044687401845e+01 1 2 -1
3338 1 6.4460890179876476e+00 2.0264155498521301e+01 1.6342757371576287e+01 1 1 0
1010 1 1.6460750998071852e+01 2.4678596945733752e+01 1.2509915986693271e+01 0 0 -1
482 1 1.7881873997013898e+01 2.3075985998420613e+01 1.0765739982292228e+01 0 -1 1
3170 1 1.8222611801579319e+01 2.0958544459451868e+01 1.4793080833618799e+01 0 0 -1
1148 1 2.0595995165138870e+01 2.2850392401572741e+01 1.1303977003953692e+01 1 2 1
2639 1 1.4908485449957496e+00 2.0899992212309634e+01 1.5447383389917206e+01 0 1 0
3858 1 1.1450868601175770e+00 1.1162482710586918e+00 1.5423536272840694e+01 -1 3 1
3239 1 5.2437012692417486e+00 2.4683286230369008e+00 1.4004632442031596e+01 -2 2 0
2000 1 3.3887426498672752e+00 2.4855825897342605e+00 1.5768447351801976e+01 -1 2 1
1971 1 9.0514715133696484e+00 8.5932373431557452e-01 1.6401994784327037e+01 -2 2 0
1561 1 1.0769045355278980e+01 3.5410947502339990e-01 1.4372150800109008e+01 -1 2 0
3912 1 2.2880141971726321e+01 1.6594525886565730e+01 1.4357577873728248e+01 0 -1 2
1458 1 1.7301001377251545e+01 1.2989385143418650e+01 1.7213773288100598e-01 0 1 2
1694 1 1.8875508370070261e+01 2.7253730348286438e+00 1.3855167036256120e+01 1 -1 1
524 1 2.2117004823122446e+01 2.4537895088538013e+00 1.6916638164496266e+01 -2 0 -1
759 1 2.3933807134356009e+01 1.4083176488966649e+00 1.5208753548806090e+01 1 1 2
1196 1 2.4746451013977038e+00 5.0301776893512784e+00 1.5650598898022350e+01 0 2 -1
285 1 6.8794994633276749e+00 6.4013925761251533e+00 1.4206046681612621e+01 0 4 0
3946 1 7.8084999562404160e+00 3.9753325146016980e+00 1.4447700411653653e+01 2 2 0
2202 1 8.7605697675247551e+00 3.4494757675060175e+00 1.6902184149664919e+01 1 1 1
1516 1 1.0708885961250708e+01 4.9609903204274604e+00 1.6716845474710983e+01 -2 0 2
2848 1 1.2432084271670345e+01 4.4527665225267912e+00 1.4592208765260755e+01 1 1 1
3800 1 1.4725964578576558e+01 3.4640506679061938e+00 1.5367685500021059e+01 1 0 1
1763 1 2.4632354432249056e+01 1.0663873126889465e+01 1.6651910285708308e+01 -2 0 -1
3209 1 2.2121675109704348e+01 4.7045959021376360e+00 1.5046481502812950e+01 -1 0 0
1168 1 2.0237377712971696e+01 6.4756436402763784e+00 1.6745345108421429e+01 0 -1 -2
129 1 3.9887396530539139e+00 6.3913259298648484e+00 1.3840069124648464e+01 -2 1 -1
2514 1 7.5597908404108969e+00 7.7699344566661965e+00 1.6452293002714274e+01 1 1 1
3341 1 1.0281490348568873e+01 7.6839118505065169e+00 1.6712223405463472e+01 1 1 1
3566 1 1.1398147767863918e+01 8.7163879505288193e+00 1.4721554911032774e+01 1 1 0
1242 1 1.6243601246080974e+01 7.9033767235608314e+00 1.5950973829104713e+01 -2 1 -1
3887 1 1.8942299394108492e+01 7.9325195871438909e+00 1.4616669066807132e+01 -1 0 0
3746 1 2.1115008599788567e+01 9.5235086623155034e+00 1.5073365969524994e+01 1 0 2
1528 1 3.9073234713372473e+00 1.0398135554493383e+01 1.5709336849772161e+01 -3 3 0
1632 1 6.4827956967739828e+00 1.0302632122126200e+01 1.6014058951008288e+01 -3 0 2
317 1 7.8355188593468279e+00 1.1504209691212102e+01 1.3917781627248372e+01 -1 -1 -1
2676 1 1.1301805665997588e+01 1.2869112271183219e+01 1.6623125205198384e+01 2 1 0
498 1 1.3068917109832157e+01 1.0534722729936297e+01 1.5508379245109106e+01 -3 -1 -1
1212 1 4.1670763087029909e+00 2.3958431437595383e+01 1.4092625374115356e+01 1 1 0
3440 1 1.9242774979700251e+01 1.1434950939455192e+01 1.4289127217103927e+01 -3 0 -1
824 1 3.1208084000324168e+00 1.8966229074407543e+01 1.4391515586074902e+01 1 0 1
3807 1 1.3252316488665315e+01 6.9497921287364839e-01 6.7629130221125262e+00 1 1 1
2847 1 6.0612015813223696e-01 1.3404794627386707e+01 1.5785661189059365e+01 2 1 -1
3051 1 3.2973423503762898e+00 1.2848338636352050e+01 1.5631806230728042e+01 1 0 1
3290 1 7.9051306470514495e+00 1.5279402209842566e+01 1.6048196418886853e+01 0 2 0
3567 1 9.4586986925859193e+00 1.3563895187345912e+01 1.4548151614560794e+01 -2 1 -2
3850 1 1.5830814782572682e+01 1.3778948051003479e+01 1.3951278355897422e+01 1 1 0
3894 1 1.4517966408077760e+01 1.5761550514545393e+01 1.5321587212596198e+01 0 0 1
3304 1 8.6903950294429233e+00 2.5512173307858554e+01 1.2118273393860321e+01 0 0 0
3828 1 1.7454599663819828e+01 1.2644429204224721e+01 1.5684868742679409e+01 2 2 -1
2952 1 2.0121077445735850e+01 1.5747733614379660e+01 1.4640176393719750e+01 1 0 1
549 1 2.3339285133844157e+01 1.3576020602054786e+01 1.4042097476003555e+01 0 0 -2
1157 1 2.5115159107104866e+01 1.4945383239358893e+01 1.2607990435670620e+01 0 0 3
3658 1 6.0751632946700527e+00 1.6108672390055887e+01 1.4237447223500503e+01 0 1 1
1022 1 4.8798246747692433e+00 1.7973202695921714e+01 1.5664249053869751e+01 1 0 0
749 1 1.0918803961899169e+01 1.8414726688191482e+01 1.4685573719391721e+01 0 0 -1
1190 1 5.3321342897657953e-01 2.1195595025330537e+01 6.5051415486762441e+00 2 0 2
1779 1 1.5820826122959589e+01 1.7831647814157819e+01 1.6451843851199566e+01 -2 1 0
2383 1 1.8901974045577209e+01 1.4845780356614865e+01 1.6787214626539424e+01 1 0 3
3428 1 1.4088341223695378e+01 1.4646678498639709e+00 1.6948796413270767e+01 0 0 0
2322 1 2.3279777849699364e+01 1.3900078351998987e+01 1.6798689167627529e+01 1 -1 -1
3348 1 3.1434885399302248e-01 1.3399655570311099e+01 2.2287761711181062e+00 2 0 0
3704 1 1.3175093363975598e-01 1.2207116762876225e+01 1.3396362940535514e+01 1 1 1
794 1 1.5712656837033688e+01 1.7587346746719874e+01 7.0571857705943819e-01 1 1 0
1020 1 1.9377425055721154e+01 2.0500177410512631e+01 9.4477739856845144e-01 -1 1 0
1260 1 9.0481088237105194e+00 1.7470453121011502e+01 1.6804741635541681e+01 1 1 1
2992 1 1.8831074747461198e+01 2.3601858912325313e+00 1.6685049772054992e+01 -1 0 1
3123 1 1.5692749183468909e+01 5.4377765716544726e+00 1.7137044553945831e+01 0 1 -1