LAMMPS data file via write_data, version 7 Aug 2019, timestep = 200000

4084 atoms
1 atom types

3.1910599265817297e-01 5.1100894007342674e+01 xlo xhi
3.1910599265817297e-01 5.1100894007342674e+01 ylo yhi
3.1910599265817297e-01 5.1100894007342674e+01 zlo zhi

Masses

1 18.15

Atoms # atomic

2812 1 4.6639452053796573e+00 1.4165094472132512e+01 5.2008771119959685e-01 1 0 1
3004 1 6.9531461305140918e-01 3.2249739633870216e+00 3.1224316557360883e+00 1 0 1
3020 1 4.2685915717272103e+00 1.5867238624055295e+00 1.7816422460133701e+00 1 0 1
25 1 8.7542039442170250e+00 3.9679725853762200e+00 5.3281081315871113e+00 0 0 0
97 1 1.6813261112080621e+01 6.7283527851539482e-01 8.3315219440593857e+00 0 0 0
2190 1 1.1547712063583743e+01 2.7592400228196126e+00 5.1332787940581497e+00 0 1 0
179 1 1.2177065226871280e+01 1.3397804670356248e+00 2.7428244460462095e+00 0 0 0
1297 1 1.4435942388799493e+01 9.8344756171579151e-01 1.7883023084326475e+00 0 1 0
3375 1 1.6025929484742051e+01 3.0981267287298193e+00 2.6265472820245632e+00 0 1 1
2900 1 2.1044081065836437e+01 2.3697902066513090e+00 2.5059663395775376e+00 0 0 1
1146 1 3.1127728002108626e+00 4.7284300996579569e+00 1.6272465904504351e+01 0 1 0
3995 1 3.7451432913134042e+00 6.0279401507384778e+00 1.4687407397369052e+00 1 1 1
3051 1 3.2151067404883045e+00 3.7592747315446311e+00 3.0698246719818809e+00 1 0 0
843 1 7.9891358029630908e+00 3.8618339358406537e+00 2.7463182124858649e+00 0 0 1
2970 1 1.1915517743247783e+01 5.1111141373663518e+00 3.1680000450582892e+00 0 0 1
329 1 1.4829628889735169e+01 5.5665060249574685e+00 2.1887683869012200e+00 0 0 0
1308 1 1.8259190505809613e+01 2.7710922928447008e+00 1.2374697995939630e+00 0 1 0
1070 1 2.2636938617296035e+01 4.5089403698122030e+00 2.7696386037937804e+00 0 1 1
2454 1 1.1826483429152987e+01 1.1025360023952395e+01 1.6910800914989419e+01 1 0 0
3064 1 2.7484259374339528e+00 8.3459810218011885e+00 2.6492578912081921e+00 0 0 1
187 1 6.2787858034689172e+00 5.5500612749523084e+00 2.1598565838422719e+00 0 0 0
671 1 5.0425945477763978e+00 1.1360735703187384e+01 1.9921980446424861e+00 0 0 1
2681 1 1.2338262343202327e+01 8.1004555031911050e+00 2.8684861294923487e+00 1 0 0
2041 1 1.7342750180459877e+01 6.8706025852656105e-01 5.7139448806502733e+00 0 1 0
677 1 1.4251433525854198e+01 9.4391045253418593e+00 1.6070258442405536e+00 0 0 1
2682 1 1.9233459732595978e+01 6.6074746361894663e+00 4.2376768088269614e+00 1 0 0
1262 1 2.0528635147718262e+01 6.2445863068820033e+00 1.6310476126014011e+00 0 0 0
3342 1 1.0280933906861241e+01 4.3708970363490778e+00 9.8954283913987240e-01 0 1 0
2336 1 2.0356481805229101e+00 1.0027486993113984e+01 4.1126350993600330e-01 1 0 0
3736 1 7.2379435995637591e+00 1.2698943987233168e+01 3.5001212342378460e+00 1 1 1
34 1 1.0232267711955748e+01 1.0453572127817356e+01 3.4421712248708292e+00 0 0 0
2963 1 1.3084737507975380e+01 1.3850821766757667e+01 2.3612415020294661e+00 0 0 1
2661 1 1.9177237512583758e+00 2.5413283779813785e+01 1.2898968997223545e+01 1 -1 0
2985 1 1.6476932448911302e+01 9.5595578982348286e+00 2.8672101911062615e+00 0 0 1
1432 1 1.9209020707384489e+01 1.0000464094479550e+01 1.7891828694456888e+00 1 1 0
2568 1 1.4024302360964521e+01 2.4199202781600455e+01 1.4674187528190959e+01 1 -1 0
153 1 2.1193897701124545e+01 2.4031532645993874e+01 5.8199896921670140e+00 0 0 0
448 1 7.2502234216768784e+00 1.7664721157437054e+01 3.2010941823623242e+00 0 0 0
192 1 2.2973248000471971e+00 8.0216968942870661e+00 1.4337025272007086e+01 0 0 0
11 1 1.1008421205431835e+01 1.6611487688287994e+01 4.6662247130171099e+00 0 0 0
1433 1 1.5190634136448347e+01 1.5353310031553731e+01 1.1139274875227565e+00 0 1 0
653 1 1.7414060286879881e+01 1.4508863509653571e+01 2.6744974526268068e+00 0 0 1
1769 1 2.2916174581940126e+01 1.2645480160302165e+01 2.7602388140449561e+00 0 0 1
2982 1 4.0205681064669179e+00 1.8136207521487254e+01 1.7075928484817622e+00 1 0 1
1841 1 9.7565019881259474e+00 1.8819640307201606e+01 3.4103057302965252e+00 0 1 1
3140 1 1.0268981085925557e+01 1.9579911331291829e+01 7.2518026988524964e-01 1 1 0
1258 1 1.4042164206375418e+01 1.7577791309592286e+01 1.7921659542287161e+00 0 0 0
3212 1 1.9707882324991782e+01 1.9962219029806452e+01 2.7315624667407947e+00 0 1 0
475 1 2.1216173654570579e+01 1.6838939338737806e+01 1.9571165049631780e+00 0 0 0
1240 1 2.1713789978340344e+01 1.9052867370061680e+01 4.2396383996835612e+00 0 0 0
2479 1 1.4799878974419647e+01 2.1993034231213660e+01 1.7226166436270325e+00 1 -1 1
2871 1 2.3656882359098468e+01 1.6755256852244830e+01 1.2014672417948995e+00 0 1 1
3541 1 3.1256691844658135e+00 2.1451434218206103e+01 1.3344889537576727e+00 1 0 0
2290 1 6.1377584718834450e+00 2.1967925307360758e+01 2.8053696694358292e+00 1 0 0
3416 1 9.9469674033873048e+00 2.5145942089227042e+01 4.4536019921547148e+00 0 1 0
1384 1 8.7401429611179182e+00 2.2046408027536199e+01 2.0099769750249239e+00 0 0 0
2772 1 1.4440436128977151e+01 2.0220315708838953e+01 3.6724188292756246e+00 0 0 1
1332 1 1.7250061284288979e+01 1.9744612651925433e+01 4.0786386505792187e+00 0 1 0
2929 1 2.5313084084404917e+01 2.2520717790125140e+00 4.0634470548140458e+00 0 0 1
1669 1 2.0834999485482928e+01 2.3504078208491869e+01 3.1578787969978257e+00 0 1 1
3383 1 2.3255552965428446e+01 1.9862049665779576e+01 2.0042355206124336e+00 0 1 0
1651 1 3.4302119902892505e+00 7.5238496752032562e+00 1.7223956565644674e+01 0 0 0
1006 1 1.8329395487120816e+01 1.7784818321864687e+01 1.4745524764540884e+01 0 0 1
2540 1 5.0869514535549811e+00 9.5025851639369083e+00 1.7014186156914445e+01 1 0 0
617 1 1.2654188141721226e+01 2.3316940569967105e+01 1.5289400020321708e+00 0 0 0
4039 1 2.5181699391171861e+01 2.2974466686142630e+01 3.4134686846057418e+00 0 0 1
1333 1 1.6439729838354431e+01 2.4041106347220072e+01 2.1645566026037519e+00 0 0 0
180 1 5.5519586213209919e+00 1.2401803024846016e+01 1.7025008332500786e+01 0 0 0
3746 1 1.5340921304366585e+01 8.1115517957661289e+00 1.7061010400398075e+01 1 0 0
1632 1 5.4085199111252837e+00 1.4240280418774800e+00 1.5872356634797699e+01 0 1 0
169 1 4.3310158067446434e+00 1.7514919616434588e+00 7.1820092319747157e+00 0 0 0
1577 1 7.1177987340809468e+00 2.5574721610898241e+01 5.4451585887681935e+00 0 0 0
2833 1 1.6650777993946139e+01 3.4725574039722251e+00 5.2437216052400091e+00 0 0 1
2452 1 2.5206193769604820e+01 1.5949000202046383e+01 3.3412500533562226e+00 0 0 0
3986 1 2.0952550533687738e+01 2.4212915059050051e+00 5.2752554613642513e+00 1 1 1
220 1 1.4545632602489018e+00 1.3252520928081777e+00 6.9244868618574014e+00 0 0 0
2347 1 3.2735434698898596e+00 4.2314602581170622e+00 5.6568664076237107e+00 1 1 0
2195 1 1.1870652633102299e+00 6.0114298013492533e+00 6.0264564884275416e+00 1 0 0
602 1 5.7670604439242590e+00 5.5785107695462326e+00 6.3543341369782560e+00 0 0 0
158 1 6.4573045728240741e+00 7.1343969735306239e+00 4.4415342472690096e+00 0 0 0
533 1 1.0841790671786180e+01 3.0372777221630853e+00 9.3034393238117730e+00 0 0 0
2256 1 1.9255127533123385e+01 4.0084271164124718e+00 6.2412452789481119e+00 0 1 0
923 1 2.1367391594488257e+01 6.1041138716896182e+00 6.0110443636874828e+00 0 0 1
1697 1 2.3790775893614899e+01 4.9621845410038974e+00 5.0791668754781814e+00 0 1 1
4019 1 4.8241968918981462e+00 9.1839416713074424e+00 4.2570736787847192e+00 1 1 1
35 1 9.3668144135905482e+00 9.2177458173706910e+00 7.0907157387918947e+00 0 0 0
3010 1 1.2695125482410518e+01 8.4113056521941427e+00 5.5035673342592339e+00 1 0 0
1305 1 1.6484760546408374e+01 7.0733435262531748e+00 3.9192197169761753e+00 0 1 0
3378 1 1.5173583815157006e+01 6.7325104221456158e+00 6.2309329628186614e+00 1 0 0
2461 1 1.9131590614223096e+01 9.2754986186840043e+00 6.5849229968643597e+00 1 0 0
2640 1 2.1319645202328523e+01 6.4020634029810406e+00 8.7343459231844669e+00 0 0 0
221 1 2.4382824795556814e+00 1.2653894041716978e+01 2.0200077161917545e+00 0 0 0
2326 1 9.9713346131333118e+00 8.0091434574193237e+00 1.0390905221791051e+00 0 0 0
248 1 2.8983008381183550e+00 1.2761955146056378e+01 4.8774310382456809e+00 0 0 0
152 1 3.6384962191551100e+00 1.0193298236151300e+01 6.6921061555235051e+00 0 0 0
1256 1 8.9004542325462186e+00 8.2570295333814059e+00 4.6505873017616484e+00 0 1 0
1263 1 7.4176672254779561e+00 1.1442201996000335e+01 6.0358315071089104e+00 0 1 0
2500 1 1.1588393499818443e+01 1.2820603074584989e+01 4.7197792305132031e+00 0 0 0
2006 1 1.2954716912746781e+01 1.0981169466429792e+01 6.3255642483361392e+00 0 1 1
2051 1 1.5139350794544292e+01 1.3506125570196909e+01 4.3020130187192658e+00 0 0 0
3267 1 1.7223720973877331e+01 1.1450180478415867e+01 5.0692949678352806e+00 1 0 0
326 1 2.0685036227553969e+01 1.1380348116182471e+01 3.7371145315741376e+00 0 0 0
1015 1 2.1780952153372525e+01 9.1709376106787097e+00 5.3534624884597388e+00 0 0 1
1981 1 4.3396025281230646e+00 1.5111088953012910e+01 5.2877487446326814e+00 0 1 1
2036 1 7.0165712130249522e+00 1.5149250089653991e+01 4.5423286598266976e+00 0 1 0
657 1 1.5229322316587378e+01 1.5835133355243421e+01 5.5947100277381976e+00 0 0 1
664 1 1.9334203247946888e+01 1.3279325453399570e+01 5.3154023908263781e+00 0 0 1
282 1 1.9525043576850592e+01 1.5849634983415044e+01 3.9676836358268481e+00 0 0 0
3026 1 2.0987093637532411e+01 1.4178610149188257e+01 6.2825176713035680e-01 0 0 0
2184 1 2.5170837896506796e+01 1.0852276114698007e+01 1.6468285834364607e+01 0 0 0
3813 1 2.8924892107572044e+00 1.6682621989933164e+01 3.8410935708935727e+00 1 0 1
342 1 2.3298215731009755e+00 1.8994997966111693e+01 5.4338551377230653e+00 0 0 0
1135 1 6.6639725677742323e+00 2.0025207079524236e+01 4.4693442167985955e+00 0 1 0
3094 1 8.9470083312773294e+00 1.5568073542268428e+01 6.3350982828572491e+00 1 0 0
3062 1 1.3589056440593810e+01 1.7418900841139234e+01 4.6994906402696746e+00 1 0 1
1766 1 1.7479678348663093e+01 1.7149446371560895e+01 5.2947571276166467e+00 0 0 1
1019 1 2.1288056921967470e+01 1.6759106741652349e+01 5.7783665061495837e+00 0 0 1
3042 1 2.4299022406461702e+01 1.7198141283306331e+01 5.9630873067730521e+00 0 0 1
3227 1 2.2739662814209010e+00 2.1233142783611331e+01 4.0156457474239691e+00 1 0 0
1292 1 2.4521094256573477e+01 8.7977228997763586e+00 4.0889031520211496e+00 0 1 0
2009 1 9.2251485228947043e+00 2.1066422828268163e+01 5.4238531996508987e+00 0 0 1
863 1 1.0791720245759455e+01 2.2879387172681160e+01 3.5621745727792260e+00 0 0 1
2911 1 1.2798093425596898e+01 2.1733310198345155e+01 5.3660004996241080e+00 1 0 1
2680 1 1.7055992724046401e+01 2.2012060656374278e+01 5.7461721463033708e+00 1 0 0
1963 1 1.7925358690282351e+01 1.9874592630747575e+01 9.0319447424335983e+00 0 1 1
283 1 1.9111677364967687e+01 2.2015241123358759e+01 7.6991105307119572e+00 0 0 0
1345 1 4.3969222212088965e-01 7.0872970304626817e+00 3.4707308211957479e+00 0 1 0
2083 1 5.1094001189168914e+00 2.3567218147676620e+01 4.6005952087054922e+00 1 0 0
989 1 7.9325616915400543e+00 2.3033195171072283e+01 7.0163590499811317e+00 0 0 1
2783 1 4.1724778209083029e+00 2.1380602650883876e+01 1.6680963655967091e+01 1 0 0
2780 1 1.3140983504659753e+01 2.4152726319356436e+01 7.1009810607179125e+00 0 0 1
791 1 1.4659542640304709e+01 2.5553468743934729e+01 5.0374043679243004e+00 0 0 1
1752 1 1.6824226495458689e+01 2.4537835976159823e+01 4.8599256869385448e+00 0 1 0
674 1 1.8040617639465172e+01 2.0283182701060124e+01 1.6116533374787160e+01 0 0 0
1016 1 4.4769632770124723e-01 1.2473092380745014e+01 7.5858958801390504e+00 1 0 1
57 1 2.3735748645743076e+01 3.6064810193004909e-01 7.3276029086008814e+00 0 0 0
1845 1 2.3868308168594734e+01 2.4608019528502972e+01 5.7167577958001914e+00 0 0 1
2700 1 2.1754552848588343e+01 1.4259759535563090e+01 1.6146959581781303e+01 0 0 0
2662 1 4.0167177150476956e+00 2.9861989912410190e+00 9.6716472957309918e+00 1 0 0
3457 1 8.5277852810608028e+00 1.4906142277802821e+00 8.3593139403363530e+00 0 1 0
3177 1 6.9455946624523186e+00 3.1211825037010996e+00 1.0701744855368108e+01 0 1 0
1069 1 1.4418711700797312e+01 2.1533670334532866e+00 9.3325399731413725e+00 0 0 0
3252 1 1.9200235336245072e+01 1.5623169840783918e+01 1.6234262092091605e+01 0 0 0
1040 1 5.6243136835122898e-01 7.8964368467631618e-01 1.8305888682195828e+00 1 1 0
839 1 2.4230579952250682e+01 2.1859046068649054e+01 7.0355155012782307e+00 0 0 1
476 1 1.1195684703441453e+01 1.5594272583736288e+01 2.1216901727375923e+00 0 0 0
2365 1 4.4225447395637456e+00 6.3233729502065623e+00 8.8111884451859162e+00 1 0 0
3382 1 8.6935428034479099e+00 5.8926522846841873e+00 7.2022700624331284e+00 0 1 0
3285 1 8.9282158749031293e+00 5.1242255691602860e+00 9.7089790024235736e+00 1 1 0
1431 1 1.2686733744229281e+01 4.3901024197195815e+00 7.2979742933379672e+00 0 1 0
1602 1 1.5365419754459062e+01 4.4812804212047483e+00 7.5572086165745000e+00 0 1 0
1555 1 1.8552624759455846e+01 2.5892784309596673e+00 8.8213740435275181e+00 0 1 0
334 1 2.3343791247607047e+01 2.9220660446006144e+00 7.4810899043897487e+00 0 0 0
1302 1 2.1534344782078982e+01 3.7828273362431668e+00 9.1355658584753172e+00 0 1 0
1158 1 2.8753941080926579e+00 7.6400402935310856e+00 7.3594284724018051e+00 0 1 0
2355 1 1.0905587330453110e+00 7.8777151425563252e+00 9.6273410007365623e+00 1 0 0
2650 1 8.0344390337804796e+00 8.5883736587216184e+00 9.5908737581301438e+00 1 0 0
3190 1 6.0463886997068910e+00 7.0132940118987426e+00 1.0821567455250142e+01 1 1 0
2057 1 1.1498475264799593e+01 6.7144124844327582e+00 7.5261422661735260e+00 0 0 0
2543 1 1.2531959939677488e+01 7.8538658936872210e+00 1.0190382721601372e+01 1 0 1
2656 1 1.6418137931050797e+01 8.5809538188397845e+00 7.5600164004574637e+00 0 0 0
1878 1 1.5232209486162926e+01 5.8575694306506003e+00 1.2595093252834939e+01 -1 1 1
120 1 1.5106106970772656e+01 8.2566194726271931e+00 1.0471585110679694e+01 0 0 0
2582 1 1.6750025206528726e+01 5.9124596340886839e+00 9.9470140126882765e+00 0 0 0
2592 1 1.8938078354070498e+01 8.0767350086171099e+00 9.4330254572384291e+00 0 0 0
1129 1 6.3459446143346980e+00 2.0922513512164940e+01 1.5228604359918997e+01 0 0 0
147 1 2.3418512003796071e+01 8.0620172729611923e+00 9.1945915871417512e+00 0 0 0
1793 1 3.0941981723316050e+00 1.2343627171004780e+01 8.7272438753826780e+00 0 0 1
3124 1 6.0126870466658602e+00 1.0410492894758791e+01 8.2110197235441902e+00 0 1 0
295 1 7.3986452673381295e+00 1.3528745935254877e+01 9.2126233453501634e+00 0 0 0
185 1 9.5484089831598045e+00 1.3023484078005053e+01 7.3171863940415491e+00 0 0 0
3287 1 1.1154929146948193e+01 1.0880804326935841e+01 8.3910914643859069e+00 1 1 0
2999 1 1.5474761119195941e+01 1.1167312481996587e+01 7.1423553068046575e+00 0 0 1
418 1 2.0072283390956482e+01 1.1744830845907808e+01 7.8881858951213308e+00 0 0 0
1499 1 2.2753143301696330e+01 1.0424854677437406e+01 8.1241312350471784e+00 0 1 1
1287 1 3.9081782583892832e+00 1.4809010487080220e+01 7.9363485673957053e+00 0 1 0
2214 1 6.0016576486402560e+00 1.5567657266450759e+01 9.2983032489306634e+00 0 0 0
675 1 1.1328508715406741e+01 1.7440747307058302e+01 7.4419693465240861e+00 0 0 1
2473 1 1.1359563799605640e+01 1.3595445285164091e+01 1.0269598806775342e+01 1 0 0
1456 1 1.2418256883159296e+01 1.5677689087004818e+01 9.2894699257653617e+00 0 0 0
1537 1 1.6021067283532766e+01 1.3112800727324945e+01 9.2939211229595156e+00 0 1 0
773 1 1.8022082605483725e+01 1.5358454232117158e+01 9.4375475314951878e+00 0 0 1
332 1 2.0236398966382026e+01 1.4756908784565091e+01 7.8366986785941064e+00 0 0 0
3785 1 2.2587243079943239e+01 1.4674424367542194e+01 9.3582344166010021e+00 0 1 0
308 1 2.4854730081342446e+01 1.4692988489637109e+01 7.1114110142675075e+00 0 0 0
1488 1 1.9519741660911112e+00 1.6895872181780707e+01 8.8343832258958859e+00 0 0 1
654 1 2.3334965398712728e+00 1.9671623180927632e+01 8.7852159838670332e+00 0 0 0
2990 1 5.1033653632068221e+00 1.9025987719897326e+01 6.7457854472949288e+00 1 0 1
3661 1 7.1330719055784648e+00 1.7354960968775242e+01 7.6701812455885809e+00 0 1 0
1421 1 8.6026926480581984e+00 1.9219574995063805e+01 8.8466599419996221e+00 0 1 0
266 1 1.3757548585829609e+01 1.9152200337284139e+01 7.0427330900131313e+00 0 0 0
160 1 1.4556419242213225e+01 1.5346460435034606e+01 8.2580423858558305e+00 0 0 0
3174 1 1.5699364664871077e+01 1.7211333212476539e+01 1.0480763751326238e+01 1 1 0
117 1 1.8441453594458956e+01 1.7497638159264113e+01 7.9329650852949589e+00 0 0 0
2973 1 2.2697268180160982e+01 1.7889852709604764e+01 1.0177398753038483e+01 0 0 1
1625 1 3.6333508739423319e+00 2.2045345359033231e+01 8.5428276030710339e+00 0 1 0
402 1 6.3237340585530983e+00 2.1175643106442045e+01 8.1559316496225591e+00 0 0 0
3801 1 1.0751336172429852e+01 2.0434848034128361e+01 7.3937535942798025e+00 1 0 1
3082 1 1.5421451510577677e+01 2.0070990453871278e+01 8.7958457424395000e+00 1 0 0
1694 1 1.5754297800410725e+01 2.2855994959078600e+01 8.1825258061512578e+00 0 0 0
1119 1 1.9553104589310106e+01 2.3847408337310732e+01 9.6915667556641036e+00 0 0 0
1953 1 2.3097521828225609e+01 2.0369535144643937e+01 1.1061566337172238e+01 0 0 1
2746 1 2.1405585125641021e+01 2.0949390676376076e+01 6.6610524430650502e+00 1 0 1
3608 1 3.1449416283621918e+00 2.3324130631601012e+01 6.1448684495048305e+00 1 0 0
1607 1 1.5419446346152428e+01 4.5460102228773119e-01 1.3401328338753947e+01 0 1 0
3991 1 9.2650087005863249e+00 2.4114201181666616e+01 9.1758835973043489e+00 1 0 1
1559 1 2.5590956941764567e+01 4.3705251341827083e+00 8.2274595988108103e+00 -1 0 0
2509 1 1.1685563197609030e+01 2.2646433582941615e+01 8.7437872309921865e+00 0 0 0
2716 1 1.6091198624364100e+01 2.4297413724052436e+01 1.0456123630838119e+01 0 0 1
1834 1 2.2998366588615717e+01 2.2425109788614318e+01 1.9726797105941687e+00 0 1 1
788 1 2.2237561192371210e+01 2.2405764922634422e+01 9.6282950523141633e+00 0 0 1
2157 1 2.3988985384514063e+01 2.4455139351264091e+01 1.0206247385676255e+01 0 0 0
1708 1 8.3923716236857651e+00 1.2410445351219797e+01 1.2106426392880438e+00 0 0 1
3464 1 2.0204500714224092e+00 2.2398805252543337e+00 1.2092026249580286e+01 1 0 0
3777 1 8.2360856216673568e+00 1.1122010596015772e+00 1.2278673219748288e+01 1 1 0
1748 1 1.0583338249079098e+01 2.3460267484522581e+00 1.3568520228331469e+01 0 1 0
2413 1 2.2745814267328434e+01 9.9992697429842514e-01 1.2524590331914252e+01 0 0 0
746 1 2.0425135851942837e+01 6.7512127213776907e-01 1.0677046987968634e+01 0 0 0
1888 1 2.0901689367467696e+01 1.1632725832221579e+01 1.6235969263185495e+01 0 1 0
3946 1 2.5268414757339923e+00 5.6568983237747004e+00 1.0908250405992044e+01 1 1 1
2775 1 3.5991646236265202e+00 6.0462484577652864e+00 1.3401978401763447e+01 1 0 0
3548 1 6.1942389489307752e+00 4.3793920693878325e+00 1.3012302954200939e+01 1 1 0
3998 1 9.7159979596579849e+00 7.1903400194403213e+00 1.3644753949129850e+01 1 0 0
224 1 8.8429187102674085e+00 4.5321983880982302e+00 1.4234514163090791e+01 0 0 0
3869 1 1.0965315219539120e+01 6.0687597732399263e+00 1.1268532964129507e+01 1 1 0
3842 1 1.2489259241215734e+01 3.7933056357185122e+00 1.2005387786760512e+01 1 1 0
1096 1 1.5240708622750160e+01 2.8307054044122077e+00 1.1948995087383636e+01 0 0 0
339 1 1.7821808610017886e+01 3.6415829239371873e+00 1.1001546385128135e+01 0 0 0
3941 1 2.3273678179561255e+01 3.7018446379303493e+00 1.1207392951514922e+01 0 1 1
2433 1 1.8179069936212098e+00 9.3591539935029964e+00 1.1766165699769823e+01 1 0 0
3633 1 4.8606975363739764e+00 9.2463680814323546e+00 1.1245754563358192e+01 1 1 0
1716 1 5.2699976009996465e+00 9.1494558722072838e+00 1.4005534718507215e+01 0 0 0
1195 1 9.1413079508473380e+00 9.5091887148487491e+00 1.1782094527666827e+01 0 1 0
241 1 1.7258884504899193e+01 5.7405127454786182e+00 1.4090886495494171e+01 0 0 0
1030 1 1.3146886813110179e+01 5.8477170771541296e+00 1.4394816875395509e+01 0 0 0
833 1 1.9449865025167615e+01 4.3804069257370344e+00 1.3188328798459791e+01 0 0 0
3390 1 2.3550444997724586e+01 9.3122500920893252e+00 1.1689705832417712e+01 0 0 0
388 1 2.1268016456561327e+01 6.1172441043355246e+00 1.1977771376551178e+01 0 0 0
2591 1 2.6697393892606862e+00 1.2357276327248039e+01 1.1472345305338139e+01 0 0 0
622 1 5.6777620964417794e+00 1.2148826915896455e+01 1.0903459433344885e+01 0 0 0
971 1 7.9979691227716154e+00 1.2081970667294941e+01 1.2957294636823461e+01 0 0 1
2493 1 1.1558435011144235e+01 1.0393030950102895e+01 1.1269159962303437e+01 1 0 0
492 1 1.2870423730523624e+01 1.3003010210490233e+01 1.2423411311835382e+01 0 0 0
1398 1 1.5595994568510148e+01 1.2881986334368641e+01 1.2023373314422063e+01 0 1 0
3337 1 1.5895772692271079e+01 9.9885773139371956e+00 1.2352463376483497e+01 0 0 0
1237 1 1.8750773181803041e+01 9.9652419435373556e+00 1.1087940840189129e+01 0 0 0
33 1 2.2512665890500941e+01 1.2051388634461672e+01 1.1792349422957574e+01 0 0 0
3103 1 3.6209161249615156e+00 1.8856651287023208e+01 1.5200813119191908e+01 1 0 0
182 1 2.3514075282962659e+00 1.5203275869380093e+01 1.2012778010282927e+01 0 0 0
703 1 9.0593646772126100e+00 1.4035101874412588e+01 1.1349736122495534e+01 1 0 1
798 1 1.3422978597942553e+01 1.5825274227779591e+01 1.4119666148115215e+01 0 0 1
3367 1 1.6344976509665603e+01 1.6788792005815594e+01 1.3763048083840181e+01 0 1 0
181 1 1.9979100208903038e+01 1.2226163197061517e+01 1.1096913510113311e+01 0 0 0
978 1 1.9353070552100181e+01 1.4670401381568874e+01 1.1499481112647782e+01 0 0 1
246 1 1.8629474127351408e+01 1.2786132596073475e+01 8.5788097803344054e-01 0 0 0
2892 1 4.2761792158111234e-01 3.9756586733882084e+00 1.0370957989586108e+01 1 0 1
1599 1 4.5947138469213549e+00 1.6581597590999529e+01 1.1317978923264858e+01 0 1 0
2925 1 8.7207482571605333e+00 1.6295783334476102e+01 1.2514013507171542e+01 1 0 1
1528 1 1.0126436984447155e+01 1.8454055049284875e+01 1.1186064126621037e+01 0 0 0
2396 1 1.2627717842603976e+01 1.7481214055989998e+01 1.1390012472637819e+01 0 1 0
3389 1 1.8019838508843826e+01 2.0166957397146394e+01 1.1522002810385555e+01 1 0 0
1713 1 2.1199004893681838e+01 1.6603693050147392e+01 1.1655437428347534e+01 0 0 1
3146 1 2.1242139145112198e+01 1.8641992522324838e+01 7.9658722389062318e+00 0 0 0
895 1 2.5403400850171575e+01 1.7232793758734644e+01 1.0481871982882671e+01 0 0 1
1233 1 2.5161040882211086e+01 1.0694355115643670e+01 6.1499519048104441e+00 0 1 0
396 1 4.4764709518516987e+00 2.3264614879366320e+01 1.1099996843241817e+01 0 0 0
1045 1 7.1699240637130508e+00 2.0889943235630092e+01 1.0807213437185696e+01 0 0 0
2016 1 5.0899512633958475e+00 2.0555059062267752e+01 1.2544891295074128e+01 0 0 1
2394 1 1.0738595082273058e+01 2.0983585887836973e+01 1.2872035295529214e+01 1 0 0
1144 1 1.4014673276835930e+01 1.9909084720478543e+01 1.1059949437120434e+01 1 0 0
1151 1 1.7998326876959432e+01 2.2882824506033231e+01 1.1849683683187173e+01 0 0 0
1168 1 2.0940302140144201e+01 2.3729331214898743e+01 1.2451648291975770e+01 0 0 0
3990 1 1.2152027775305618e+00 2.4862405245402172e+01 1.7041209762732986e+01 1 0 1
1236 1 3.1332791717521729e+00 2.2470769071776107e+01 1.3934422218890285e+01 0 0 0
2289 1 1.6353637360839515e+00 1.9017833059008460e+01 1.3346635325060449e+01 1 0 0
2449 1 7.9501789875725786e+00 2.3535804773827433e+01 1.1157031748522407e+01 1 0 0
1322 1 9.1962998360046200e+00 2.3679620537344537e+01 1.3495775721273780e+01 0 0 0
1017 1 4.5244977638454065e-01 2.1426458876564645e+01 1.4026196596781856e+01 0 0 1
1316 1 1.2411879751548963e+01 2.2009232114192386e+01 1.1223989226126898e+01 0 0 0
598 1 1.3825404594356019e+01 2.4170227844714660e+01 1.1934151092322855e+01 0 -1 0
1587 1 1.7256634077849746e+01 2.3576458468499276e+01 1.4475516983593186e+01 0 0 0
146 1 2.3745650820204922e+01 2.3654382651931630e+01 1.2840139095047498e+01 0 0 0
2056 1 6.4258201427109451e-01 2.0595963347502568e+00 1.4422208830893712e+01 1 0 1
3309 1 1.6171455792817444e+00 2.3528090505773370e+01 1.0653132113463348e+01 1 0 0
870 1 2.0100220113108957e+01 2.1481589336217347e+01 1.4460729082122640e+01 0 0 1
2450 1 4.0709901206223762e+00 2.8757160411768190e+00 1.4216200682065473e+01 1 0 0
1884 1 1.1547402118167749e+01 1.2098403046047004e+00 1.5771789680235734e+01 0 1 0
526 1 1.4229882281813843e+01 1.2555518764803950e+00 1.5958263780378880e+01 0 0 0
2811 1 1.9760087523900925e+01 1.8920551812215258e+00 1.4159493749417097e+01 1 0 0
562 1 1.6664299506627810e+01 4.1807303029708791e+00 1.6107175946579765e+01 0 0 0
1506 1 2.2669085907197275e+01 3.1034844381630453e+00 1.4909118873749099e+01 0 1 0
1235 1 7.8923439253336225e+00 2.3011222956349460e+01 1.5876986451540315e+01 0 0 0
859 1 1.3055810358169468e+01 1.1755370383898450e+01 6.0953526802770863e-01 0 0 1
2143 1 1.5984961345278036e+01 2.1383195322281292e+01 1.4976813470750237e+01 1 0 0
1465 1 1.1978529173131525e+01 8.4419394270443089e+00 1.4809440607699718e+01 0 1 0
1943 1 1.4005905993967273e+01 4.0819396675421080e+00 1.6396889307837128e+01 0 1 1
917 1 1.7547003731734467e+01 1.3477240094872034e+00 1.6278648340714049e+01 0 0 1
474 1 2.5311011183155109e+01 1.2894658542882752e+01 5.0905145767658615e+00 0 0 0
145 1 2.2644911409440645e+01 6.7747752674771400e+00 1.6666931618965425e+01 0 0 0
261 1 2.3211364106698060e+01 5.6349216888762079e+00 1.4274087914770835e+01 0 0 0
576 1 7.0108260788284875e+00 1.5927257872798437e+01 1.6460344347803204e+01 0 0 0
1409 1 3.5715208021768410e+00 1.1575457871928000e+01 1.4234000893765351e+01 0 0 0
2560 1 1.4521166281483179e+01 1.6113565453644370e+01 1.6759779960744360e+01 0 0 0
2883 1 7.8531302062469761e+00 9.0114550304715646e+00 1.5074214045351663e+01 1 0 1
984 1 1.3537710955176042e+01 1.0172568917850194e+01 1.3862570485134425e+01 0 0 1
508 1 1.9677400293451917e+01 8.1450647824039475e+00 1.3292329912771788e+01 0 0 0
2904 1 2.1318901016746025e+01 1.0170225888946078e+01 1.4088317638809201e+01 0 0 1
2667 1 2.3777232147392759e+01 8.7313770766388981e+00 1.5104229242272003e+01 0 0 0
387 1 1.2463639192528269e+00 1.1201121955233443e+01 1.6179889791080996e+01 0 0 0
1298 1 9.1326589668755194e+00 1.1369513511063357e+01 1.5729186061460396e+01 0 1 0
219 1 5.7762645933187997e+00 1.3113228936361642e+01 1.4227210618240866e+01 0 0 0
14 1 6.6346597231438524e+00 1.6704687901368629e+01 6.6912900471661285e-01 0 0 0
4038 1 6.9274788392127880e+00 2.4671381991970245e+00 6.1844970727527695e+00 1 1 1
846 1 1.7259195819212827e+01 8.5232990297315396e+00 1.4976161488554450e+01 0 0 1
633 1 1.8653154722105683e+01 1.0098975695928312e+01 1.6847770289817884e+01 0 0 0
247 1 2.4235520647152875e+01 1.3576052514149733e+01 1.3042016724626514e+01 0 0 0
1565 1 2.0308403401983854e+00 1.5201850368762381e+01 1.5131348227716048e+01 0 0 0
207 1 4.8043443318892223e+00 1.5659047449933558e+01 1.4602785155888016e+01 0 0 0
2325 1 1.1825495902891449e+01 1.3301043757213023e+01 1.4825601855650872e+01 0 0 0
1557 1 9.9127828260600968e+00 1.5638096210899153e+01 1.5069247232781496e+01 0 0 0
3868 1 1.1588272815070924e+01 1.7624918020929623e+01 1.4255612147698955e+01 1 0 1
3063 1 2.2335945960843418e+01 1.9666750021700107e+01 1.3624077059034152e+01 0 0 1
1296 1 1.4967906329046370e+01 1.2115427243210561e+01 1.5607891975328517e+01 0 1 0
3520 1 6.0518597445295450e+00 2.5605097647930833e+01 1.5341085902364544e+01 0 0 0
898 1 1.7508170099059555e+01 1.4179550924736612e+01 1.3321561002356093e+01 0 0 1
1206 1 2.2681538711841394e+01 1.5857779283386394e+01 1.3919716598178777e+01 0 1 0
3768 1 4.1660832086577138e-01 1.5898503541398638e+01 3.0618950876560409e+00 1 0 1
2093 1 3.0755202426001182e+00 2.4267455308009239e+01 7.4137502543013389e-01 1 0 0
2427 1 2.4688149334935733e+01 1.9881379820892189e+00 1.6256167879749860e+01 0 0 0
3793 1 3.2116620176083734e+00 1.8863915384517952e+01 1.1234576141406590e+01 1 0 0
1227 1 5.9609158827159829e+00 1.7498129259438734e+01 1.3424414163008366e+01 0 1 0
2203 1 7.5730546711936348e+00 1.8846646218805979e+01 1.6682925891485610e+01 1 0 0
1802 1 1.5891864287274240e+01 1.9549530945129778e+01 1.2979393113673535e+01 0 0 1
3462 1 1.2208893400451114e+01 1.9857862307485494e+01 1.5997630354955161e+01 1 0 0
583 1 1.9794978243041811e+01 1.8538482482716631e+01 1.2794983637908000e+01 0 0 0
2178 1 2.4528924646925663e+01 1.8040837999647632e+01 1.3956949826674933e+01 0 0 0
3401 1 6.7520879431555070e+00 1.5558702770383723e+00 2.1693284608312542e+00 1 0 0
737 1 2.4188974528834475e+01 1.2226920443943978e+01 9.5099600098233861e+00 0 0 0
3006 1 4.1149425050762538e+00 2.4224355441830927e+01 1.6394035578678032e+01 0 0 1
352 1 1.1771595067945274e+01 2.2738309805296645e+01 1.4860391705724904e+01 0 0 0
150 1 1.8843528697934872e+01 2.2541649572327152e+01 1.1858601872191050e+00 0 0 0
252 1 1.7654706272577890e+01 1.2967681347685240e+01 1.5779770898179626e+01 0 0 0
3666 1 1.3941867001454353e+00 1.9441341195185441e+01 6.5035673565021979e-01 1 0 1
1008 1 1.0054040754808092e+01 1.4813508812624612e+00 5.9022390331684216e-01 0 0 1
3160 1 2.0538486392543213e+01 2.6567273885817242e+00 1.6893455958459587e+01 0 0 0
1969 1 7.3576313143474739e+00 7.5226024384400478e+00 6.5245680911595505e-01 0 1 1
1647 1 8.8557642032530985e+00 1.5040064474895075e+01 5.0799175648438077e-01 0 1 1
3882 1 8.9636624432313603e+00 4.6067134068626299e+00 1.7163636805192979e+01 1 1 0
1150 1 1.9371217257742817e+01 1.8080147450395540e+01 3.9481176180254351e-01 0 1 0
3999 1 2.9899439098179208e+00 3.1230049920919143e+00 1.8678062692979314e+01 1 1 1
424 1 6.3478116170386230e+00 2.4500392815182939e+00 2.0230512985088257e+01 0 1 0
2739 1 1.2037925981311204e+01 3.3689682463383397e+00 1.9912279777857567e+01 1 0 1
1255 1 1.0790791493603062e+00 1.2193195978230702e+00 3.3050372062389755e+01 0 1 -1
3607 1 2.5669072921934410e+00 2.3831380282024824e+01 3.1299338747248882e+01 1 0 0
1285 1 1.6315107969217557e+01 2.8246328262749545e+00 2.1070921693489659e+01 0 1 0
1492 1 1.8317009296162926e+01 9.7423575942446483e-01 1.9557695840717326e+01 0 1 0
194 1 2.2404603137185457e+01 3.3735830605875998e+00 1.8929053651412293e+01 0 0 0
3613 1 1.1736938931204834e+01 2.5494774155317142e+01 2.7341587926250789e+01 1 0 0
1336 1 1.7124242414072540e+01 6.2441617154641227e+00 1.7962492245733348e+01 0 0 -1
1392 1 1.0500050243416986e+01 1.2103378040201513e+01 3.3661881095975858e+01 0 1 0
2437 1 4.8038860496200924e+00 4.1068460318241264e+00 2.2126919927066449e+01 1 0 0
1300 1 1.3588074404534472e+01 1.7866964544302743e+01 1.8761401963808630e+01 0 0 0
566 1 1.2757386401902242e+01 2.5455918830429109e+01 1.8138556450279616e+01 0 0 0